BUMPy system t= 1000000.00000 step= 50000000
67128
    1BOLB   NC1    1  22.160   4.050  21.170
    1BOLB   PO1    2  21.980   3.730  21.370
    1BOLB   GL1    3  21.590   4.000  21.130
    1BOLB   GL2    4  21.270   4.040  21.100
    1BOLB   C1A    5  21.670   4.360  20.790
    1BOLB   C2A    6  21.530   4.770  20.590
    1BOLB   C3A    7  21.580   5.190  20.290
    1BOLB   C4A    8  21.590   5.600  20.320
    1BOLB   C1B    9  21.120   4.390  21.070
    1BOLB   C2B   10  21.070   4.850  21.030
    1BOLB   C3B   11  21.140   5.140  20.690
    1BOLB   C4B   12  21.110   5.420  20.320
    1BOLB   NC2   13  20.380   7.440  18.320
    1BOLB   PO2   14  20.640   7.200  18.640
    1BOLB   GL3   15  20.850   6.920  18.810
    1BOLB   GL4   16  21.070   6.980  18.940
    1BOLB   C1C   17  21.000   6.500  19.060
    1BOLB   C2C   18  21.400   6.290  19.240
    1BOLB   C3C   19  21.490   6.120  19.640
    1BOLB   C4C   20  21.610   5.860  20.040
    1BOLB   C1D   21  21.330   6.790  19.250
    1BOLB   C2D   22  21.190   6.530  19.640
    1BOLB   C3D   23  21.000   6.360  19.990
    1BOLB   C4D   24  20.870   6.230  20.430
    2BOLB   NC1   25  19.370  19.910  18.390
    2BOLB   PO1   26  19.560  20.100  18.790
    2BOLB   GL1   27  19.510  20.300  19.170
    2BOLB   GL2   28  19.470  20.670  19.150
    2BOLB   C1A   29  19.150  20.350  19.480
    2BOLB   C2A   30  18.950  20.580  19.890
    2BOLB   C3A   31  18.920  20.410  20.370
    2BOLB   C4A   32  18.660  20.170  20.680
    2BOLB   C1B   33  19.210  20.850  19.530
    2BOLB   C2B   34  18.780  21.080  19.760
    2BOLB   C3B   35  18.450  21.260  20.050
    2BOLB   C4B   36  18.480  21.290  20.570
    2BOLB   NC2   37  18.280  21.100  22.820
    2BOLB   PO2   38  18.100  20.620  22.900
    2BOLB   GL3   39  18.050  20.550  22.520
    2BOLB   GL4   40  18.200  20.300  22.560
    2BOLB   C1C   41  17.960  20.230  22.060
    2BOLB   C2C   42  18.140  20.080  21.740
    2BOLB   C3C   43  18.150  20.110  21.340
    2BOLB   C4C   44  18.270  20.100  20.790
    2BOLB   C1D   45  18.380  20.090  22.320
    2BOLB   C2D   46  18.550  20.180  21.980
    2BOLB   C3D   47  18.680  20.130  21.500
    2BOLB   C4D   48  18.780  20.150  21.180
    3BOLB   NC1   49  17.250  21.660  17.340
    3BOLB   PO1   50  16.940  22.030  17.310
    3BOLB   GL1   51  16.990  21.980  17.690
    3BOLB   GL2   52  16.780  22.190  17.830
    3BOLB   C1A   53  17.280  22.120  17.910
    3BOLB   C2A   54  17.480  22.470  18.020
    3BOLB   C3A   55  17.590  22.850  18.310
    3BOLB   C4A   56  17.740  23.230  18.210
    3BOLB   C1B   57  16.980  22.560  17.950
    3BOLB   C2B   58  17.050  22.970  18.180
    3BOLB   C3B   59  17.190  23.130  18.600
    3BOLB   C4B   60  17.510  22.900  18.800
    3BOLB   NC2   61  18.000  24.630  20.010
    3BOLB   PO2   62  17.580  24.740  19.870
    3BOLB   GL3   63  17.640  24.350  19.660
    3BOLB   GL4   64  17.730  24.150  19.930
    3BOLB   C1C   65  17.530  24.040  19.340
    3BOLB   C2C   66  17.360  23.980  18.860
    3BOLB   C3C   67  17.440  23.760  18.470
    3BOLB   C4C   68  17.630  23.530  18.170
    3BOLB   C1D   69  17.510  23.780  19.740
    3BOLB   C2D   70  17.640  23.550  19.320
    3BOLB   C3D   71  18.060  23.540  19.060
    3BOLB   C4D   72  18.420  23.820  18.740
    4BOLB   NC1   73  14.170  22.180  12.990
    4BOLB   PO1   74  13.930  22.590  13.060
    4BOLB   GL1   75  13.710  22.900  12.870
    4BOLB   GL2   76  13.870  22.940  12.590
    4BOLB   C1A   77  13.540  23.390  12.890
    4BOLB   C2A   78  13.150  23.380  12.960
    4BOLB   C3A   79  12.700  23.180  13.010
    4BOLB   C4A   80  12.490  23.000  12.700
    4BOLB   C1B   81  13.730  23.300  12.440
    4BOLB   C2B   82  13.430  23.620  12.450
    4BOLB   C3B   83  13.070  23.850  12.700
    4BOLB   C4B   84  12.600  23.700  12.760
    4BOLB   NC2   85  11.330  25.160  11.910
    4BOLB   PO2   86  11.420  24.700  12.000
    4BOLB   GL3   87  11.450  24.350  11.880
    4BOLB   GL4   88  11.180  24.180  11.840
    4BOLB   C1C   89  11.570  23.940  11.950
    4BOLB   C2C   90  11.530  23.580  12.260
    4BOLB   C3C   91  11.760  23.370  12.400
    4BOLB   C4C   92  12.050  23.040  12.570
    4BOLB   C1D   93  11.250  23.600  11.700
    4BOLB   C2D   94  11.410  23.230  11.910
    4BOLB   C3D   95  11.310  22.820  11.960
    4BOLB   C4D   96  10.960  22.720  12.170
    5BOLB   NC1   97  16.710  19.560  18.540
    5BOLB   PO1   98  17.180  19.540  18.710
    5BOLB   GL1   99  17.250  19.690  19.200
    5BOLB   GL2  100  17.000  19.660  19.340
    5BOLB   C1A  101  17.430  19.960  19.520
    5BOLB   C2A  102  17.500  20.260  19.870
    5BOLB   C3A  103  17.240  20.610  20.000
    5BOLB   C4A  104  16.950  20.560  20.360
    5BOLB   C1B  105  16.890  19.740  19.760
    5BOLB   C2B  106  17.190  19.850  19.980
    5BOLB   C3B  107  17.330  20.190  20.330
    5BOLB   C4B  108  17.570  20.450  20.640
    5BOLB   NC2  109  16.940  22.950  21.550
    5BOLB   PO2  110  17.020  22.510  21.640
    5BOLB   GL3  111  16.920  22.210  21.290
    5BOLB   GL4  112  16.600  22.060  21.370
    5BOLB   C1C  113  17.070  21.930  20.940
    5BOLB   C2C  114  17.180  21.500  20.920
    5BOLB   C3C  115  16.940  21.140  20.710
    5BOLB   C4C  116  16.720  20.790  20.570
    5BOLB   C1D  117  16.440  22.080  20.990
    5BOLB   C2D  118  16.120  22.110  20.770
    5BOLB   C3D  119  15.860  22.400  20.530
    5BOLB   C4D  120  15.700  22.410  20.160
    6BOLB   NC1  121  15.050  22.460  13.180
    6BOLB   PO1  122  15.330  22.800  13.250
    6BOLB   GL1  123  15.310  23.300  13.320
    6BOLB   GL2  124  15.490  23.440  13.430
    6BOLB   C1A  125  15.200  23.790  13.340
    6BOLB   C2A  126  15.080  24.030  13.590
    6BOLB   C3A  127  15.190  24.350  13.860
    6BOLB   C4A  128  15.370  24.770  13.740
    6BOLB   C1B  129  15.530  23.890  13.810
    6BOLB   C2B  130  15.740  24.270  13.900
    6BOLB   C3B  131  15.770  24.730  14.090
    6BOLB   C4B  132  15.640  25.090  14.440
    6BOLB   NC2  133  14.890  26.930  13.770
    6BOLB   PO2  134  15.110  27.150  14.110
    6BOLB   GL3  135  15.270  26.680  14.040
    6BOLB   GL4  136  15.540  26.560  13.840
    6BOLB   C1C  137  15.250  26.260  14.300
    6BOLB   C2C  138  15.380  25.840  14.200
    6BOLB   C3C  139  15.480  25.480  14.090
    6BOLB   C4C  140  15.400  25.140  13.880
    6BOLB   C1D  141  15.720  26.140  13.860
    6BOLB   C2D  142  15.880  25.750  14.080
    6BOLB   C3D  143  16.180  25.430  14.260
    6BOLB   C4D  144  16.140  24.950  14.420
    7BOLB   NC1  145  17.170   9.100  24.280
    7BOLB   PO1  146  17.230   8.730  24.250
    7BOLB   GL1  147  17.260   8.740  23.810
    7BOLB   GL2  148  16.940   8.510  23.630
    7BOLB   C1A  149  17.660   8.790  23.520
    7BOLB   C2A  150  17.670   8.980  23.120
    7BOLB   C3A  151  17.450   9.150  22.780
    7BOLB   C4A  152  17.380   9.490  22.430
    7BOLB   C1B  153  16.510   8.510  23.360
    7BOLB   C2B  154  16.280   8.590  23.100
    7BOLB   C3B  155  16.120   8.780  22.750
    7BOLB   C4B  156  15.960   9.090  22.480
    7BOLB   NC2  157  16.940  10.350  19.960
    7BOLB   PO2  158  16.910  10.020  20.170
    7BOLB   GL3  159  16.930  10.160  20.590
    7BOLB   GL4  160  16.710   9.930  20.620
    7BOLB   C1C  161  17.050  10.040  21.000
    7BOLB   C2C  162  17.100   9.870  21.320
    7BOLB   C3C  163  17.210   9.600  21.670
    7BOLB   C4C  164  17.340   9.640  22.010
    7BOLB   C1D  165  16.510   9.780  21.010
    7BOLB   C2D  166  16.200   9.920  21.370
    7BOLB   C3D  167  16.070   9.990  21.790
    7BOLB   C4D  168  16.190  10.080  22.210
    8BOLB   NC1  169   7.550  20.230  14.950
    8BOLB   PO1  170   7.610  20.400  14.550
    8BOLB   GL1  171   7.950  20.280  14.590
    8BOLB   GL2  172   8.170  20.580  14.610
    8BOLB   C1A  173   8.260  19.960  14.720
    8BOLB   C2A  174   8.620  19.740  15.020
    8BOLB   C3A  175   8.850  19.360  15.270
    8BOLB   C4A  176   8.830  18.920  15.270
    8BOLB   C1B  177   8.590  20.500  14.840
    8BOLB   C2B  178   9.090  20.510  14.810
    8BOLB   C3B  179   9.390  20.250  14.760
    8BOLB   C4B  180   9.550  19.910  15.020
    8BOLB   NC2  181   6.900  19.220  17.130
    8BOLB   PO2  182   6.930  18.830  16.890
    8BOLB   GL3  183   7.260  18.750  16.590
    8BOLB   GL4  184   7.280  18.440  16.590
    8BOLB   C1C  185   7.620  18.890  16.410
    8BOLB   C2C  186   7.910  18.650  16.130
    8BOLB   C3C  187   8.300  18.730  15.870
    8BOLB   C4C  188   8.680  18.710  15.520
    8BOLB   C1D  189   7.640  18.360  16.440
    8BOLB   C2D  190   8.020  18.190  16.240
    8BOLB   C3D  191   8.200  18.220  15.860
    8BOLB   C4D  192   8.660  18.320  15.800
    9BOLB   NC1  193  17.020   6.110  17.880
    9BOLB   PO1  194  17.040   5.810  17.610
    9BOLB   GL1  195  16.990   5.500  17.770
    9BOLB   GL2  196  17.110   5.440  18.090
    9BOLB   C1A  197  17.020   5.090  17.760
    9BOLB   C2A  198  16.730   4.710  18.080
    9BOLB   C3A  199  16.580   4.270  18.120
    9BOLB   C4A  200  16.570   3.790  18.070
    9BOLB   C1B  201  16.920   5.160  18.380
    9BOLB   C2B  202  16.700   4.750  18.570
    9BOLB   C3B  203  16.910   4.390  18.550
    9BOLB   C4B  204  16.760   4.010  18.530
    9BOLB   NC2  205  17.320   2.270  18.610
    9BOLB   PO2  206  17.640   2.000  18.530
    9BOLB   GL3  207  17.720   2.440  18.410
    9BOLB   GL4  208  18.090   2.580  18.160
    9BOLB   C1C  209  17.580   2.770  18.200
    9BOLB   C2C  210  17.480   3.040  18.240
    9BOLB   C3C  211  17.260   3.210  18.040
    9BOLB   C4C  212  16.960   3.540  17.930
    9BOLB   C1D  213  17.970   2.990  18.020
    9BOLB   C2D  214  17.810   3.200  17.800
    9BOLB   C3D  215  18.000   3.660  17.720
    9BOLB   C4D  216  18.390   3.820  17.400
   10BOLB   NC1  217  21.420   5.160  15.760
   10BOLB   PO1  218  21.380   5.380  16.170
   10BOLB   GL1  219  21.560   5.080  16.380
   10BOLB   GL2  220  21.870   5.040  16.470
   10BOLB   C1A  221  21.510   4.670  16.350
   10BOLB   C2A  222  21.620   4.230  16.480
   10BOLB   C3A  223  21.460   3.850  16.390
   10BOLB   C4A  224  21.430   3.410  16.320
   10BOLB   C1B  225  21.880   4.600  16.740
   10BOLB   C2B  226  21.940   4.220  17.090
   10BOLB   C3B  227  22.330   3.980  17.100
   10BOLB   C4B  228  22.620   3.990  17.390
   10BOLB   NC2  229  21.780   0.890  16.740
   10BOLB   PO2  230  21.670   1.240  17.050
   10BOLB   GL3  231  21.760   1.640  17.060
   10BOLB   GL4  232  22.060   1.800  17.100
   10BOLB   C1C  233  21.520   2.030  17.000
   10BOLB   C2C  234  21.510   2.460  16.950
   10BOLB   C3C  235  21.610   2.710  16.710
   10BOLB   C4C  236  21.550   3.010  16.400
   10BOLB   C1D  237  22.020   2.160  16.850
   10BOLB   C2D  238  22.050   2.520  16.790
   10BOLB   C3D  239  22.270   2.910  16.780
   10BOLB   C4D  240  22.270   3.370  16.860
   11BOLB   NC1  241  12.560  20.270  15.560
   11BOLB   PO1  242  12.170  19.940  15.520
   11BOLB   GL1  243  11.720  19.870  15.720
   11BOLB   GL2  244  11.410  19.600  15.560
   11BOLB   C1A  245  11.390  19.980  16.030
   11BOLB   C2A  246  11.370  19.990  16.480
   11BOLB   C3A  247  11.080  20.080  16.900
   11BOLB   C4A  248  10.820  20.000  17.290
   11BOLB   C1B  249  11.060  19.700  15.340
   11BOLB   C2B  250  10.740  19.920  15.220
   11BOLB   C3B  251  10.420  20.160  15.060
   11BOLB   C4B  252  10.110  20.310  14.890
   11BOLB   NC2  253   8.820  19.570  19.000
   11BOLB   PO2  254   8.900  19.960  18.740
   11BOLB   GL3  255   9.380  20.030  18.710
   11BOLB   GL4  256   9.490  20.330  18.740
   11BOLB   C1C  257   9.860  19.760  18.630
   11BOLB   C2C  258  10.100  19.600  18.240
   11BOLB   C3C  259  10.460  19.590  17.980
   11BOLB   C4C  260  10.740  19.810  17.610
   11BOLB   C1D  261   9.790  20.300  18.630
   11BOLB   C2D  262  10.130  20.440  18.460
   11BOLB   C3D  263  10.450  20.390  17.970
   11BOLB   C4D  264  10.540  20.280  17.590
   12BOLB   NC1  265  16.770   5.220  15.540
   12BOLB   PO1  266  17.150   5.180  15.610
   12BOLB   GL1  267  17.210   4.810  15.650
   12BOLB   GL2  268  16.990   4.730  15.920
   12BOLB   C1A  269  17.230   4.350  15.650
   12BOLB   C2A  270  17.150   3.920  15.570
   12BOLB   C3A  271  16.730   3.910  15.690
   12BOLB   C4A  272  16.290   3.610  16.030
   12BOLB   C1B  273  16.800   4.390  15.870
   12BOLB   C2B  274  16.450   4.120  16.030
   12BOLB   C3B  275  16.140   4.010  16.400
   12BOLB   C4B  276  15.760   3.970  16.780
   12BOLB   NC2  277  16.190   1.520  17.740
   12BOLB   PO2  278  16.310   1.940  17.590
   12BOLB   GL3  279  16.480   2.320  17.500
   12BOLB   GL4  280  16.690   2.380  17.440
   12BOLB   C1C  281  16.330   2.720  17.370
   12BOLB   C2C  282  16.080   2.990  17.220
   12BOLB   C3C  283  16.250   3.260  16.880
   12BOLB   C4C  284  16.440   3.500  16.460
   12BOLB   C1D  285  16.660   2.270  17.030
   12BOLB   C2D  286  16.890   2.440  16.670
   12BOLB   C3D  287  17.010   2.820  16.550
   12BOLB   C4D  288  16.720   3.130  16.260
   13BOLB   NC1  289  12.920  10.110  10.850
   13BOLB   PO1  290  13.120  10.390  10.610
   13BOLB   GL1  291  12.880  10.260  10.330
   13BOLB   GL2  292  12.820  10.210   9.970
   13BOLB   C1A  293  12.420  10.100  10.210
   13BOLB   C2A  294  12.130   9.720  10.400
   13BOLB   C3A  295  11.740   9.550  10.350
   13BOLB   C4A  296  11.380   9.390  10.370
   13BOLB   C1B  297  12.440  10.090   9.700
   13BOLB   C2B  298  12.100   9.790   9.860
   13BOLB   C3B  299  11.930   9.310   9.980
   13BOLB   C4B  300  11.440   9.120   9.910
   13BOLB   NC2  301   9.300   8.030   8.720
   13BOLB   PO2  302   9.410   8.310   8.970
   13BOLB   GL3  303   9.770   8.370   9.270
   13BOLB   GL4  304   9.650   8.320   9.610
   13BOLB   C1C  305  10.200   8.660   9.310
   13BOLB   C2C  306  10.540   8.770   9.720
   13BOLB   C3C  307  10.820   8.930   9.970
   13BOLB   C4C  308  10.990   9.090  10.280
   13BOLB   C1D  309   9.870   8.220   9.870
   13BOLB   C2D  310  10.280   8.390  10.020
   13BOLB   C3D  311  10.610   8.560  10.270
   13BOLB   C4D  312  10.930   8.630  10.500
   14BOLB   NC1  313  18.560   6.270  23.480
   14BOLB   PO1  314  18.400   5.870  23.150
   14BOLB   GL1  315  18.600   5.760  22.690
   14BOLB   GL2  316  18.920   5.760  22.660
   14BOLB   C1A  317  18.710   6.070  22.280
   14BOLB   C2A  318  18.830   6.140  21.910
   14BOLB   C3A  319  18.800   6.320  21.550
   14BOLB   C4A  320  18.540   6.650  21.430
   14BOLB   C1B  321  18.780   5.450  22.360
   14BOLB   C2B  322  18.780   5.640  21.960
   14BOLB   C3B  323  18.600   5.880  21.470
   14BOLB   C4B  324  18.450   6.030  21.140
   14BOLB   NC2  325  18.840   8.470  19.960
   14BOLB   PO2  326  19.130   8.160  19.840
   14BOLB   GL3  327  19.000   8.070  20.240
   14BOLB   GL4  328  18.620   8.090  20.340
   14BOLB   C1C  329  18.950   7.850  20.650
   14BOLB   C2C  330  18.690   7.570  20.920
   14BOLB   C3C  331  18.360   7.300  20.950
   14BOLB   C4C  332  18.270   6.910  21.130
   14BOLB   C1D  333  18.420   7.930  20.690
   14BOLB   C2D  334  18.250   7.960  21.100
   14BOLB   C3D  335  18.080   7.760  21.330
   14BOLB   C4D  336  18.180   7.730  21.790
   15BOLB   NC1  337  18.160   5.200  17.100
   15BOLB   PO1  338  18.300   5.290  17.470
   15BOLB   GL1  339  18.190   5.150  17.910
   15BOLB   GL2  340  18.390   5.190  18.230
   15BOLB   C1A  341  17.810   4.750  18.030
   15BOLB   C2A  342  17.640   4.450  18.240
   15BOLB   C3A  343  17.590   4.270  18.670
   15BOLB   C4A  344  17.960   4.270  18.920
   15BOLB   C1B  345  18.240   4.780  18.250
   15BOLB   C2B  346  18.100   4.440  18.360
   15BOLB   C3B  347  18.050   4.120  18.420
   15BOLB   C4B  348  17.820   3.750  18.520
   15BOLB   NC2  349  18.170   2.820  20.510
   15BOLB   PO2  350  18.470   2.770  20.330
   15BOLB   GL3  351  18.780   3.130  20.190
   15BOLB   GL4  352  19.140   3.040  20.090
   15BOLB   C1C  353  18.810   3.580  19.980
   15BOLB   C2C  354  18.590   3.890  19.910
   15BOLB   C3C  355  18.480   4.210  19.600
   15BOLB   C4C  356  18.190   4.200  19.260
   15BOLB   C1D  357  19.240   3.430  19.930
   15BOLB   C2D  358  19.530   3.850  20.020
   15BOLB   C3D  359  19.660   4.180  20.040
   15BOLB   C4D  360  19.990   4.590  20.130
   16BOLB   NC1  361  14.230  12.540  19.090
   16BOLB   PO1  362  13.880  12.820  19.000
   16BOLB   GL1  363  13.790  12.620  19.380
   16BOLB   GL2  364  14.110  12.530  19.620
   16BOLB   C1A  365  13.510  12.500  19.660
   16BOLB   C2A  366  13.250  12.210  19.840
   16BOLB   C3A  367  12.790  12.270  19.950
   16BOLB   C4A  368  12.450  12.020  20.150
   16BOLB   C1B  369  13.950  12.670  19.980
   16BOLB   C2B  370  13.540  12.650  20.130
   16BOLB   C3B  371  13.300  12.890  20.420
   16BOLB   C4B  372  13.600  12.860  20.800
   16BOLB   NC2  373  12.360  13.010  22.610
   16BOLB   PO2  374  12.170  12.670  22.370
   16BOLB   GL3  375  12.470  12.490  22.200
   16BOLB   GL4  376  12.490  12.180  22.330
   16BOLB   C1C  377  12.590  12.360  21.760
   16BOLB   C2C  378  12.440  12.120  21.420
   16BOLB   C3C  379  12.360  11.960  20.970
   16BOLB   C4C  380  12.310  12.010  20.600
   16BOLB   C1D  381  12.660  11.930  21.890
   16BOLB   C2D  382  12.770  11.770  21.490
   16BOLB   C3D  383  13.030  11.650  21.140
   16BOLB   C4D  384  13.290  11.860  20.870
   17BOLB   NC1  385  14.980  21.880  16.090
   17BOLB   PO1  386  15.030  22.130  15.650
   17BOLB   GL1  387  14.810  22.500  15.480
   17BOLB   GL2  388  14.610  22.490  15.730
   17BOLB   C1A  389  14.720  22.880  15.310
   17BOLB   C2A  390  14.410  23.230  15.550
   17BOLB   C3A  391  14.100  23.550  15.810
   17BOLB   C4A  392  13.690  23.620  15.970
   17BOLB   C1B  393  14.440  22.750  15.740
   17BOLB   C2B  394  14.180  22.980  15.990
   17BOLB   C3B  395  13.690  23.120  16.040
   17BOLB   C4B  396  13.280  23.300  16.190
   17BOLB   NC2  397  12.430  25.620  17.020
   17BOLB   PO2  398  12.570  25.410  16.630
   17BOLB   GL3  399  12.570  24.920  16.510
   17BOLB   GL4  400  12.450  24.820  16.240
   17BOLB   C1C  401  12.710  24.540  16.560
   17BOLB   C2C  402  12.650  24.320  16.090
   17BOLB   C3C  403  12.900  24.040  15.950
   17BOLB   C4C  404  13.210  23.740  15.960
   17BOLB   C1D  405  12.440  24.860  15.750
   17BOLB   C2D  406  12.510  24.720  15.390
   17BOLB   C3D  407  12.370  24.410  15.130
   17BOLB   C4D  408  11.910  24.310  15.220
   18BOLB   NC1  409  13.010  10.090  17.690
   18BOLB   PO1  410  12.970  10.170  18.100
   18BOLB   GL1  411  12.770   9.810  18.310
   18BOLB   GL2  412  12.920   9.520  18.230
   18BOLB   C1A  413  12.250   9.750  18.500
   18BOLB   C2A  414  11.970   9.630  18.760
   18BOLB   C3A  415  11.760   9.810  19.090
   18BOLB   C4A  416  11.490   9.520  19.420
   18BOLB   C1B  417  12.680   9.450  18.740
   18BOLB   C2B  418  12.380   9.670  19.070
   18BOLB   C3B  419  12.090   9.880  19.480
   18BOLB   C4B  420  11.950   9.710  19.880
   18BOLB   NC2  421  10.630   8.750  21.060
   18BOLB   PO2  422  10.250   8.500  21.130
   18BOLB   GL3  423  10.330   8.590  20.650
   18BOLB   GL4  424  10.280   8.380  20.330
   18BOLB   C1C  425  10.600   8.810  20.420
   18BOLB   C2C  426  10.960   9.080  20.470
   18BOLB   C3C  427  11.110   9.330  20.180
   18BOLB   C4C  428  11.220   9.310  19.700
   18BOLB   C1D  429  10.720   8.350  20.130
   18BOLB   C2D  430  11.150   8.360  19.950
   18BOLB   C3D  431  11.480   8.210  19.710
   18BOLB   C4D  432  11.730   8.220  19.390
   19BOLB   NC1  433  18.760   7.160  19.160
   19BOLB   PO1  434  18.380   7.180  19.210
   19BOLB   GL1  435  18.130   6.980  19.590
   19BOLB   GL2  436  18.230   7.050  19.860
   19BOLB   C1A  437  17.880   6.560  19.570
   19BOLB   C2A  438  17.770   6.110  19.720
   19BOLB   C3A  439  17.500   5.770  19.860
   19BOLB   C4A  440  17.330   5.350  19.850
   19BOLB   C1B  441  18.410   6.840  20.250
   19BOLB   C2B  442  18.620   6.460  20.370
   19BOLB   C3B  443  18.900   6.350  20.740
   19BOLB   C4B  444  18.940   6.630  21.100
   19BOLB   NC2  445  15.920   4.500  21.630
   19BOLB   PO2  446  16.050   4.100  21.450
   19BOLB   GL3  447  16.330   4.290  21.240
   19BOLB   GL4  448  16.210   4.650  21.300
   19BOLB   C1C  449  16.610   4.480  21.050
   19BOLB   C2C  450  16.940   4.690  20.820
   19BOLB   C3C  451  17.130   5.000  20.480
   19BOLB   C4C  452  17.330   5.020  20.060
   19BOLB   C1D  453  16.420   4.920  20.950
   19BOLB   C2D  454  16.650   5.090  20.640
   19BOLB   C3D  455  16.670   5.530  20.530
   19BOLB   C4D  456  16.620   5.910  20.570
   20BOLB   NC1  457  18.050  24.140  12.280
   20BOLB   PO1  458  17.970  24.000  11.890
   20BOLB   GL1  459  17.650  24.280  11.720
   20BOLB   GL2  460  17.280  24.250  11.670
   20BOLB   C1A  461  17.560  24.690  11.830
   20BOLB   C2A  462  17.730  25.090  12.060
   20BOLB   C3A  463  17.570  25.350  12.290
   20BOLB   C4A  464  17.660  25.750  12.470
   20BOLB   C1B  465  16.950  24.630  11.540
   20BOLB   C2B  466  17.080  24.920  11.290
   20BOLB   C3B  467  17.190  25.300  11.210
   20BOLB   C4B  468  16.970  25.680  11.300
   20BOLB   NC2  469  15.750  27.880  13.220
   20BOLB   PO2  470  16.070  27.650  13.040
   20BOLB   GL3  471  16.210  27.180  13.140
   20BOLB   GL4  472  16.180  27.030  13.430
   20BOLB   C1C  473  16.600  26.960  13.020
   20BOLB   C2C  474  16.940  26.650  12.810
   20BOLB   C3C  475  17.240  26.410  12.560
   20BOLB   C4C  476  17.500  26.030  12.590
   20BOLB   C1D  477  16.160  26.670  13.140
   20BOLB   C2D  478  16.380  26.230  13.050
   20BOLB   C3D  479  16.660  25.840  13.030
   20BOLB   C4D  480  17.090  25.710  13.200
   21BOLB   NC1  481   9.940  15.440  15.010
   21BOLB   PO1  482   9.970  15.870  15.310
   21BOLB   GL1  483   9.470  15.880  15.460
   21BOLB   GL2  484   9.350  15.610  15.690
   21BOLB   C1A  485   9.050  15.930  15.310
   21BOLB   C2A  486   8.670  16.010  15.500
   21BOLB   C3A  487   8.440  16.220  15.820
   21BOLB   C4A  488   8.420  16.700  15.970
   21BOLB   C1B  489   9.030  15.840  15.780
   21BOLB   C2B  490   8.620  15.840  16.030
   21BOLB   C3B  491   8.420  15.530  16.340
   21BOLB   C4B  492   8.170  15.540  16.570
   21BOLB   NC2  493   6.420  17.340  16.080
   21BOLB   PO2  494   6.840  17.420  16.260
   21BOLB   GL3  495   7.240  17.610  16.340
   21BOLB   GL4  496   7.360  17.890  16.710
   21BOLB   C1C  497   7.590  17.960  16.160
   21BOLB   C2C  498   7.890  17.740  16.050
   21BOLB   C3C  499   8.140  17.450  16.270
   21BOLB   C4C  500   8.410  17.030  16.310
   21BOLB   C1D  501   7.770  17.840  16.640
   21BOLB   C2D  502   8.200  17.690  16.690
   21BOLB   C3D  503   8.590  17.360  16.790
   21BOLB   C4D  504   8.850  16.990  16.700
   22BOLB   NC1  505  17.800  11.570  24.600
   22BOLB   PO1  506  18.070  11.870  24.890
   22BOLB   GL1  507  18.120  12.010  24.470
   22BOLB   GL2  508  17.900  11.990  24.320
   22BOLB   C1A  509  18.300  12.310  24.030
   22BOLB   C2A  510  18.260  12.500  23.580
   22BOLB   C3A  511  18.210  12.730  23.140
   22BOLB   C4A  512  18.230  12.860  22.780
   22BOLB   C1B  513  18.010  11.930  23.870
   22BOLB   C2B  514  18.270  11.810  23.460
   22BOLB   C3B  515  18.290  11.760  23.100
   22BOLB   C4B  516  18.510  11.620  22.640
   22BOLB   NC2  517  18.300  12.990  19.920
   22BOLB   PO2  518  18.480  12.720  20.300
   22BOLB   GL3  519  18.450  12.830  20.830
   22BOLB   GL4  520  18.720  12.730  20.930
   22BOLB   C1C  521  18.420  13.020  21.240
   22BOLB   C2C  522  18.600  12.930  21.590
   22BOLB   C3C  523  18.440  12.740  21.920
   22BOLB   C4C  524  18.400  12.720  22.400
   22BOLB   C1D  525  18.700  12.540  21.320
   22BOLB   C2D  526  18.650  12.330  21.780
   22BOLB   C3D  527  18.560  12.150  22.190
   22BOLB   C4D  528  18.460  12.260  22.650
   23BOLB   NC1  529  16.370  12.620  24.450
   23BOLB   PO1  530  16.570  12.260  24.350
   23BOLB   GL1  531  16.840  12.240  24.030
   23BOLB   GL2  532  17.070  11.970  23.870
   23BOLB   C1A  533  17.070  12.570  23.880
   23BOLB   C2A  534  16.970  12.870  23.560
   23BOLB   C3A  535  17.050  12.970  23.100
   23BOLB   C4A  536  17.110  13.120  22.740
   23BOLB   C1B  537  17.180  12.300  23.440
   23BOLB   C2B  538  17.270  12.500  22.970
   23BOLB   C3B  539  17.360  12.700  22.570
   23BOLB   C4B  540  17.310  12.870  22.130
   23BOLB   NC2  541  17.080  13.200  20.420
   23BOLB   PO2  542  16.690  13.410  20.530
   23BOLB   GL3  543  16.470  13.430  20.850
   23BOLB   GL4  544  16.790  13.500  21.050
   23BOLB   C1C  545  16.290  13.240  21.240
   23BOLB   C2C  546  16.350  13.150  21.790
   23BOLB   C3C  547  16.640  13.180  22.000
   23BOLB   C4C  548  16.950  13.170  22.270
   23BOLB   C1D  549  16.770  13.410  21.570
   23BOLB   C2D  550  16.660  13.670  21.830
   23BOLB   C3D  551  16.470  13.620  22.140
   23BOLB   C4D  552  16.150  13.730  22.170
   24BOLB   NC1  553  17.420   4.070  21.820
   24BOLB   PO1  554  17.590   3.780  21.420
   24BOLB   GL1  555  17.440   4.190  21.200
   24BOLB   GL2  556  17.100   4.270  21.060
   24BOLB   C1A  557  17.600   4.440  20.960
   24BOLB   C2A  558  17.980   4.760  20.760
   24BOLB   C3A  559  18.400   5.020  20.720
   24BOLB   C4A  560  18.880   5.090  20.810
   24BOLB   C1B  561  17.050   4.130  20.650
   24BOLB   C2B  562  17.080   4.350  20.300
   24BOLB   C3B  563  17.150   4.490  19.920
   24BOLB   C4B  564  17.360   4.730  19.570
   24BOLB   NC2  565  20.750   4.250  22.030
   24BOLB   PO2  566  20.410   3.890  21.880
   24BOLB   GL3  567  20.020   4.050  21.530
   24BOLB   GL4  568  20.000   3.840  21.250
   24BOLB   C1C  569  19.900   4.310  21.280
   24BOLB   C2C  570  19.760   4.600  20.940
   24BOLB   C3C  571  19.600   5.100  20.830
   24BOLB   C4C  572  19.260   5.290  20.880
   24BOLB   C1D  573  20.230   4.050  20.920
   24BOLB   C2D  574  20.270   4.420  20.580
   24BOLB   C3D  575  20.530   4.590  20.360
   24BOLB   C4D  576  20.330   4.990  20.130
   25BOLB   NC1  577  19.570  12.450  20.570
   25BOLB   PO1  578  19.100  12.400  20.710
   25BOLB   GL1  579  19.280  12.470  21.120
   25BOLB   GL2  580  19.240  12.230  21.320
   25BOLB   C1A  581  19.570  12.590  21.520
   25BOLB   C2A  582  19.450  12.620  21.990
   25BOLB   C3A  583  19.390  12.840  22.390
   25BOLB   C4A  584  19.260  13.150  22.690
   25BOLB   C1B  585  19.270  12.220  21.710
   25BOLB   C2B  586  19.190  12.010  22.120
   25BOLB   C3B  587  18.970  11.900  22.480
   25BOLB   C4B  588  19.110  11.540  22.780
   25BOLB   NC2  589  17.850  14.350  24.710
   25BOLB   PO2  590  18.160  14.390  24.390
   25BOLB   GL3  591  18.320  14.060  24.210
   25BOLB   GL4  592  18.130  13.810  24.020
   25BOLB   C1C  593  18.630  13.990  23.880
   25BOLB   C2C  594  18.590  13.950  23.430
   25BOLB   C3C  595  18.870  13.800  23.090
   25BOLB   C4C  596  19.070  13.410  23.000
   25BOLB   C1D  597  18.190  14.020  23.700
   25BOLB   C2D  598  17.950  13.960  23.280
   25BOLB   C3D  599  17.990  13.870  22.790
   25BOLB   C4D  600  17.890  13.640  22.340
   26BOLB   NC1  601  13.370   4.160  20.440
   26BOLB   PO1  602  13.240   4.150  20.050
   26BOLB   GL1  603  13.500   4.380  19.770
   26BOLB   GL2  604  13.820   4.230  19.620
   26BOLB   C1A  605  13.580   4.730  19.590
   26BOLB   C2A  606  13.220   5.070  19.580
   26BOLB   C3A  607  13.090   5.340  19.300
   26BOLB   C4A  608  13.290   5.580  19.000
   26BOLB   C1B  609  13.890   4.370  19.180
   26BOLB   C2B  610  13.760   4.660  18.840
   26BOLB   C3B  611  13.690   5.040  18.710
   26BOLB   C4B  612  13.840   5.270  18.270
   26BOLB   NC2  613  14.210   4.060  20.210
   26BOLB   PO2  614  13.770   3.900  20.140
   26BOLB   GL3  615  13.880   4.370  20.100
   26BOLB   GL4  616  13.930   4.740  20.220
   26BOLB   C1C  617  14.060   4.610  19.700
   26BOLB   C2C  618  13.980   4.880  19.300
   26BOLB   C3C  619  14.010   5.280  19.000
   26BOLB   C4C  620  13.700   5.510  18.980
   26BOLB   C1D  621  14.280   5.050  20.210
   26BOLB   C2D  622  14.300   5.360  20.330
   26BOLB   C3D  623  14.410   5.740  20.280
   26BOLB   C4D  624  14.360   6.040  19.970
   27BOLB   NC1  625  14.400  26.770  10.480
   27BOLB   PO1  626  14.400  26.270  10.160
   27BOLB   GL1  627  14.630  25.870  10.050
   27BOLB   GL2  628  14.370  25.680  10.000
   27BOLB   C1A  629  14.920  25.610  10.150
   27BOLB   C2A  630  14.970  25.160  10.300
   27BOLB   C3A  631  15.030  24.980  10.670
   27BOLB   C4A  632  15.420  24.860  10.850
   27BOLB   C1B  633  14.470  25.500  10.430
   27BOLB   C2B  634  14.370  25.670  10.870
   27BOLB   C3B  635  14.600  25.660  11.210
   27BOLB   C4B  636  14.830  25.460  11.450
   27BOLB   NC2  637  15.900  26.810  11.120
   27BOLB   PO2  638  15.500  26.920  11.420
   27BOLB   GL3  639  15.610  26.530  11.590
   27BOLB   GL4  640  16.010  26.520  11.610
   27BOLB   C1C  641  15.630  26.050  11.730
   27BOLB   C2C  642  15.580  25.640  11.870
   27BOLB   C3C  643  15.570  25.310  11.450
   27BOLB   C4C  644  15.650  25.040  11.140
   27BOLB   C1D  645  16.340  26.170  11.410
   27BOLB   C2D  646  16.530  25.830  11.430
   27BOLB   C3D  647  16.630  25.590  11.740
   27BOLB   C4D  648  16.830  25.250  11.660
   28BOLB   NC1  649  22.200  11.340  24.450
   28BOLB   PO1  650  22.090  11.830  24.570
   28BOLB   GL1  651  22.310  11.770  24.130
   28BOLB   GL2  652  22.460  11.540  24.040
   28BOLB   C1A  653  22.230  11.890  23.760
   28BOLB   C2A  654  21.890  11.660  23.580
   28BOLB   C3A  655  21.730  11.440  23.200
   28BOLB   C4A  656  21.910  11.630  22.870
   28BOLB   C1B  657  22.380  11.420  23.550
   28BOLB   C2B  658  22.330  11.560  23.170
   28BOLB   C3B  659  22.430  11.870  22.840
   28BOLB   C4B  660  22.310  12.210  22.640
   28BOLB   NC2  661  22.850  13.190  24.820
   28BOLB   PO2  662  22.410  13.060  24.620
   28BOLB   GL3  663  22.390  12.920  24.140
   28BOLB   GL4  664  22.550  13.110  23.780
   28BOLB   C1C  665  22.300  12.700  23.830
   28BOLB   C2C  666  22.310  12.330  23.460
   28BOLB   C3C  667  22.180  12.150  23.160
   28BOLB   C4C  668  21.880  12.060  22.750
   28BOLB   C1D  669  22.650  13.400  23.440
   28BOLB   C2D  670  22.780  13.700  23.180
   28BOLB   C3D  671  23.020  13.890  22.940
   28BOLB   C4D  672  23.150  13.980  22.590
   29BOLB   NC1  673  17.490  23.520  14.900
   29BOLB   PO1  674  17.400  23.260  15.340
   29BOLB   GL1  675  17.250  23.460  15.770
   29BOLB   GL2  676  16.880  23.370  15.640
   29BOLB   C1A  677  17.090  23.850  15.820
   29BOLB   C2A  678  16.720  23.960  15.820
   29BOLB   C3A  679  16.560  24.310  15.670
   29BOLB   C4A  680  16.410  24.480  15.950
   29BOLB   C1B  681  16.390  23.610  15.680
   29BOLB   C2B  682  16.240  24.030  16.080
   29BOLB   C3B  683  16.050  24.410  16.350
   29BOLB   C4B  684  15.780  24.600  16.730
   29BOLB   NC2  685  15.630  25.990  17.690
   29BOLB   PO2  686  15.330  25.790  17.430
   29BOLB   GL3  687  15.480  25.600  17.160
   29BOLB   GL4  688  15.230  25.620  16.910
   29BOLB   C1C  689  15.830  25.320  17.120
   29BOLB   C2C  690  15.990  25.100  16.810
   29BOLB   C3C  691  16.140  25.020  16.460
   29BOLB   C4C  692  16.450  24.810  16.250
   29BOLB   C1D  693  15.390  25.350  16.640
   29BOLB   C2D  694  15.620  25.150  16.450
   29BOLB   C3D  695  15.760  24.810  16.130
   29BOLB   C4D  696  15.650  24.630  15.640
   30BOLB   NC1  697  18.990  20.250  18.910
   30BOLB   PO1  698  18.510  20.160  18.750
   30BOLB   GL1  699  18.520  20.360  19.080
   30BOLB   GL2  700  18.240  20.510  19.210
   30BOLB   C1A  701  18.680  20.650  19.380
   30BOLB   C2A  702  18.420  20.710  19.670
   30BOLB   C3A  703  18.100  20.980  19.910
   30BOLB   C4A  704  17.930  21.330  19.910
   30BOLB   C1B  705  18.030  20.850  19.300
   30BOLB   C2B  706  17.690  20.870  19.660
   30BOLB   C3B  707  17.640  20.930  20.030
   30BOLB   C4B  708  17.930  20.990  20.380
   30BOLB   NC2  709  17.770  23.110  21.980
   30BOLB   PO2  710  17.940  22.900  21.670
   30BOLB   GL3  711  17.730  22.780  21.310
   30BOLB   GL4  712  17.450  22.670  21.300
   30BOLB   C1C  713  17.770  22.800  20.920
   30BOLB   C2C  714  17.780  22.540  20.680
   30BOLB   C3C  715  17.550  22.170  20.380
   30BOLB   C4C  716  17.700  21.790  20.030
   30BOLB   C1D  717  17.650  22.330  21.070
   30BOLB   C2D  718  17.670  22.000  20.830
   30BOLB   C3D  719  17.650  21.700  20.610
   30BOLB   C4D  720  17.740  21.390  20.390
   31BOLB   NC1  721  21.180   9.330  20.580
   31BOLB   PO1  722  21.480   8.970  20.350
   31BOLB   GL1  723  21.380   8.820  20.720
   31BOLB   GL2  724  21.610   8.620  20.750
   31BOLB   C1A  725  21.270   8.860  21.240
   31BOLB   C2A  726  21.270   9.110  21.640
   31BOLB   C3A  727  21.290   8.980  22.090
   31BOLB   C4A  728  21.230   8.790  22.490
   31BOLB   C1B  729  21.770   8.630  21.110
   31BOLB   C2B  730  22.110   8.460  21.290
   31BOLB   C3B  731  22.410   8.040  21.250
   31BOLB   C4B  732  22.730   7.810  21.320
   31BOLB   NC2  733  22.070   7.500  24.150
   31BOLB   PO2  734  21.750   7.470  23.900
   31BOLB   GL3  735  21.610   7.450  23.460
   31BOLB   GL4  736  21.760   7.210  23.160
   31BOLB   C1C  737  21.160   7.430  23.330
   31BOLB   C2C  738  20.910   7.770  23.280
   31BOLB   C3C  739  20.910   8.210  23.150
   31BOLB   C4C  740  21.030   8.450  22.730
   31BOLB   C1D  741  21.660   7.260  22.670
   31BOLB   C2D  742  21.290   7.170  22.400
   31BOLB   C3D  743  20.850   7.200  22.270
   31BOLB   C4D  744  20.600   6.830  22.110
   32BOLB   NC1  745  22.320   2.510  19.880
   32BOLB   PO1  746  22.480   2.570  19.540
   32BOLB   GL1  747  22.530   2.960  19.560
   32BOLB   GL2  748  22.610   3.310  19.670
   32BOLB   C1A  749  22.530   3.250  19.170
   32BOLB   C2A  750  22.460   3.760  19.270
   32BOLB   C3A  751  22.530   4.240  19.150
   32BOLB   C4A  752  22.820   4.340  18.830
   32BOLB   C1B  753  22.080   3.140  19.640
   32BOLB   C2B  754  21.640   3.170  19.420
   32BOLB   C3B  755  21.320   3.080  19.660
   32BOLB   C4B  756  20.940   2.810  19.600
   32BOLB   NC2  757  24.930   2.730  18.560
   32BOLB   PO2  758  24.720   2.790  18.920
   32BOLB   GL3  759  24.510   3.170  18.890
   32BOLB   GL4  760  24.650   3.450  18.800
   32BOLB   C1C  761  24.140   3.510  18.760
   32BOLB   C2C  762  23.940   3.760  18.960
   32BOLB   C3C  763  23.610   4.070  18.760
   32BOLB   C4C  764  23.270   4.320  18.750
   32BOLB   C1D  765  24.450   3.390  18.330
   32BOLB   C2D  766  24.690   3.460  17.880
   32BOLB   C3D  767  25.030   3.500  17.630
   32BOLB   C4D  768  25.130   3.420  17.250
   33BOLB   NC1  769  30.540   7.300  17.500
   33BOLB   PO1  770  30.610   6.850  17.450
   33BOLB   GL1  771  30.170   7.030  17.380
   33BOLB   GL2  772  29.870   7.040  17.120
   33BOLB   C1A  773  29.690   7.190  17.600
   33BOLB   C2A  774  29.340   7.280  17.600
   33BOLB   C3A  775  28.930   7.150  17.620
   33BOLB   C4A  776  28.470   7.260  17.730
   33BOLB   C1B  777  29.650   7.400  16.880
   33BOLB   C2B  778  29.220   7.580  16.720
   33BOLB   C3B  779  29.070   7.970  16.580
   33BOLB   C4B  780  29.420   8.230  16.550
   33BOLB   NC2  781  28.910   6.010  19.020
   33BOLB   PO2  782  28.820   6.280  19.320
   33BOLB   GL3  783  28.770   6.620  19.170
   33BOLB   GL4  784  29.110   6.620  19.010
   33BOLB   C1C  785  28.540   6.920  19.010
   33BOLB   C2C  786  28.300   7.360  18.950
   33BOLB   C3C  787  28.200   7.370  18.540
   33BOLB   C4C  788  28.160   7.250  18.080
   33BOLB   C1D  789  28.860   6.600  18.580
   33BOLB   C2D  790  28.450   6.640  18.300
   33BOLB   C3D  791  28.200   6.740  17.970
   33BOLB   C4D  792  27.830   7.000  17.760
   34BOLB   NC1  793  11.390  10.920  14.400
   34BOLB   PO1  794  11.420  10.450  14.230
   34BOLB   GL1  795  11.120  10.140  14.050
   34BOLB   GL2  796  11.090  10.240  13.800
   34BOLB   C1A  797  10.800   9.810  14.040
   34BOLB   C2A  798  10.520   9.500  13.830
   34BOLB   C3A  799  10.040   9.560  13.850
   34BOLB   C4A  800   9.960   9.320  13.430
   34BOLB   C1B  801  10.700  10.120  13.640
   34BOLB   C2B  802  10.310  10.030  13.790
   34BOLB   C3B  803   9.920  10.050  14.030
   34BOLB   C4B  804   9.640   9.780  14.030
   34BOLB   NC2  805   8.090   7.900  12.430
   34BOLB   PO2  806   7.960   8.400  12.710
   34BOLB   GL3  807   8.370   8.520  12.640
   34BOLB   GL4  808   8.420   8.720  12.250
   34BOLB   C1C  809   8.650   8.770  12.720
   34BOLB   C2C  810   8.920   9.120  12.950
   34BOLB   C3C  811   9.350   9.150  12.930
   34BOLB   C4C  812   9.760   9.100  13.090
   34BOLB   C1D  813   8.810   8.580  12.130
   34BOLB   C2D  814   9.110   8.680  12.430
   34BOLB   C3D  815   9.460   8.900  12.390
   34BOLB   C4D  816   9.660   9.260  12.560
   35BOLB   NC1  817  18.620  22.570  15.250
   35BOLB   PO1  818  18.630  22.950  15.380
   35BOLB   GL1  819  18.630  23.300  15.440
   35BOLB   GL2  820  18.400  23.460  15.230
   35BOLB   C1A  821  18.650  23.640  15.670
   35BOLB   C2A  822  18.830  23.830  16.050
   35BOLB   C3A  823  19.050  24.260  16.340
   35BOLB   C4A  824  19.380  24.520  16.510
   35BOLB   C1B  825  18.460  23.970  15.270
   35BOLB   C2B  826  18.410  24.350  15.320
   35BOLB   C3B  827  18.520  24.720  15.460
   35BOLB   C4B  828  18.750  24.900  15.690
   35BOLB   NC2  829  20.060  26.530  18.100
   35BOLB   PO2  830  19.950  26.130  18.320
   35BOLB   GL3  831  19.730  25.720  18.040
   35BOLB   GL4  832  19.380  25.770  18.100
   35BOLB   C1C  833  19.840  25.390  17.740
   35BOLB   C2C  834  20.080  25.190  17.340
   35BOLB   C3C  835  19.800  25.160  16.920
   35BOLB   C4C  836  19.520  24.970  16.660
   35BOLB   C1D  837  19.280  25.370  18.130
   35BOLB   C2D  838  19.190  24.920  18.130
   35BOLB   C3D  839  19.060  24.570  17.950
   35BOLB   C4D  840  19.430  24.520  17.730
   36BOLB   NC1  841  18.760  13.160  20.600
   36BOLB   PO1  842  18.310  13.210  20.380
   36BOLB   GL1  843  18.230  13.260  20.760
   36BOLB   GL2  844  17.870  13.200  20.820
   36BOLB   C1A  845  18.150  13.400  21.220
   36BOLB   C2A  846  18.160  13.180  21.690
   36BOLB   C3A  847  18.140  13.150  22.070
   36BOLB   C4A  848  18.110  13.140  22.460
   36BOLB   C1B  849  17.880  12.930  21.210
   36BOLB   C2B  850  17.680  12.970  21.660
   36BOLB   C3B  851  17.620  13.250  22.020
   36BOLB   C4B  852  17.530  13.130  22.480
   36BOLB   NC2  853  17.760  12.320  24.710
   36BOLB   PO2  854  17.490  12.120  24.520
   36BOLB   GL3  855  17.540  12.310  24.070
   36BOLB   GL4  856  17.570  12.080  23.830
   36BOLB   C1C  857  17.800  12.560  23.790
   36BOLB   C2C  858  17.990  12.930  23.650
   36BOLB   C3C  859  18.030  13.230  23.330
   36BOLB   C4C  860  18.050  13.300  22.900
   36BOLB   C1D  861  17.510  11.880  23.520
   36BOLB   C2D  862  17.400  11.990  23.060
   36BOLB   C3D  863  17.550  12.180  22.770
   36BOLB   C4D  864  17.940  12.340  22.720
   37BOLB   NC1  865  30.710  20.960  14.370
   37BOLB   PO1  866  30.320  20.890  14.580
   37BOLB   GL1  867  30.030  20.650  14.210
   37BOLB   GL2  868  29.750  20.870  14.300
   37BOLB   C1A  869  29.790  20.450  13.970
   37BOLB   C2A  870  29.630  20.090  13.760
   37BOLB   C3A  871  29.350  20.000  13.350
   37BOLB   C4A  872  29.230  19.730  12.960
   37BOLB   C1B  873  29.270  20.720  14.320
   37BOLB   C2B  874  29.050  20.980  14.540
   37BOLB   C3B  875  28.680  20.910  14.690
   37BOLB   C4B  876  28.380  20.610  14.590
   37BOLB   NC2  877  30.530  21.650  12.820
   37BOLB   PO2  878  30.600  21.240  12.640
   37BOLB   GL3  879  30.190  20.930  12.610
   37BOLB   GL4  880  30.020  21.040  12.310
   37BOLB   C1C  881  30.050  20.540  12.650
   37BOLB   C2C  882  29.680  20.390  12.430
   37BOLB   C3C  883  29.290  20.180  12.430
   37BOLB   C4C  884  29.130  19.720  12.500
   37BOLB   C1D  885  29.880  20.700  12.120
   37BOLB   C2D  886  29.640  20.690  11.720
   37BOLB   C3D  887  29.370  20.970  11.460
   37BOLB   C4D  888  29.170  21.220  11.080
   38BOLB   NC1  889  12.440  18.830  17.020
   38BOLB   PO1  890  12.240  18.900  16.700
   38BOLB   GL1  891  11.950  19.020  17.090
   38BOLB   GL2  892  11.630  19.200  17.040
   38BOLB   C1A  893  11.730  19.160  17.520
   38BOLB   C2A  894  11.360  19.190  17.760
   38BOLB   C3A  895  11.060  19.100  18.150
   38BOLB   C4A  896  10.970  19.140  18.590
   38BOLB   C1B  897  11.420  19.560  17.410
   38BOLB   C2B  898  11.450  19.750  17.820
   38BOLB   C3B  899  11.390  19.990  18.100
   38BOLB   C4B  900  11.290  20.400  18.330
   38BOLB   NC2  901  11.350  20.190  20.860
   38BOLB   PO2  902  10.980  20.430  20.690
   38BOLB   GL3  903  11.110  20.180  20.300
   38BOLB   GL4  904  10.850  19.950  20.140
   38BOLB   C1C  905  11.290  20.050  19.970
   38BOLB   C2C  906  11.510  19.880  19.540
   38BOLB   C3C  907  11.270  19.760  19.140
   38BOLB   C4C  908  11.250  19.340  18.880
   38BOLB   C1D  909  10.910  19.500  19.950
   38BOLB   C2D  910  11.140  19.140  19.850
   38BOLB   C3D  911  11.520  18.940  20.020
   38BOLB   C4D  912  11.740  18.700  20.350
   39BOLB   NC1  913  13.680  19.090   8.900
   39BOLB   PO1  914  13.350  18.980   9.100
   39BOLB   GL1  915  13.270  18.950   8.620
   39BOLB   GL2  916  13.240  19.270   8.550
   39BOLB   C1A  917  12.980  19.020   8.190
   39BOLB   C2A  918  12.880  19.130   7.840
   39BOLB   C3A  919  12.580  19.450   7.620
   39BOLB   C4A  920  12.390  19.800   7.690
   39BOLB   C1B  921  13.240  19.450   8.200
   39BOLB   C2B  922  13.210  19.940   8.180
   39BOLB   C3B  923  12.980  20.310   8.100
   39BOLB   C4B  924  12.770  20.530   8.390
   39BOLB   NC2  925  11.890  21.860   6.210
   39BOLB   PO2  926  11.600  21.470   6.190
   39BOLB   GL3  927  11.750  21.310   6.550
   39BOLB   GL4  928  11.660  21.230   6.850
   39BOLB   C1C  929  12.100  21.090   6.780
   39BOLB   C2C  930  12.340  20.860   7.070
   39BOLB   C3C  931  12.460  20.500   7.250
   39BOLB   C4C  932  12.490  20.140   7.510
   39BOLB   C1D  933  11.870  21.010   7.250
   39BOLB   C2D  934  12.080  20.690   7.510
   39BOLB   C3D  935  12.300  20.430   7.890
   39BOLB   C4D  936  12.500  20.110   8.150
   40BOLB   NC1  937  22.320  22.340  14.920
   40BOLB   PO1  938  22.010  22.370  14.640
   40BOLB   GL1  939  22.110  22.780  15.000
   40BOLB   GL2  940  21.880  22.990  15.090
   40BOLB   C1A  941  22.380  23.250  15.010
   40BOLB   C2A  942  22.560  23.620  15.150
   40BOLB   C3A  943  22.810  24.020  15.160
   40BOLB   C4A  944  23.080  24.340  15.370
   40BOLB   C1B  945  21.910  23.460  14.960
   40BOLB   C2B  946  21.700  23.780  15.130
   40BOLB   C3B  947  21.860  24.200  15.220
   40BOLB   C4B  948  22.130  24.310  15.520
   40BOLB   NC2  949  22.850  27.020  15.710
   40BOLB   PO2  950  23.180  26.710  15.600
   40BOLB   GL3  951  23.470  26.270  15.480
   40BOLB   GL4  952  23.200  26.130  15.750
   40BOLB   C1C  953  23.480  25.970  15.250
   40BOLB   C2C  954  23.570  25.470  15.210
   40BOLB   C3C  955  23.310  25.200  15.450
   40BOLB   C4C  956  23.070  24.760  15.550
   40BOLB   C1D  957  22.800  25.830  15.720
   40BOLB   C2D  958  22.410  25.610  15.500
   40BOLB   C3D  959  22.040  25.200  15.430
   40BOLB   C4D  960  21.630  25.060  15.200
   41BOLB   NC1  961  11.810  20.280  13.280
   41BOLB   PO1  962  12.060  20.240  12.890
   41BOLB   GL1  963  12.020  20.490  12.580
   41BOLB   GL2  964  12.090  20.910  12.590
   41BOLB   C1A  965  11.900  20.720  12.130
   41BOLB   C2A  966  11.690  20.880  11.850
   41BOLB   C3A  967  11.200  21.040  11.760
   41BOLB   C4A  968  10.840  21.090  11.430
   41BOLB   C1B  969  11.700  21.110  12.610
   41BOLB   C2B  970  11.440  21.290  12.190
   41BOLB   C3B  971  11.270  21.610  12.050
   41BOLB   C4B  972  11.020  21.830  11.880
   41BOLB   NC2  973   8.340  21.660  11.160
   41BOLB   PO2  974   8.730  21.800  11.220
   41BOLB   GL3  975   9.140  21.520  11.180
   41BOLB   GL4  976   9.090  21.220  10.920
   41BOLB   C1C  977   9.620  21.670  11.160
   41BOLB   C2C  978   9.990  21.600  11.070
   41BOLB   C3C  979  10.410  21.300  10.830
   41BOLB   C4C  980  10.770  21.370  11.040
   41BOLB   C1D  981   9.620  21.180  10.750
   41BOLB   C2D  982   9.970  21.310  10.580
   41BOLB   C3D  983  10.410  21.390  10.360
   41BOLB   C4D  984  10.810  21.470  10.510
   42BOLB   NC1  985  11.160  12.750  11.810
   42BOLB   PO1  986  11.390  12.390  11.990
   42BOLB   GL1  987  11.130  12.130  11.810
   42BOLB   GL2  988  10.980  12.350  11.480
   42BOLB   C1A  989  10.770  11.940  11.660
   42BOLB   C2A  990  10.450  11.580  11.770
   42BOLB   C3A  991  10.200  11.360  11.550
   42BOLB   C4A  992   9.920  11.070  11.450
   42BOLB   C1B  993  10.890  12.140  11.160
   42BOLB   C2B  994  10.680  11.870  10.890
   42BOLB   C3B  995  10.210  11.640  10.860
   42BOLB   C4B  996  10.000  11.410  10.510
   42BOLB   NC2  997   7.910   9.710  10.300
   42BOLB   PO2  998   7.850  10.120  10.580
   42BOLB   GL3  999   8.150  10.200  10.870
   42BOLB   GL4 1000   8.250  10.560  11.120
   42BOLB   C1C 1001   8.550  10.150  10.880
   42BOLB   C2C 1002   8.970  10.160  10.920
   42BOLB   C3C 1003   9.460  10.310  11.000
   42BOLB   C4C 1004   9.660  10.650  11.190
   42BOLB   C1D 1005   8.670  10.660  11.100
   42BOLB   C2D 1006   8.900  10.980  11.090
   42BOLB   C3D 1007   9.400  10.980  10.990
   42BOLB   C4D 1008   9.840  11.220  10.980
   43BOLB   NC1 1009  14.280  26.770  15.290
   43BOLB   PO1 1010  14.720  26.570  15.290
   43BOLB   GL1 1011  14.680  26.190  15.040
   43BOLB   GL2 1012  14.820  26.020  15.300
   43BOLB   C1A 1013  15.010  26.040  14.830
   43BOLB   C2A 1014  15.430  25.680  14.770
   43BOLB   C3A 1015  15.770  25.590  14.610
   43BOLB   C4A 1016  16.180  25.800  14.720
   43BOLB   C1B 1017  15.060  25.710  15.150
   43BOLB   C2B 1018  15.150  25.300  14.870
   43BOLB   C3B 1019  15.220  24.790  14.750
   43BOLB   C4B 1020  15.010  24.410  14.750
   43BOLB   NC2 1021  15.580  27.020  14.200
   43BOLB   PO2 1022  15.950  27.190  14.440
   43BOLB   GL3 1023  16.130  26.880  14.660
   43BOLB   GL4 1024  15.900  26.590  14.810
   43BOLB   C1C 1025  16.480  26.940  14.910
   43BOLB   C2C 1026  16.570  26.640  15.080
   43BOLB   C3C 1027  16.600  26.180  15.000
   43BOLB   C4C 1028  16.290  26.050  14.980
   43BOLB   C1D 1029  16.080  26.640  15.230
   43BOLB   C2D 1030  16.430  26.480  15.540
   43BOLB   C3D 1031  16.710  26.640  15.840
   43BOLB   C4D 1032  17.020  26.560  16.200
   44BOLB   NC1 1033  11.880  19.230  16.530
   44BOLB   PO1 1034  12.120  19.410  16.880
   44BOLB   GL1 1035  12.280  19.360  17.330
   44BOLB   GL2 1036  11.930  19.510  17.300
   44BOLB   C1A 1037  12.170  19.450  17.730
   44BOLB   C2A 1038  11.920  19.320  18.090
   44BOLB   C3A 1039  11.460  19.360  18.360
   44BOLB   C4A 1040  11.230  19.750  18.540
   44BOLB   C1B 1041  11.910  19.860  17.550
   44BOLB   C2B 1042  11.900  20.200  17.820
   44BOLB   C3B 1043  11.780  20.350  18.190
   44BOLB   C4B 1044  11.650  20.060  18.560
   44BOLB   NC2 1045  10.050  19.850  20.050
   44BOLB   PO2 1046  10.230  19.400  20.310
   44BOLB   GL3 1047  10.410  19.420  19.950
   44BOLB   GL4 1048  10.430  19.120  19.900
   44BOLB   C1C 1049  10.570  19.620  19.610
   44BOLB   C2C 1050  10.580  19.850  19.290
   44BOLB   C3C 1051  10.790  20.100  18.990
   44BOLB   C4C 1052  11.170  20.110  18.730
   44BOLB   C1D 1053  10.710  19.090  19.590
   44BOLB   C2D 1054  10.900  18.680  19.650
   44BOLB   C3D 1055  11.180  18.480  19.430
   44BOLB   C4D 1056  11.580  18.200  19.380
   45BOLB   NC1 1057  16.120  11.940  19.850
   45BOLB   PO1 1058  15.850  12.280  19.560
   45BOLB   GL1 1059  15.640  12.260  19.960
   45BOLB   GL2 1060  15.800  12.340  20.210
   45BOLB   C1A 1061  15.300  12.310  20.200
   45BOLB   C2A 1062  15.090  12.530  20.560
   45BOLB   C3A 1063  14.850  12.430  20.970
   45BOLB   C4A 1064  14.640  12.440  21.340
   45BOLB   C1B 1065  15.580  12.070  20.580
   45BOLB   C2B 1066  15.200  12.080  20.800
   45BOLB   C3B 1067  15.080  12.170  21.330
   45BOLB   C4B 1068  14.990  12.390  21.770
   45BOLB   NC2 1069  13.960  11.090  23.510
   45BOLB   PO2 1070  14.200  11.490  23.540
   45BOLB   GL3 1071  14.280  11.400  23.170
   45BOLB   GL4 1072  14.610  11.360  23.130
   45BOLB   C1C 1073  14.100  11.660  22.900
   45BOLB   C2C 1074  14.150  11.910  22.560
   45BOLB   C3C 1075  14.370  12.110  22.190
   45BOLB   C4C 1076  14.500  12.190  21.710
   45BOLB   C1D 1077  14.560  11.460  22.750
   45BOLB   C2D 1078  14.710  11.260  22.410
   45BOLB   C3D 1079  15.080  10.890  22.160
   45BOLB   C4D 1080  15.430  10.890  22.220
   46BOLB   NC1 1081  11.240  18.620  15.550
   46BOLB   PO1 1082  11.120  18.980  15.720
   46BOLB   GL1 1083  10.930  19.290  15.620
   46BOLB   GL2 1084  11.020  19.450  15.860
   46BOLB   C1A 1085  10.530  19.410  15.860
   46BOLB   C2A 1086  10.410  19.720  16.090
   46BOLB   C3A 1087  10.320  19.900  16.350
   46BOLB   C4A 1088  10.480  20.250  16.600
   46BOLB   C1B 1089  10.920  19.780  16.080
   46BOLB   C2B 1090  10.880  20.160  16.370
   46BOLB   C3B 1091  10.760  20.500  16.270
   46BOLB   C4B 1092  10.660  20.690  15.870
   46BOLB   NC2 1093   9.140  22.220  16.760
   46BOLB   PO2 1094   9.020  22.070  17.140
   46BOLB   GL3 1095   9.220  21.690  16.890
   46BOLB   GL4 1096   9.020  21.500  16.760
   46BOLB   C1C 1097   9.550  21.390  17.040
   46BOLB   C2C 1098   9.920  21.160  17.060
   46BOLB   C3C 1099  10.100  20.940  16.850
   46BOLB   C4C 1100  10.370  20.760  16.600
   46BOLB   C1D 1101   9.390  21.470  16.530
   46BOLB   C2D 1102   9.750  21.170  16.560
   46BOLB   C3D 1103  10.050  20.880  16.250
   46BOLB   C4D 1104  10.060  20.710  15.820
   47BOLB   NC1 1105   7.220  11.030  17.690
   47BOLB   PO1 1106   7.580  11.180  17.820
   47BOLB   GL1 1107   7.940  11.400  17.700
   47BOLB   GL2 1108   8.100  11.320  17.850
   47BOLB   C1A 1109   8.060  11.720  17.440
   47BOLB   C2A 1110   8.390  12.110  17.250
   47BOLB   C3A 1111   8.800  12.320  17.370
   47BOLB   C4A 1112   9.070  12.620  17.500
   47BOLB   C1B 1113   8.430  11.370  17.650
   47BOLB   C2B 1114   8.660  11.550  17.320
   47BOLB   C3B 1115   8.980  11.880  17.180
   47BOLB   C4B 1116   9.380  12.190  17.240
   47BOLB   NC2 1117  11.310  13.240  16.860
   47BOLB   PO2 1118  11.350  13.650  16.740
   47BOLB   GL3 1119  10.860  13.550  16.770
   47BOLB   GL4 1120  10.670  13.580  16.960
   47BOLB   C1C 1121  10.590  13.080  16.980
   47BOLB   C2C 1122  10.230  12.790  17.050
   47BOLB   C3C 1123   9.860  12.780  17.420
   47BOLB   C4C 1124   9.440  12.840  17.400
   47BOLB   C1D 1125  10.360  13.430  17.290
   47BOLB   C2D 1126  10.050  13.270  17.650
   47BOLB   C3D 1127   9.780  12.860  17.900
   47BOLB   C4D 1128   9.620  12.500  18.130
   48BOLB   NC1 1129  15.350  22.930  13.730
   48BOLB   PO1 1130  14.860  22.760  13.570
   48BOLB   GL1 1131  14.680  23.120  13.590
   48BOLB   GL2 1132  14.980  23.300  13.700
   48BOLB   C1A 1133  14.400  23.360  13.580
   48BOLB   C2A 1134  14.140  23.550  13.950
   48BOLB   C3A 1135  13.990  23.880  14.180
   48BOLB   C4A 1136  14.200  24.230  14.220
   48BOLB   C1B 1137  14.700  23.540  14.000
   48BOLB   C2B 1138  14.490  23.750  14.250
   48BOLB   C3B 1139  14.640  24.100  14.520
   48BOLB   C4B 1140  14.800  24.490  14.300
   48BOLB   NC2 1141  13.560  26.790  14.000
   48BOLB   PO2 1142  13.750  26.790  14.450
   48BOLB   GL3 1143  14.050  26.380  14.360
   48BOLB   GL4 1144  14.470  26.260  14.440
   48BOLB   C1C 1145  14.130  25.860  14.310
   48BOLB   C2C 1146  14.430  25.480  14.170
   48BOLB   C3C 1147  14.320  25.080  13.840
   48BOLB   C4C 1148  14.280  24.580  13.990
   48BOLB   C1D 1149  14.580  26.020  14.020
   48BOLB   C2D 1150  14.860  25.680  14.040
   48BOLB   C3D 1151  14.900  25.250  13.860
   48BOLB   C4D 1152  14.810  24.850  13.880
   49BOLB   NC1 1153  21.420  22.810  14.300
   49BOLB   PO1 1154  21.480  23.250  14.040
   49BOLB   GL1 1155  21.470  23.770  14.110
   49BOLB   GL2 1156  21.140  23.790  14.370
   49BOLB   C1A 1157  21.630  24.120  14.380
   49BOLB   C2A 1158  21.520  24.470  14.670
   49BOLB   C3A 1159  21.590  24.600  15.090
   49BOLB   C4A 1160  21.880  24.700  15.440
   49BOLB   C1B 1161  21.110  24.220  14.330
   49BOLB   C2B 1162  21.260  24.630  14.280
   49BOLB   C3B 1163  21.400  25.030  14.290
   49BOLB   C4B 1164  21.340  25.470  14.360
   49BOLB   NC2 1165  23.090  26.530  16.650
   49BOLB   PO2 1166  22.670  26.470  16.590
   49BOLB   GL3 1167  22.470  26.150  16.360
   49BOLB   GL4 1168  22.290  26.390  16.080
   49BOLB   C1C 1169  22.300  25.770  16.340
   49BOLB   C2C 1170  22.510  25.540  16.090
   49BOLB   C3C 1171  22.430  25.130  15.950
   49BOLB   C4C 1172  22.210  24.780  15.720
   49BOLB   C1D 1173  22.120  26.430  15.740
   49BOLB   C2D 1174  21.700  26.440  15.540
   49BOLB   C3D 1175  21.600  26.290  15.100
   49BOLB   C4D 1176  21.580  26.400  14.620
   50BOLB   NC1 1177  18.300  22.940   9.850
   50BOLB   PO1 1178  17.900  22.690   9.670
   50BOLB   GL1 1179  17.830  23.060   9.490
   50BOLB   GL2 1180  17.570  23.160   9.780
   50BOLB   C1A 1181  17.690  23.190   9.170
   50BOLB   C2A 1182  17.730  23.450   8.830
   50BOLB   C3A 1183  17.670  23.860   8.700
   50BOLB   C4A 1184  17.630  24.270   8.610
   50BOLB   C1B 1185  17.650  23.480   9.600
   50BOLB   C2B 1186  17.540  23.760   9.240
   50BOLB   C3B 1187  17.590  24.190   9.190
   50BOLB   C4B 1188  17.860  24.470   9.340
   50BOLB   NC2 1189  19.140  26.540   8.080
   50BOLB   PO2 1190  18.760  26.350   8.350
   50BOLB   GL3 1191  18.490  26.060   8.510
   50BOLB   GL4 1192  18.470  26.190   8.770
   50BOLB   C1C 1193  18.260  25.720   8.340
   50BOLB   C2C 1194  18.210  25.250   8.330
   50BOLB   C3C 1195  17.870  24.960   8.460
   50BOLB   C4C 1196  17.870  24.660   8.610
   50BOLB   C1D 1197  18.650  25.800   9.010
   50BOLB   C2D 1198  18.590  25.620   9.460
   50BOLB   C3D 1199  18.380  25.560   9.860
   50BOLB   C4D 1200  18.250  25.110  10.150
   51BOLB   NC1 1201  12.240  10.070  17.180
   51BOLB   PO1 1202  12.170  10.120  17.720
   51BOLB   GL1 1203  12.040   9.920  18.090
   51BOLB   GL2 1204  12.040   9.640  17.970
   51BOLB   C1A 1205  11.870  10.140  18.410
   51BOLB   C2A 1206  11.680  10.210  18.800
   51BOLB   C3A 1207  11.310  10.160  19.110
   51BOLB   C4A 1208  10.980  10.000  19.280
   51BOLB   C1B 1209  11.900   9.470  18.300
   51BOLB   C2B 1210  11.450   9.430  18.480
   51BOLB   C3B 1211  11.300   9.580  18.880
   51BOLB   C4B 1212  11.020   9.520  19.260
   51BOLB   NC2 1213   9.670  10.290  21.080
   51BOLB   PO2 1214   9.600  10.630  20.850
   51BOLB   GL3 1215   9.840  10.490  20.630
   51BOLB   GL4 1216  10.170  10.590  20.770
   51BOLB   C1C 1217  10.150  10.250  20.320
   51BOLB   C2C 1218  10.270  10.050  20.040
   51BOLB   C3C 1219  10.550   9.730  19.920
   51BOLB   C4C 1220  10.940   9.770  19.720
   51BOLB   C1D 1221  10.640  10.570  20.420
   51BOLB   C2D 1222  11.040  10.610  20.400
   51BOLB   C3D 1223  11.220  10.430  20.040
   51BOLB   C4D 1224  11.500  10.540  19.650
   52BOLB   NC1 1225  15.410  12.020  19.450
   52BOLB   PO1 1226  15.630  11.780  19.650
   52BOLB   GL1 1227  15.660  11.740  20.110
   52BOLB   GL2 1228  15.920  11.790  20.260
   52BOLB   C1A 1229  15.410  11.630  20.450
   52BOLB   C2A 1230  15.250  11.590  20.880
   52BOLB   C3A 1231  14.820  11.710  21.120
   52BOLB   C4A 1232  14.810  11.740  21.530
   52BOLB   C1B 1233  16.080  11.760  20.670
   52BOLB   C2B 1234  16.070  11.880  21.030
   52BOLB   C3B 1235  15.910  11.820  21.410
   52BOLB   C4B 1236  15.700  11.870  21.820
   52BOLB   NC2 1237  13.210  11.420  22.850
   52BOLB   PO2 1238  13.300  11.010  22.940
   52BOLB   GL3 1239  13.510  11.020  22.580
   52BOLB   GL4 1240  13.380  10.820  22.360
   52BOLB   C1C 1241  13.860  11.080  22.400
   52BOLB   C2C 1242  14.230  11.360  22.350
   52BOLB   C3C 1243  14.600  11.710  22.340
   52BOLB   C4C 1244  14.520  11.680  21.900
   52BOLB   C1D 1245  13.760  10.660  22.160
   52BOLB   C2D 1246  14.150  10.440  22.050
   52BOLB   C3D 1247  14.480  10.110  22.010
   52BOLB   C4D 1248  14.770   9.810  22.020
   53BOLB   NC1 1249  18.990   4.930  15.540
   53BOLB   PO1 1250  18.570   4.950  15.470
   53BOLB   GL1 1251  18.680   4.510  15.430
   53BOLB   GL2 1252  19.020   4.470  15.440
   53BOLB   C1A 1253  18.590   4.080  15.430
   53BOLB   C2A 1254  18.390   3.590  15.390
   53BOLB   C3A 1255  18.130   3.300  15.550
   53BOLB   C4A 1256  17.810   3.180  15.830
   53BOLB   C1B 1257  19.050   4.050  15.220
   53BOLB   C2B 1258  19.160   3.720  14.860
   53BOLB   C3B 1259  19.090   3.180  14.750
   53BOLB   C4B 1260  18.770   2.820  14.720
   53BOLB   NC2 1261  18.100   1.300  17.570
   53BOLB   PO2 1262  17.930   1.290  17.180
   53BOLB   GL3 1263  17.750   1.770  17.220
   53BOLB   GL4 1264  17.990   1.810  17.510
   53BOLB   C1C 1265  17.670   2.170  17.030
   53BOLB   C2C 1266  17.920   2.510  16.820
   53BOLB   C3C 1267  17.980   2.920  16.710
   53BOLB   C4C 1268  17.960   3.150  16.350
   53BOLB   C1D 1269  18.060   2.270  17.270
   53BOLB   C2D 1270  18.540   2.410  17.330
   53BOLB   C3D 1271  18.820   2.620  17.030
   53BOLB   C4D 1272  18.990   3.050  16.990
   54BOLB   NC1 1273  20.650   7.720  19.440
   54BOLB   PO1 1274  20.880   7.470  19.680
   54BOLB   GL1 1275  21.150   7.210  19.900
   54BOLB   GL2 1276  21.300   7.060  19.700
   54BOLB   C1A 1277  21.450   7.280  20.160
   54BOLB   C2A 1278  21.600   7.010  20.500
   54BOLB   C3A 1279  21.910   7.000  20.770
   54BOLB   C4A 1280  22.000   6.610  21.000
   54BOLB   C1B 1281  21.550   6.790  20.080
   54BOLB   C2B 1282  21.440   6.360  20.310
   54BOLB   C3B 1283  21.250   5.980  20.490
   54BOLB   C4B 1284  21.240   5.600  20.870
   54BOLB   NC2 1285  23.110   6.370  23.430
   54BOLB   PO2 1286  22.620   6.510  23.420
   54BOLB   GL3 1287  22.590   6.860  22.990
   54BOLB   GL4 1288  22.280   6.690  22.800
   54BOLB   C1C 1289  22.690   6.840  22.550
   54BOLB   C2C 1290  22.360   6.790  22.190
   54BOLB   C3C 1291  22.280   6.450  21.870
   54BOLB   C4C 1292  22.160   6.490  21.350
   54BOLB   C1D 1293  22.110   7.130  22.790
   54BOLB   C2D 1294  21.990   7.570  22.850
   54BOLB   C3D 1295  21.970   7.920  23.080
   54BOLB   C4D 1296  22.020   8.110  23.470
   55BOLB   NC1 1297  14.420   9.670   4.420
   55BOLB   PO1 1298  14.030   9.610   4.420
   55BOLB   GL1 1299  14.080   9.850   4.820
   55BOLB   GL2 1300  13.830   9.990   4.960
   55BOLB   C1A 1301  14.140   9.740   5.260
   55BOLB   C2A 1302  14.110   9.740   5.700
   55BOLB   C3A 1303  14.410   9.900   5.930
   55BOLB   C4A 1304  14.650  10.190   6.400
   55BOLB   C1B 1305  13.690  10.040   5.320
   55BOLB   C2B 1306  13.690  10.120   5.700
   55BOLB   C3B 1307  13.960  10.060   6.100
   55BOLB   C4B 1308  13.890   9.770   6.340
   55BOLB   NC2 1309  15.480  10.780   4.340
   55BOLB   PO2 1310  14.990  10.850   4.390
   55BOLB   GL3 1311  15.150  10.780   4.880
   55BOLB   GL4 1312  15.400  10.670   4.790
   55BOLB   C1C 1313  14.820  10.910   5.290
   55BOLB   C2C 1314  14.730  11.140   5.680
   55BOLB   C3C 1315  14.870  10.880   6.070
   55BOLB   C4C 1316  14.890  10.490   6.330
   55BOLB   C1D 1317  15.610  10.530   5.120
   55BOLB   C2D 1318  15.650  10.540   5.580
   55BOLB   C3D 1319  15.510  10.310   5.860
   55BOLB   C4D 1320  15.230  10.100   6.230
   56BOLB   NC1 1321  21.570  22.610  15.040
   56BOLB   PO1 1322  21.760  22.750  15.480
   56BOLB   GL1 1323  21.840  23.080  15.620
   56BOLB   GL2 1324  21.720  23.250  15.870
   56BOLB   C1A 1325  21.960  23.520  15.520
   56BOLB   C2A 1326  22.150  23.830  15.350
   56BOLB   C3A 1327  22.360  24.170  15.110
   56BOLB   C4A 1328  22.560  24.540  15.270
   56BOLB   C1B 1329  22.130  23.480  16.060
   56BOLB   C2B 1330  22.470  23.540  16.350
   56BOLB   C3B 1331  22.850  23.460  16.540
   56BOLB   C4B 1332  23.070  23.330  16.910
   56BOLB   NC2 1333  23.650  26.690  15.710
   56BOLB   PO2 1334  24.000  26.460  15.950
   56BOLB   GL3 1335  23.750  26.160  15.910
   56BOLB   GL4 1336  23.510  26.120  16.210
   56BOLB   C1C 1337  23.550  25.810  15.720
   56BOLB   C2C 1338  23.260  25.580  15.740
   56BOLB   C3C 1339  22.870  25.320  15.710
   56BOLB   C4C 1340  22.570  25.100  15.370
   56BOLB   C1D 1341  23.200  25.760  16.170
   56BOLB   C2D 1342  23.000  25.420  16.180
   56BOLB   C3D 1343  22.770  25.050  16.300
   56BOLB   C4D 1344  22.620  24.670  16.390
   57BOLB   NC1 1345  24.660  25.860  14.070
   57BOLB   PO1 1346  25.080  25.590  14.040
   57BOLB   GL1 1347  24.620  25.390  14.180
   57BOLB   GL2 1348  24.320  25.170  14.260
   57BOLB   C1A 1349  24.420  25.450  14.610
   57BOLB   C2A 1350  24.430  25.120  14.930
   57BOLB   C3A 1351  24.420  24.760  15.110
   57BOLB   C4A 1352  24.440  24.270  15.100
   57BOLB   C1B 1353  24.490  24.800  14.140
   57BOLB   C2B 1354  24.530  24.360  14.150
   57BOLB   C3B 1355  24.590  23.930  14.000
   57BOLB   C4B 1356  24.380  23.590  13.830
   57BOLB   NC2 1357  25.840  25.450  15.030
   57BOLB   PO2 1358  25.360  25.600  15.280
   57BOLB   GL3 1359  25.340  25.250  15.320
   57BOLB   GL4 1360  25.380  25.120  14.950
   57BOLB   C1C 1361  25.400  24.790  15.570
   57BOLB   C2C 1362  25.090  24.510  15.490
   57BOLB   C3C 1363  24.860  24.240  15.650
   57BOLB   C4C 1364  24.570  24.070  15.430
   57BOLB   C1D 1365  25.080  24.810  15.050
   57BOLB   C2D 1366  24.950  24.290  15.030
   57BOLB   C3D 1367  24.730  23.940  14.900
   57BOLB   C4D 1368  24.400  23.660  14.970
   58BOLB   NC1 1369  14.930  20.560  22.650
   58BOLB   PO1 1370  15.120  20.370  22.350
   58BOLB   GL1 1371  15.390  20.100  22.100
   58BOLB   GL2 1372  15.580  20.020  22.410
   58BOLB   C1A 1373  15.610  19.980  21.670
   58BOLB   C2A 1374  15.810  20.000  21.320
   58BOLB   C3A 1375  15.660  19.900  20.910
   58BOLB   C4A 1376  15.440  19.680  20.600
   58BOLB   C1B 1377  15.680  19.640  22.140
   58BOLB   C2B 1378  15.670  19.410  21.780
   58BOLB   C3B 1379  15.650  19.550  21.390
   58BOLB   C4B 1380  15.580  19.370  20.990
   58BOLB   NC2 1381  16.010  18.760  18.800
   58BOLB   PO2 1382  15.810  18.340  18.630
   58BOLB   GL3 1383  15.590  18.560  19.070
   58BOLB   GL4 1384  15.540  18.870  19.060
   58BOLB   C1C 1385  15.430  18.650  19.530
   58BOLB   C2C 1386  15.660  18.910  19.760
   58BOLB   C3C 1387  15.510  19.220  20.040
   58BOLB   C4C 1388  15.270  19.330  20.450
   58BOLB   C1D 1389  15.300  19.130  19.410
   58BOLB   C2D 1390  15.080  19.230  19.770
   58BOLB   C3D 1391  14.930  19.130  20.200
   58BOLB   C4D 1392  14.640  19.400  20.340
   59BOLB   NC1 1393  27.940  24.000  12.000
   59BOLB   PO1 1394  27.690  23.910  11.670
   59BOLB   GL1 1395  27.300  23.760  11.480
   59BOLB   GL2 1396  27.180  24.040  11.540
   59BOLB   C1A 1397  27.050  23.420  11.410
   59BOLB   C2A 1398  26.890  22.970  11.400
   59BOLB   C3A 1399  26.470  22.910  11.340
   59BOLB   C4A 1400  26.100  22.850  11.280
   59BOLB   C1B 1401  26.890  23.830  11.840
   59BOLB   C2B 1402  26.550  23.460  11.740
   59BOLB   C3B 1403  26.600  22.990  11.840
   59BOLB   C4B 1404  26.730  22.590  11.730
   59BOLB   NC2 1405  26.850  23.730  10.120
   59BOLB   PO2 1406  27.230  23.560  10.000
   59BOLB   GL3 1407  26.870  23.260   9.820
   59BOLB   GL4 1408  26.810  23.350   9.590
   59BOLB   C1C 1409  26.570  22.950   9.990
   59BOLB   C2C 1410  26.150  22.910  10.200
   59BOLB   C3C 1411  25.880  22.610  10.550
   59BOLB   C4C 1412  25.900  22.840  10.910
   59BOLB   C1D 1413  26.580  22.920   9.450
   59BOLB   C2D 1414  26.330  22.550   9.460
   59BOLB   C3D 1415  26.010  22.320   9.520
   59BOLB   C4D 1416  25.960  21.940   9.310
   60BOLB   NC1 1417  28.830   7.410  20.260
   60BOLB   PO1 1418  28.890   7.690  20.630
   60BOLB   GL1 1419  28.580   7.860  20.320
   60BOLB   GL2 1420  28.490   8.130  20.500
   60BOLB   C1A 1421  28.480   7.830  19.860
   60BOLB   C2A 1422  28.220   7.950  19.590
   60BOLB   C3A 1423  27.960   8.290  19.420
   60BOLB   C4A 1424  27.880   8.720  19.440
   60BOLB   C1B 1425  28.200   8.270  20.120
   60BOLB   C2B 1426  27.870   8.220  19.870
   60BOLB   C3B 1427  27.550   8.010  19.710
   60BOLB   C4B 1428  27.630   7.620  19.670
   60BOLB   NC2 1429  29.540   9.680  21.320
   60BOLB   PO2 1430  29.190   9.440  21.310
   60BOLB   GL3 1431  28.970   9.430  20.840
   60BOLB   GL4 1432  28.760   9.700  20.910
   60BOLB   C1C 1433  29.010   9.300  20.470
   60BOLB   C2C 1434  28.860   9.190  20.160
   60BOLB   C3C 1435  28.420   9.040  19.990
   60BOLB   C4C 1436  28.340   9.000  19.630
   60BOLB   C1D 1437  28.620   9.620  20.480
   60BOLB   C2D 1438  28.390   9.530  20.150
   60BOLB   C3D 1439  28.090   9.410  19.770
   60BOLB   C4D 1440  27.800   9.300  19.400
   61BOLB   NC1 1441  11.530  15.280  17.360
   61BOLB   PO1 1442  11.330  15.560  17.280
   61BOLB   GL1 1443  11.050  15.810  17.540
   61BOLB   GL2 1444  10.810  15.900  17.250
   61BOLB   C1A 1445  10.810  16.070  17.750
   61BOLB   C2A 1446  10.790  16.010  18.120
   61BOLB   C3A 1447  10.520  15.910  18.600
   61BOLB   C4A 1448  10.340  15.730  18.810
   61BOLB   C1B 1449  10.380  15.680  17.130
   61BOLB   C2B 1450   9.940  15.500  17.150
   61BOLB   C3B 1451   9.580  15.330  17.150
   61BOLB   C4B 1452   9.210  15.150  17.220
   61BOLB   NC2 1453   8.880  15.230  20.550
   61BOLB   PO2 1454   9.150  15.580  20.460
   61BOLB   GL3 1455   9.360  15.800  20.120
   61BOLB   GL4 1456   9.470  16.090  20.380
   61BOLB   C1C 1457   9.780  15.970  19.940
   61BOLB   C2C 1458  10.200  15.840  19.920
   61BOLB   C3C 1459  10.410  15.650  19.600
   61BOLB   C4C 1460  10.450  15.520  19.220
   61BOLB   C1D 1461   9.930  16.240  20.330
   61BOLB   C2D 1462  10.180  16.330  20.030
   61BOLB   C3D 1463  10.500  16.290  19.850
   61BOLB   C4D 1464  10.840  16.420  19.480
   62BOLB   NC1 1465  13.980  22.190  13.920
   62BOLB   PO1 1466  14.440  22.470  13.830
   62BOLB   GL1 1467  14.120  22.690  14.010
   62BOLB   GL2 1468  14.180  22.900  13.870
   62BOLB   C1A 1469  13.940  23.100  14.240
   62BOLB   C2A 1470  13.650  23.490  14.270
   62BOLB   C3A 1471  13.540  23.810  14.540
   62BOLB   C4A 1472  13.600  24.170  14.380
   62BOLB   C1B 1473  13.820  23.230  13.740
   62BOLB   C2B 1474  13.340  23.380  13.870
   62BOLB   C3B 1475  12.990  23.170  14.170
   62BOLB   C4B 1476  12.610  23.300  14.490
   62BOLB   NC2 1477  12.150  25.270  16.430
   62BOLB   PO2 1478  12.070  25.600  16.050
   62BOLB   GL3 1479  12.540  25.410  15.830
   62BOLB   GL4 1480  12.710  25.210  16.150
   62BOLB   C1C 1481  12.900  25.330  15.530
   62BOLB   C2C 1482  13.240  25.340  15.080
   62BOLB   C3C 1483  13.340  24.920  14.830
   62BOLB   C4C 1484  13.460  24.530  14.550
   62BOLB   C1D 1485  12.910  24.750  16.110
   62BOLB   C2D 1486  13.180  24.470  16.400
   62BOLB   C3D 1487  13.020  24.090  16.480
   62BOLB   C4D 1488  12.980  23.690  16.330
   63BOLB   NC1 1489  16.580   7.610  19.080
   63BOLB   PO1 1490  16.750   7.630  19.410
   63BOLB   GL1 1491  16.630   7.560  19.760
   63BOLB   GL2 1492  16.310   7.750  19.780
   63BOLB   C1A 1493  16.760   7.260  20.020
   63BOLB   C2A 1494  16.660   6.940  20.300
   63BOLB   C3A 1495  16.480   6.620  20.550
   63BOLB   C4A 1496  16.220   6.210  20.810
   63BOLB   C1B 1497  16.320   7.630  20.140
   63BOLB   C2B 1498  15.910   7.680  20.310
   63BOLB   C3B 1499  15.690   7.750  20.720
   63BOLB   C4B 1500  15.460   7.430  20.960
   63BOLB   NC2 1501  16.660   4.760  22.450
   63BOLB   PO2 1502  17.090   4.900  22.340
   63BOLB   GL3 1503  17.210   4.990  21.980
   63BOLB   GL4 1504  17.150   4.840  21.760
   63BOLB   C1C 1505  17.000   5.240  21.540
   63BOLB   C2C 1506  16.830   5.170  21.130
   63BOLB   C3C 1507  16.720   5.550  20.990
   63BOLB   C4C 1508  16.360   5.790  20.980
   63BOLB   C1D 1509  17.530   5.020  21.440
   63BOLB   C2D 1510  17.810   4.800  21.190
   63BOLB   C3D 1511  18.240   4.700  21.290
   63BOLB   C4D 1512  18.520   4.880  21.500
   64BOLB   NC1 1513   9.520  15.190  14.810
   64BOLB   PO1 1514   9.690  15.560  14.600
   64BOLB   GL1 1515   9.370  15.660  14.920
   64BOLB   GL2 1516   9.390  15.460  15.220
   64BOLB   C1A 1517   8.890  15.720  14.810
   64BOLB   C2A 1518   8.640  15.700  14.550
   64BOLB   C3A 1519   8.250  15.890  14.530
   64BOLB   C4A 1520   7.960  15.560  14.690
   64BOLB   C1B 1521   8.990  15.350  15.180
   64BOLB   C2B 1522   8.580  15.590  15.250
   64BOLB   C3B 1523   8.200  15.740  15.560
   64BOLB   C4B 1524   8.100  15.520  15.950
   64BOLB   NC2 1525   6.020  15.990  15.430
   64BOLB   PO2 1526   5.740  15.910  15.070
   64BOLB   GL3 1527   6.180  15.740  14.940
   64BOLB   GL4 1528   6.360  15.980  15.030
   64BOLB   C1C 1529   6.520  15.530  15.110
   64BOLB   C2C 1530   6.980  15.430  15.200
   64BOLB   C3C 1531   7.270  15.100  15.050
   64BOLB   C4C 1532   7.680  15.200  14.910
   64BOLB   C1D 1533   6.750  15.910  14.890
   64BOLB   C2D 1534   7.140  16.050  14.940
   64BOLB   C3D 1535   7.520  16.400  14.780
   64BOLB   C4D 1536   7.750  16.590  15.090
   65BOLB   NC1 1537  16.560  22.710  11.780
   65BOLB   PO1 1538  16.740  23.210  11.680
   65BOLB   GL1 1539  16.580  23.660  11.550
   65BOLB   GL2 1540  16.730  23.980  11.520
   65BOLB   C1A 1541  16.250  24.020  11.290
   65BOLB   C2A 1542  16.300  24.400  11.160
   65BOLB   C3A 1543  16.660  24.660  11.030
   65BOLB   C4A 1544  16.840  25.020  10.750
   65BOLB   C1B 1545  16.930  24.220  11.190
   65BOLB   C2B 1546  17.320  24.480  11.140
   65BOLB   C3B 1547  17.580  24.810  11.330
   65BOLB   C4B 1548  17.880  25.270  11.600
   65BOLB   NC2 1549  16.230  27.540  11.380
   65BOLB   PO2 1550  16.340  27.120  11.070
   65BOLB   GL3 1551  16.480  26.700  11.250
   65BOLB   GL4 1552  16.670  26.560  11.520
   65BOLB   C1C 1553  16.740  26.340  11.060
   65BOLB   C2C 1554  17.070  26.160  11.050
   65BOLB   C3C 1555  17.260  25.840  10.950
   65BOLB   C4C 1556  16.990  25.450  10.780
   65BOLB   C1D 1557  16.870  26.190  11.690
   65BOLB   C2D 1558  17.220  26.030  11.550
   65BOLB   C3D 1559  17.210  25.610  11.730
   65BOLB   C4D 1560  17.380  25.230  11.770
   66BOLB   NC1 1561  10.640  12.110  13.970
   66BOLB   PO1 1562  10.490  12.420  14.240
   66BOLB   GL1 1563  10.160  12.020  14.110
   66BOLB   GL2 1564  10.190  11.760  14.010
   66BOLB   C1A 1565   9.720  12.100  13.950
   66BOLB   C2A 1566   9.290  12.030  13.830
   66BOLB   C3A 1567   8.940  12.210  13.770
   66BOLB   C4A 1568   8.720  12.090  13.350
   66BOLB   C1B 1569   9.920  11.550  13.690
   66BOLB   C2B 1570   9.550  11.360  13.540
   66BOLB   C3B 1571   9.110  11.310  13.750
   66BOLB   C4B 1572   8.700  11.140  13.790
   66BOLB   NC2 1573   6.960  11.310  11.190
   66BOLB   PO2 1574   7.050  11.520  11.550
   66BOLB   GL3 1575   7.330  11.630  11.740
   66BOLB   GL4 1576   7.560  11.570  11.640
   66BOLB   C1C 1577   7.700  11.740  12.100
   66BOLB   C2C 1578   7.880  11.640  12.430
   66BOLB   C3C 1579   8.230  11.470  12.690
   66BOLB   C4C 1580   8.520  11.710  13.060
   66BOLB   C1D 1581   7.970  11.740  11.660
   66BOLB   C2D 1582   8.200  11.990  11.430
   66BOLB   C3D 1583   8.710  12.110  11.420
   66BOLB   C4D 1584   9.150  11.880  11.340
   67BOLB   NC1 1585  15.250  20.210  17.990
   67BOLB   PO1 1586  15.540  19.920  18.010
   67BOLB   GL1 1587  15.450  19.920  18.480
   67BOLB   GL2 1588  15.670  19.740  18.620
   67BOLB   C1A 1589  15.230  20.070  18.800
   67BOLB   C2A 1590  14.980  20.100  19.170
   67BOLB   C3A 1591  15.040  19.990  19.520
   67BOLB   C4A 1592  14.970  20.070  19.970
   67BOLB   C1B 1593  15.650  19.860  19.080
   67BOLB   C2B 1594  15.480  20.130  19.310
   67BOLB   C3B 1595  15.410  20.300  19.760
   67BOLB   C4B 1596  15.230  20.660  19.880
   67BOLB   NC2 1597  14.420  21.090  21.750
   67BOLB   PO2 1598  14.410  20.700  21.870
   67BOLB   GL3 1599  14.540  20.680  21.540
   67BOLB   GL4 1600  14.300  20.490  21.400
   67BOLB   C1C 1601  14.740  20.830  21.120
   67BOLB   C2C 1602  14.950  20.860  20.760
   67BOLB   C3C 1603  14.950  20.770  20.390
   67BOLB   C4C 1604  15.120  20.350  20.300
   67BOLB   C1D 1605  14.260  20.560  21.070
   67BOLB   C2D 1606  13.960  20.600  20.840
   67BOLB   C3D 1607  13.650  20.570  20.480
   67BOLB   C4D 1608  13.280  20.690  20.510
   68BOLB   NC1 1609  11.690  24.110   8.470
   68BOLB   PO1 1610  12.120  24.150   8.400
   68BOLB   GL1 1611  12.390  24.040   8.630
   68BOLB   GL2 1612  12.390  23.770   8.810
   68BOLB   C1A 1613  12.880  24.120   8.750
   68BOLB   C2A 1614  13.140  23.800   8.700
   68BOLB   C3A 1615  13.270  23.360   8.770
   68BOLB   C4A 1616  13.640  23.040   8.930
   68BOLB   C1B 1617  12.720  23.460   8.840
   68BOLB   C2B 1618  12.800  23.010   8.760
   68BOLB   C3B 1619  13.160  22.850   8.600
   68BOLB   C4B 1620  13.550  22.750   8.580
   68BOLB   NC2 1621  12.550  25.030   9.310
   68BOLB   PO2 1622  12.450  24.560   9.140
   68BOLB   GL3 1623  12.440  24.080   9.170
   68BOLB   GL4 1624  12.560  24.180   9.490
   68BOLB   C1C 1625  12.820  23.770   9.220
   68BOLB   C2C 1626  12.970  23.370   9.330
   68BOLB   C3C 1627  13.100  22.980   9.200
   68BOLB   C4C 1628  13.360  22.710   9.070
   68BOLB   C1D 1629  12.590  23.940   9.800
   68BOLB   C2D 1630  12.810  23.950  10.110
   68BOLB   C3D 1631  12.960  23.700  10.150
   68BOLB   C4D 1632  12.990  23.370  10.400
   69BOLB   NC1 1633  11.360   5.690  20.010
   69BOLB   PO1 1634  11.780   5.760  20.000
   69BOLB   GL1 1635  12.060   5.810  19.670
   69BOLB   GL2 1636  12.180   5.510  19.540
   69BOLB   C1A 1637  12.360   6.040  19.470
   69BOLB   C2A 1638  12.690   6.320  19.390
   69BOLB   C3A 1639  12.680   6.780  19.450
   69BOLB   C4A 1640  12.890   7.120  19.470
   69BOLB   C1B 1641  12.450   5.450  19.100
   69BOLB   C2B 1642  12.780   5.500  18.800
   69BOLB   C3B 1643  12.750   5.600  18.350
   69BOLB   C4B 1644  13.120   5.740  18.130
   69BOLB   NC2 1645  11.840   6.560  21.080
   69BOLB   PO2 1646  12.250   6.530  21.370
   69BOLB   GL3 1647  12.240   6.980  21.100
   69BOLB   GL4 1648  11.950   7.240  21.180
   69BOLB   C1C 1649  12.260   6.950  20.700
   69BOLB   C2C 1650  12.450   7.380  20.480
   69BOLB   C3C 1651  12.540   7.570  20.100
   69BOLB   C4C 1652  12.790   7.370  19.760
   69BOLB   C1D 1653  11.970   7.300  20.740
   69BOLB   C2D 1654  11.980   7.530  20.420
   69BOLB   C3D 1655  12.090   7.310  20.040
   69BOLB   C4D 1656  11.840   7.120  19.600
   70BOLB   NC1 1657  16.200  27.690  14.600
   70BOLB   PO1 1658  16.710  27.670  14.750
   70BOLB   GL1 1659  16.900  27.270  14.770
   70BOLB   GL2 1660  16.920  27.180  15.070
   70BOLB   C1A 1661  16.950  26.780  14.740
   70BOLB   C2A 1662  17.000  26.430  14.950
   70BOLB   C3A 1663  17.030  25.960  14.980
   70BOLB   C4A 1664  16.800  25.680  15.030
   70BOLB   C1B 1665  16.880  26.810  15.390
   70BOLB   C2B 1666  16.970  26.470  15.430
   70BOLB   C3B 1667  17.310  26.150  15.410
   70BOLB   C4B 1668  17.560  25.830  15.310
   70BOLB   NC2 1669  15.080  26.940  15.370
   70BOLB   PO2 1670  15.130  26.870  15.040
   70BOLB   GL3 1671  15.270  26.460  15.070
   70BOLB   GL4 1672  15.480  26.270  14.710
   70BOLB   C1C 1673  15.400  26.100  15.240
   70BOLB   C2C 1674  15.680  25.770  15.240
   70BOLB   C3C 1675  15.980  25.650  15.270
   70BOLB   C4C 1676  16.330  25.480  15.090
   70BOLB   C1D 1677  15.810  26.090  14.480
   70BOLB   C2D 1678  16.310  26.300  14.570
   70BOLB   C3D 1679  16.540  26.650  14.380
   70BOLB   C4D 1680  16.730  27.020  14.230
   71BOLB   NC1 1681  17.930  21.060   8.890
   71BOLB   PO1 1682  17.600  21.360   8.710
   71BOLB   GL1 1683  17.670  21.490   8.310
   71BOLB   GL2 1684  17.800  21.840   8.370
   71BOLB   C1A 1685  17.480  21.650   7.950
   71BOLB   C2A 1686  17.280  21.930   7.750
   71BOLB   C3A 1687  17.300  22.120   7.390
   71BOLB   C4A 1688  17.620  22.160   7.140
   71BOLB   C1B 1689  17.720  22.270   8.100
   71BOLB   C2B 1690  17.460  22.610   7.890
   71BOLB   C3B 1691  17.290  22.630   7.410
   71BOLB   C4B 1692  17.170  22.870   6.970
   71BOLB   NC2 1693  16.330  23.450   5.380
   71BOLB   PO2 1694  16.650  23.740   5.360
   71BOLB   GL3 1695  16.710  23.460   5.710
   71BOLB   GL4 1696  16.420  23.270   5.880
   71BOLB   C1C 1697  17.010  23.200   6.050
   71BOLB   C2C 1698  17.240  23.080   6.400
   71BOLB   C3C 1699  17.430  22.770   6.560
   71BOLB   C4C 1700  17.640  22.580   6.870
   71BOLB   C1D 1701  16.270  22.900   6.250
   71BOLB   C2D 1702  16.280  22.460   6.390
   71BOLB   C3D 1703  16.650  22.160   6.440
   71BOLB   C4D 1704  16.740  21.810   6.690
   72BOLB   NC1 1705   6.770  10.220  15.480
   72BOLB   PO1 1706   7.240   9.890  15.580
   72BOLB   GL1 1707   7.750   9.950  15.440
   72BOLB   GL2 1708   7.720  10.150  15.280
   72BOLB   C1A 1709   8.110   9.910  15.670
   72BOLB   C2A 1710   8.480   9.970  15.490
   72BOLB   C3A 1711   8.940   9.910  15.680
   72BOLB   C4A 1712   9.170  10.050  16.100
   72BOLB   C1B 1713   8.130  10.330  15.450
   72BOLB   C2B 1714   8.580  10.460  15.440
   72BOLB   C3B 1715   8.840  10.420  15.760
   72BOLB   C4B 1716   9.290  10.620  15.860
   72BOLB   NC2 1717   7.140  10.010  17.520
   72BOLB   PO2 1718   7.490  10.320  17.530
   72BOLB   GL3 1719   7.810  10.550  17.310
   72BOLB   GL4 1720   7.720  10.900  17.380
   72BOLB   C1C 1721   8.080  10.570  17.010
   72BOLB   C2C 1722   8.440  10.470  16.850
   72BOLB   C3C 1723   8.900  10.350  16.820
   72BOLB   C4C 1724   9.140  10.100  16.530
   72BOLB   C1D 1725   8.130  11.020  17.300
   72BOLB   C2D 1726   8.430  10.960  17.090
   72BOLB   C3D 1727   8.710  10.640  17.230
   72BOLB   C4D 1728   9.150  10.640  17.510
   73BOLB   NC1 1729  11.540  18.230  15.880
   73BOLB   PO1 1730  11.600  18.780  15.890
   73BOLB   GL1 1731  11.390  19.040  16.210
   73BOLB   GL2 1732  11.050  19.070  16.200
   73BOLB   C1A 1733  11.280  19.480  16.310
   73BOLB   C2A 1734  10.940  19.680  16.570
   73BOLB   C3A 1735  10.660  19.820  16.830
   73BOLB   C4A 1736  10.330  20.010  17.030
   73BOLB   C1B 1737  10.650  18.870  16.390
   73BOLB   C2B 1738  10.250  18.910  16.690
   73BOLB   C3B 1739  10.390  18.960  17.050
   73BOLB   C4B 1740  10.010  19.210  17.250
   73BOLB   NC2 1741   9.350  20.720  19.480
   73BOLB   PO2 1742   9.460  20.840  19.060
   73BOLB   GL3 1743   9.810  20.730  18.840
   73BOLB   GL4 1744  10.080  20.650  19.030
   73BOLB   C1C 1745   9.840  20.860  18.380
   73BOLB   C2C 1746  10.040  20.660  17.980
   73BOLB   C3C 1747   9.940  20.400  17.660
   73BOLB   C4C 1748  10.100  20.130  17.410
   73BOLB   C1D 1749  10.090  20.160  18.990
   73BOLB   C2D 1750  10.310  19.830  18.700
   73BOLB   C3D 1751  10.590  19.950  18.540
   73BOLB   C4D 1752  10.730  20.310  18.430
   74BOLB   NC1 1753   6.720  13.290  16.930
   74BOLB   PO1 1754   6.940  13.170  17.270
   74BOLB   GL1 1755   7.360  13.230  17.330
   74BOLB   GL2 1756   7.430  13.270  17.690
   74BOLB   C1A 1757   7.610  13.440  16.970
   74BOLB   C2A 1758   7.690  13.480  16.560
   74BOLB   C3A 1759   7.770  13.240  16.220
   74BOLB   C4A 1760   8.040  12.930  16.010
   74BOLB   C1B 1761   7.880  13.310  17.820
   74BOLB   C2B 1762   8.330  13.290  17.890
   74BOLB   C3B 1763   8.660  13.000  17.930
   74BOLB   C4B 1764   8.950  12.600  18.080
   74BOLB   NC2 1765   6.520  11.580  16.230
   74BOLB   PO2 1766   6.420  12.010  16.330
   74BOLB   GL3 1767   6.790  12.210  16.320
   74BOLB   GL4 1768   7.040  12.010  16.100
   74BOLB   C1C 1769   7.080  12.540  16.190
   74BOLB   C2C 1770   7.480  12.340  16.130
   74BOLB   C3C 1771   7.890  12.310  15.890
   74BOLB   C4C 1772   8.150  12.650  15.760
   74BOLB   C1D 1773   7.310  11.900  15.890
   74BOLB   C2D 1774   7.460  12.150  15.550
   74BOLB   C3D 1775   7.870  12.250  15.390
   74BOLB   C4D 1776   8.290  12.160  15.340
   75BOLB   NC1 1777   7.130  19.680  15.400
   75BOLB   PO1 1778   7.120  19.270  15.690
   75BOLB   GL1 1779   7.500  19.110  15.700
   75BOLB   GL2 1780   7.490  18.900  15.430
   75BOLB   C1A 1781   7.900  19.080  15.810
   75BOLB   C2A 1782   8.330  19.220  15.830
   75BOLB   C3A 1783   8.680  19.400  15.780
   75BOLB   C4A 1784   9.080  19.570  15.750
   75BOLB   C1B 1785   7.840  18.680  15.570
   75BOLB   C2B 1786   8.120  18.510  15.380
   75BOLB   C3B 1787   8.350  18.140  15.410
   75BOLB   C4B 1788   8.800  18.080  15.380
   75BOLB   NC2 1789   7.690  20.300  14.080
   75BOLB   PO2 1790   7.820  20.750  13.870
   75BOLB   GL3 1791   8.150  20.460  14.100
   75BOLB   GL4 1792   8.170  20.170  13.900
   75BOLB   C1C 1793   8.460  20.230  14.330
   75BOLB   C2C 1794   8.780  20.060  14.640
   75BOLB   C3C 1795   9.020  19.990  14.970
   75BOLB   C4C 1796   9.140  19.790  15.350
   75BOLB   C1D 1797   8.590  19.860  13.980
   75BOLB   C2D 1798   8.830  19.590  13.910
   75BOLB   C3D 1799   9.130  19.440  13.540
   75BOLB   C4D 1800   9.510  19.600  13.510
   76BOLB   NC1 1801  14.180  17.080  18.040
   76BOLB   PO1 1802  14.460  17.030  18.340
   76BOLB   GL1 1803  14.360  17.140  18.710
   76BOLB   GL2 1804  14.450  17.240  18.970
   76BOLB   C1A 1805  14.090  16.890  19.060
   76BOLB   C2A 1806  13.720  16.980  19.270
   76BOLB   C3A 1807  13.390  17.040  19.470
   76BOLB   C4A 1808  13.170  17.460  19.710
   76BOLB   C1B 1809  14.130  17.350  19.350
   76BOLB   C2B 1810  13.700  17.470  19.540
   76BOLB   C3B 1811  13.840  17.520  19.900
   76BOLB   C4B 1812  13.760  17.370  20.370
   76BOLB   NC2 1813  11.980  18.390  22.160
   76BOLB   PO2 1814  12.310  18.180  21.910
   76BOLB   GL3 1815  12.460  18.050  21.500
   76BOLB   GL4 1816  12.430  17.680  21.430
   76BOLB   C1C 1817  12.520  18.020  21.050
   76BOLB   C2C 1818  12.630  18.050  20.540
   76BOLB   C3C 1819  12.570  17.900  20.150
   76BOLB   C4C 1820  12.640  17.500  19.900
   76BOLB   C1D 1821  12.470  17.490  21.010
   76BOLB   C2D 1822  12.570  17.190  20.710
   76BOLB   C3D 1823  12.820  17.090  20.260
   76BOLB   C4D 1824  13.090  16.970  19.890
   77BOLB   NC1 1825  12.110   9.310  12.620
   77BOLB   PO1 1826  12.380   9.660  12.310
   77BOLB   GL1 1827  12.210   9.580  11.820
   77BOLB   GL2 1828  11.920   9.740  11.760
   77BOLB   C1A 1829  11.970   9.260  11.530
   77BOLB   C2A 1830  11.770   8.930  11.360
   77BOLB   C3A 1831  11.760   8.470  11.150
   77BOLB   C4A 1832  11.520   8.150  11.020
   77BOLB   C1B 1833  11.520   9.940  11.600
   77BOLB   C2B 1834  11.150   9.690  11.710
   77BOLB   C3B 1835  10.900   9.260  11.690
   77BOLB   C4B 1836  10.540   9.070  11.810
   77BOLB   NC2 1837   9.490   7.090  10.700
   77BOLB   PO2 1838   9.500   7.550  10.540
   77BOLB   GL3 1839   9.860   7.250  10.490
   77BOLB   GL4 1840  10.150   7.130  10.270
   77BOLB   C1C 1841  10.130   7.530  10.540
   77BOLB   C2C 1842  10.450   7.660  10.830
   77BOLB   C3C 1843  10.810   7.660  10.990
   77BOLB   C4C 1844  11.140   7.990  11.130
   77BOLB   C1D 1845  10.290   7.110  10.670
   77BOLB   C2D 1846  10.380   7.240  11.190
   77BOLB   C3D 1847  10.560   6.810  11.380
   77BOLB   C4D 1848  10.320   6.630  11.770
   78BOLB   NC1 1849  18.250   6.190  18.510
   78BOLB   PO1 1850  18.690   6.290  18.230
   78BOLB   GL1 1851  18.730   5.940  18.430
   78BOLB   GL2 1852  18.450   5.740  18.260
   78BOLB   C1A 1853  18.660   5.780  18.970
   78BOLB   C2A 1854  18.760   5.490  19.330
   78BOLB   C3A 1855  18.830   5.130  19.660
   78BOLB   C4A 1856  18.660   4.850  19.910
   78BOLB   C1B 1857  18.360   5.540  18.650
   78BOLB   C2B 1858  18.220   5.200  18.760
   78BOLB   C3B 1859  18.540   4.850  18.630
   78BOLB   C4B 1860  18.920   4.610  18.670
   78BOLB   NC2 1861  17.250   2.730  20.750
   78BOLB   PO2 1862  17.220   3.120  20.950
   78BOLB   GL3 1863  17.500   3.460  20.760
   78BOLB   GL4 1864  17.490   3.840  20.830
   78BOLB   C1C 1865  17.780   3.620  20.410
   78BOLB   C2C 1866  18.000   3.930  20.310
   78BOLB   C3C 1867  18.160   4.140  19.970
   78BOLB   C4C 1868  18.300   4.580  19.840
   78BOLB   C1D 1869  17.610   4.140  20.610
   78BOLB   C2D 1870  17.530   4.630  20.510
   78BOLB   C3D 1871  17.650   5.030  20.460
   78BOLB   C4D 1872  17.610   5.440  20.220
   79BOLB   NC1 1873  16.910  21.640  16.930
   79BOLB   PO1 1874  16.770  21.530  17.340
   79BOLB   GL1 1875  16.600  21.630  17.670
   79BOLB   GL2 1876  16.420  21.820  17.590
   79BOLB   C1A 1877  16.630  21.670  18.090
   79BOLB   C2A 1878  16.630  21.830  18.570
   79BOLB   C3A 1879  16.210  22.060  18.880
   79BOLB   C4A 1880  15.890  22.080  19.280
   79BOLB   C1B 1881  16.300  22.010  17.880
   79BOLB   C2B 1882  16.380  22.290  18.270
   79BOLB   C3B 1883  16.610  22.700  18.280
   79BOLB   C4B 1884  16.590  22.930  18.690
   79BOLB   NC2 1885  14.990  22.470  21.320
   79BOLB   PO2 1886  14.750  22.140  21.460
   79BOLB   GL3 1887  14.800  22.030  21.070
   79BOLB   GL4 1888  14.500  22.070  20.880
   79BOLB   C1C 1889  15.090  22.050  20.770
   79BOLB   C2C 1890  15.180  21.990  20.350
   79BOLB   C3C 1891  15.460  22.020  20.000
   79BOLB   C4C 1892  15.580  22.030  19.550
   79BOLB   C1D 1893  14.690  21.850  20.400
   79BOLB   C2D 1894  14.570  21.720  20.050
   79BOLB   C3D 1895  14.280  21.660  19.640
   79BOLB   C4D 1896  13.980  21.820  19.470
   80BOLB   NC1 1897  13.170  13.200  18.360
   80BOLB   PO1 1898  13.120  12.890  18.580
   80BOLB   GL1 1899  12.750  13.060  18.620
   80BOLB   GL2 1900  12.510  13.020  18.400
   80BOLB   C1A 1901  12.500  13.180  18.980
   80BOLB   C2A 1902  12.430  13.350  19.410
   80BOLB   C3A 1903  12.270  13.380  19.760
   80BOLB   C4A 1904  12.130  13.420  20.120
   80BOLB   C1B 1905  12.210  13.240  18.600
   80BOLB   C2B 1906  11.840  13.370  18.580
   80BOLB   C3B 1907  11.610  13.450  18.970
   80BOLB   C4B 1908  11.480  13.320  19.320
   80BOLB   NC2 1909  10.620  12.090  21.750
   80BOLB   PO2 1910  10.420  12.560  21.760
   80BOLB   GL3 1911  10.790  12.570  21.610
   80BOLB   GL4 1912  10.780  12.440  21.330
   80BOLB   C1C 1913  11.120  12.740  21.440
   80BOLB   C2C 1914  11.340  12.830  21.040
   80BOLB   C3C 1915  11.680  12.780  20.730
   80BOLB   C4C 1916  11.870  13.010  20.460
   80BOLB   C1D 1917  11.020  12.280  21.060
   80BOLB   C2D 1918  11.090  11.760  20.940
   80BOLB   C3D 1919  11.200  11.710  20.460
   80BOLB   C4D 1920  10.910  11.800  20.190
   81BOLB   NC1 1921  10.800  16.970  16.300
   81BOLB   PO1 1922  10.600  16.620  16.210
   81BOLB   GL1 1923  10.250  16.710  16.300
   81BOLB   GL2 1924  10.280  17.030  16.420
   81BOLB   C1A 1925   9.900  16.930  16.170
   81BOLB   C2A 1926   9.550  17.240  16.360
   81BOLB   C3A 1927   9.400  17.670  16.190
   81BOLB   C4A 1928   9.080  18.020  16.510
   81BOLB   C1B 1929   9.980  17.330  16.540
   81BOLB   C2B 1930   9.670  17.550  16.730
   81BOLB   C3B 1931   9.290  17.890  17.030
   81BOLB   C4B 1932   9.360  18.290  17.270
   81BOLB   NC2 1933   7.530  18.550  17.590
   81BOLB   PO2 1934   7.420  18.140  17.900
   81BOLB   GL3 1935   7.800  18.120  17.650
   81BOLB   GL4 1936   7.960  18.330  17.460
   81BOLB   C1C 1937   8.000  17.880  17.240
   81BOLB   C2C 1938   8.210  18.150  16.900
   81BOLB   C3C 1939   8.620  18.350  16.950
   81BOLB   C4C 1940   8.950  18.330  16.650
   81BOLB   C1D 1941   8.430  18.270  17.400
   81BOLB   C2D 1942   8.860  18.480  17.450
   81BOLB   C3D 1943   8.930  18.930  17.590
   81BOLB   C4D 1944   9.330  19.170  17.730
   82BOLB   NC1 1945  10.940  12.920  15.710
   82BOLB   PO1 1946  10.560  13.110  15.790
   82BOLB   GL1 1947  10.290  12.960  16.100
   82BOLB   GL2 1948  10.040  13.150  16.000
   82BOLB   C1A 1949  10.050  12.860  16.500
   82BOLB   C2A 1950   9.770  12.710  16.790
   82BOLB   C3A 1951   9.360  12.610  16.960
   82BOLB   C4A 1952   8.820  12.700  17.070
   82BOLB   C1B 1953   9.650  13.230  16.080
   82BOLB   C2B 1954   9.470  12.980  16.390
   82BOLB   C3B 1955   9.090  12.890  16.700
   82BOLB   C4B 1956   8.640  12.740  16.560
   82BOLB   NC2 1957   7.220  13.880  17.910
   82BOLB   PO2 1958   6.890  13.860  17.710
   82BOLB   GL3 1959   7.240  13.750  17.420
   82BOLB   GL4 1960   7.110  13.620  17.180
   82BOLB   C1C 1961   7.570  13.670  17.390
   82BOLB   C2C 1962   7.980  13.420  17.340
   82BOLB   C3C 1963   8.340  13.130  17.440
   82BOLB   C4C 1964   8.680  12.960  17.320
   82BOLB   C1D 1965   7.300  13.810  16.860
   82BOLB   C2D 1966   7.550  13.940  16.540
   82BOLB   C3D 1967   7.780  14.280  16.230
   82BOLB   C4D 1968   7.890  14.710  16.060
   83BOLB   NC1 1969  23.130   6.520  17.500
   83BOLB   PO1 1970  23.000   6.530  17.940
   83BOLB   GL1 1971  22.890   6.370  18.360
   83BOLB   GL2 1972  22.580   6.310  18.310
   83BOLB   C1A 1973  23.100   6.140  18.650
   83BOLB   C2A 1974  23.350   5.880  18.760
   83BOLB   C3A 1975  23.280   5.640  19.070
   83BOLB   C4A 1976  23.270   5.280  19.270
   83BOLB   C1B 1977  22.640   5.930  18.540
   83BOLB   C2B 1978  22.820   5.770  18.860
   83BOLB   C3B 1979  22.760   5.650  19.350
   83BOLB   C4B 1980  22.610   5.260  19.590
   83BOLB   NC2 1981  24.090   3.010  20.420
   83BOLB   PO2 1982  24.030   3.410  20.100
   83BOLB   GL3 1983  23.950   3.730  19.860
   83BOLB   GL4 1984  23.990   3.620  19.590
   83BOLB   C1C 1985  23.620   3.970  19.820
   83BOLB   C2C 1986  23.490   4.370  19.870
   83BOLB   C3C 1987  23.250   4.690  19.750
   83BOLB   C4C 1988  23.080   4.980  19.550
   83BOLB   C1D 1989  24.200   3.990  19.390
   83BOLB   C2D 1990  24.190   4.390  19.450
   83BOLB   C3D 1991  23.970   4.830  19.420
   83BOLB   C4D 1992  23.930   5.220  19.270
   84BOLB   NC1 1993  11.930  17.180  16.710
   84BOLB   PO1 1994  11.870  17.530  17.000
   84BOLB   GL1 1995  11.700  17.550  17.480
   84BOLB   GL2 1996  11.610  17.300  17.550
   84BOLB   C1A 1997  11.580  17.740  17.830
   84BOLB   C2A 1998  11.330  17.940  18.110
   84BOLB   C3A 1999  11.190  18.360  18.200
   84BOLB   C4A 2000  11.020  18.650  18.460
   84BOLB   C1B 2001  11.220  17.420  17.840
   84BOLB   C2B 2002  10.920  17.750  17.960
   84BOLB   C3B 2003  10.630  18.030  18.080
   84BOLB   C4B 2004  10.230  18.050  18.370
   84BOLB   NC2 2005   9.370  18.840  20.090
   84BOLB   PO2 2006   9.160  18.870  19.830
   84BOLB   GL3 2007   9.580  18.630  19.630
   84BOLB   GL4 2008   9.920  18.550  19.840
   84BOLB   C1C 2009   9.890  18.440  19.360
   84BOLB   C2C 2010  10.150  18.190  19.020
   84BOLB   C3C 2011  10.210  18.440  18.740
   84BOLB   C4C 2012  10.580  18.760  18.680
   84BOLB   C1D 2013  10.100  18.880  19.540
   84BOLB   C2D 2014  10.310  19.250  19.330
   84BOLB   C3D 2015  10.610  19.420  19.090
   84BOLB   C4D 2016  10.830  19.670  18.890
   85BOLB   NC1 2017  10.730  11.240  16.130
   85BOLB   PO1 2018  10.870  11.300  16.550
   85BOLB   GL1 2019  10.540  11.090  16.670
   85BOLB   GL2 2020  10.340  11.190  16.450
   85BOLB   C1A 2021  10.190  10.850  16.800
   85BOLB   C2A 2022  10.080  10.640  17.200
   85BOLB   C3A 2023   9.690  10.550  17.460
   85BOLB   C4A 2024   9.530  10.480  17.780
   85BOLB   C1B 2025  10.000  10.950  16.270
   85BOLB   C2B 2026   9.510  10.860  16.290
   85BOLB   C3B 2027   9.120  11.040  16.130
   85BOLB   C4B 2028   8.710  11.140  16.130
   85BOLB   NC2 2029   8.740  10.310  19.710
   85BOLB   PO2 2030   8.530  10.070  19.390
   85BOLB   GL3 2031   8.790  10.390  19.220
   85BOLB   GL4 2032   9.030  10.670  19.490
   85BOLB   C1C 2033   9.190  10.300  18.980
   85BOLB   C2C 2034   9.300  10.040  18.710
   85BOLB   C3C 2035   9.640  10.270  18.490
   85BOLB   C4C 2036   9.580  10.610  18.160
   85BOLB   C1D 2037   9.330  10.870  19.110
   85BOLB   C2D 2038   9.690  11.140  18.970
   85BOLB   C3D 2039   9.910  11.440  18.750
   85BOLB   C4D 2040  10.050  11.820  18.560
   86BOLB   NC1 2041  11.650  12.620  17.220
   86BOLB   PO1 2042  11.320  12.730  16.990
   86BOLB   GL1 2043  11.150  12.500  17.270
   86BOLB   GL2 2044  11.310  12.590  17.620
   86BOLB   C1A 2045  10.780  12.510  17.530
   86BOLB   C2A 2046  10.370  12.390  17.600
   86BOLB   C3A 2047   9.980  12.410  17.730
   86BOLB   C4A 2048   9.550  12.410  17.610
   86BOLB   C1B 2049  11.010  12.810  17.860
   86BOLB   C2B 2050  10.750  12.970  18.200
   86BOLB   C3B 2051  10.460  13.200  18.500
   86BOLB   C4B 2052  10.180  13.430  18.850
   86BOLB   NC2 2053   7.220  11.410  18.880
   86BOLB   PO2 2054   7.340  11.750  18.490
   86BOLB   GL3 2055   7.570  11.840  18.000
   86BOLB   GL4 2056   7.640  12.200  18.070
   86BOLB   C1C 2057   8.020  11.840  17.870
   86BOLB   C2C 2058   8.380  11.950  17.730
   86BOLB   C3C 2059   8.760  12.160  17.850
   86BOLB   C4C 2060   9.190  12.150  17.740
   86BOLB   C1D 2061   7.980  12.310  17.900
   86BOLB   C2D 2062   8.310  12.340  18.140
   86BOLB   C3D 2063   8.680  12.210  18.360
   86BOLB   C4D 2064   9.230  12.270  18.270
   87BOLB   NC1 2065  22.810  25.820  18.020
   87BOLB   PO1 2066  23.090  25.430  18.060
   87BOLB   GL1 2067  22.730  25.080  18.090
   87BOLB   GL2 2068  22.960  25.040  18.310
   87BOLB   C1A 2069  22.590  24.690  18.030
   87BOLB   C2A 2070  22.250  24.390  18.010
   87BOLB   C3A 2071  22.160  24.000  18.240
   87BOLB   C4A 2072  21.860  23.720  18.430
   87BOLB   C1B 2073  23.000  24.580  18.490
   87BOLB   C2B 2074  22.960  24.150  18.570
   87BOLB   C3B 2075  22.930  23.680  18.640
   87BOLB   C4B 2076  22.630  23.460  18.870
   87BOLB   NC2 2077  22.650  24.260  20.220
   87BOLB   PO2 2078  23.030  24.200  20.270
   87BOLB   GL3 2079  22.910  23.930  19.940
   87BOLB   GL4 2080  23.120  23.900  19.800
   87BOLB   C1C 2081  22.560  23.880  19.710
   87BOLB   C2C 2082  22.530  23.730  19.320
   87BOLB   C3C 2083  22.160  23.520  19.130
   87BOLB   C4C 2084  21.930  23.480  18.780
   87BOLB   C1D 2085  23.370  23.650  19.710
   87BOLB   C2D 2086  23.670  23.350  19.440
   87BOLB   C3D 2087  23.730  23.130  19.040
   87BOLB   C4D 2088  23.880  22.890  18.630
   88BOLB   NC1 2089  16.480   6.550  17.590
   88BOLB   PO1 2090  16.640   6.420  17.920
   88BOLB   GL1 2091  16.550   5.940  18.140
   88BOLB   GL2 2092  16.810   5.760  18.300
   88BOLB   C1A 2093  16.200   5.980  18.420
   88BOLB   C2A 2094  15.930   5.940  18.850
   88BOLB   C3A 2095  15.770   5.810  19.240
   88BOLB   C4A 2096  15.710   5.730  19.600
   88BOLB   C1B 2097  16.480   5.480  18.350
   88BOLB   C2B 2098  16.440   5.080  18.360
   88BOLB   C3B 2099  16.200   4.600  18.340
   88BOLB   C4B 2100  16.060   4.350  17.970
   88BOLB   NC2 2101  15.680   4.460  21.150
   88BOLB   PO2 2102  15.400   4.570  21.490
   88BOLB   GL3 2103  15.450   4.840  21.330
   88BOLB   GL4 2104  15.580   5.060  21.260
   88BOLB   C1C 2105  15.360   5.030  20.890
   88BOLB   C2C 2106  15.330   5.490  20.620
   88BOLB   C3C 2107  15.180   5.480  20.130
   88BOLB   C4C 2108  15.350   5.710  19.870
   88BOLB   C1D 2109  15.940   5.060  21.080
   88BOLB   C2D 2110  15.790   5.190  20.720
   88BOLB   C3D 2111  15.820   5.240  20.320
   88BOLB   C4D 2112  15.680   5.280  19.940
   89BOLB   NC1 2113  14.570  13.800  23.840
   89BOLB   PO1 2114  14.330  13.430  23.660
   89BOLB   GL1 2115  14.560  13.490  23.300
   89BOLB   GL2 2116  14.720  13.720  23.400
   89BOLB   C1A 2117  14.450  13.680  22.920
   89BOLB   C2A 2118  14.370  13.760  22.470
   89BOLB   C3A 2119  14.270  13.490  22.050
   89BOLB   C4A 2120  13.970  13.280  21.970
   89BOLB   C1B 2121  14.860  13.960  23.060
   89BOLB   C2B 2122  14.840  13.980  22.670
   89BOLB   C3B 2123  14.890  13.730  22.230
   89BOLB   C4B 2124  14.830  13.350  21.970
   89BOLB   NC2 2125  12.740  13.170  23.370
   89BOLB   PO2 2126  12.570  13.380  23.030
   89BOLB   GL3 2127  12.520  13.510  22.520
   89BOLB   GL4 2128  12.880  13.510  22.430
   89BOLB   C1C 2129  12.570  13.440  22.080
   89BOLB   C2C 2130  12.850  13.210  21.960
   89BOLB   C3C 2131  13.110  13.130  21.870
   89BOLB   C4C 2132  13.570  13.140  21.970
   89BOLB   C1D 2133  13.180  13.600  22.050
   89BOLB   C2D 2134  13.270  13.840  21.730
   89BOLB   C3D 2135  13.610  14.000  21.420
   89BOLB   C4D 2136  13.770  14.260  21.080
   90BOLB   NC1 2137  18.430   6.670  19.270
   90BOLB   PO1 2138  18.890   6.690  19.090
   90BOLB   GL1 2139  18.840   6.330  19.330
   90BOLB   GL2 2140  19.160   6.180  19.310
   90BOLB   C1A 2141  18.650   5.970  19.490
   90BOLB   C2A 2142  18.220   5.940  19.760
   90BOLB   C3A 2143  17.970   5.730  19.930
   90BOLB   C4A 2144  17.940   5.340  19.880
   90BOLB   C1B 2145  19.110   5.810  19.660
   90BOLB   C2B 2146  18.720   5.570  19.860
   90BOLB   C3B 2147  18.400   5.360  20.040
   90BOLB   C4B 2148  18.200   4.930  20.220
   90BOLB   NC2 2149  16.370   3.220  21.050
   90BOLB   PO2 2150  16.770   3.390  21.040
   90BOLB   GL3 2151  17.010   3.570  20.730
   90BOLB   GL4 2152  16.740   3.650  20.580
   90BOLB   C1C 2153  17.260   3.710  20.300
   90BOLB   C2C 2154  17.570   4.110  20.090
   90BOLB   C3C 2155  17.660   4.550  20.000
   90BOLB   C4C 2156  17.820   4.950  19.830
   90BOLB   C1D 2157  16.790   3.960  20.280
   90BOLB   C2D 2158  16.730   4.230  19.960
   90BOLB   C3D 2159  16.920   4.230  19.460
   90BOLB   C4D 2160  17.080   3.860  19.280
   91BOLB   NC1 2161  11.960  19.540  11.750
   91BOLB   PO1 2162  11.910  19.120  11.890
   91BOLB   GL1 2163  11.490  19.280  11.880
   91BOLB   GL2 2164  11.470  19.410  11.680
   91BOLB   C1A 2165  11.090  19.250  11.880
   91BOLB   C2A 2166  10.750  19.580  11.800
   91BOLB   C3A 2167  10.490  19.770  11.880
   91BOLB   C4A 2168  10.400  20.200  11.620
   91BOLB   C1B 2169  11.210  19.640  11.490
   91BOLB   C2B 2170  10.870  19.850  11.350
   91BOLB   C3B 2171  10.640  20.220  11.190
   91BOLB   C4B 2172  10.190  20.380  11.070
   91BOLB   NC2 2173   8.490  20.880  10.620
   91BOLB   PO2 2174   8.110  20.700  10.780
   91BOLB   GL3 2175   8.430  20.540  10.960
   91BOLB   GL4 2176   8.470  20.210  11.050
   91BOLB   C1C 2177   8.970  20.590  10.940
   91BOLB   C2C 2178   9.450  20.600  11.090
   91BOLB   C3C 2179   9.780  20.690  11.410
   91BOLB   C4C 2180  10.120  20.490  11.550
   91BOLB   C1D 2181   8.890  20.070  10.890
   91BOLB   C2D 2182   9.360  19.990  10.980
   91BOLB   C3D 2183   9.550  19.690  11.150
   91BOLB   C4D 2184   9.400  19.340  11.120
   92BOLB   NC1 2185  25.040  11.620  23.860
   92BOLB   PO1 2186  24.840  11.340  23.820
   92BOLB   GL1 2187  24.750  11.450  23.370
   92BOLB   GL2 2188  24.370  11.430  23.340
   92BOLB   C1A 2189  24.790  11.580  22.850
   92BOLB   C2A 2190  24.950  11.360  22.510
   92BOLB   C3A 2191  24.890  11.040  22.110
   92BOLB   C4A 2192  25.200  11.100  21.780
   92BOLB   C1B 2193  24.280  11.360  22.850
   92BOLB   C2B 2194  24.460  11.420  22.400
   92BOLB   C3B 2195  24.420  11.590  22.010
   92BOLB   C4B 2196  24.130  11.900  21.730
   92BOLB   NC2 2197  26.370  10.450  23.190
   92BOLB   PO2 2198  26.440  10.780  23.260
   92BOLB   GL3 2199  26.550  10.720  22.800
   92BOLB   GL4 2200  26.910  10.710  22.650
   92BOLB   C1C 2201  26.320  11.050  22.440
   92BOLB   C2C 2202  26.330  11.330  22.080
   92BOLB   C3C 2203  26.000  11.440  21.830
   92BOLB   C4C 2204  25.550  11.310  21.710
   92BOLB   C1D 2205  26.650  10.550  22.270
   92BOLB   C2D 2206  26.180  10.580  21.970
   92BOLB   C3D 2207  26.010  10.630  21.500
   92BOLB   C4D 2208  25.830  10.520  21.160
   93BOLB   NC1 2209  17.650   6.170  18.600
   93BOLB   PO1 2210  17.420   6.130  18.170
   93BOLB   GL1 2211  17.200   5.930  18.520
   93BOLB   GL2 2212  17.410   5.750  18.810
   93BOLB   C1A 2213  16.930   5.550  18.700
   93BOLB   C2A 2214  16.920   5.110  18.870
   93BOLB   C3A 2215  16.950   4.780  19.260
   93BOLB   C4A 2216  16.650   4.610  19.530
   93BOLB   C1B 2217  17.340   5.440  19.070
   93BOLB   C2B 2218  17.160   5.230  19.360
   93BOLB   C3B 2219  16.980   4.950  19.750
   93BOLB   C4B 2220  16.850   4.800  20.170
   93BOLB   NC2 2221  17.910   2.300  19.610
   93BOLB   PO2 2222  17.560   2.510  19.680
   93BOLB   GL3 2223  17.350   2.770  19.460
   93BOLB   GL4 2224  17.150   2.810  19.100
   93BOLB   C1C 2225  17.230   3.220  19.330
   93BOLB   C2C 2226  16.940   3.480  19.560
   93BOLB   C3C 2227  16.600   3.840  19.570
   93BOLB   C4C 2228  16.420   4.250  19.540
   93BOLB   C1D 2229  17.480   2.910  18.760
   93BOLB   C2D 2230  17.880   3.040  18.560
   93BOLB   C3D 2231  18.380   3.030  18.370
   93BOLB   C4D 2232  18.660   3.270  18.340
   94BOLB   NC1 2233  13.590  21.710  13.690
   94BOLB   PO1 2234  13.590  22.120  13.620
   94BOLB   GL1 2235  13.340  22.440  13.810
   94BOLB   GL2 2236  13.050  22.670  13.790
   94BOLB   C1A 2237  13.150  22.620  14.280
   94BOLB   C2A 2238  13.040  22.950  14.610
   94BOLB   C3A 2239  13.120  23.310  14.640
   94BOLB   C4A 2240  13.070  23.630  14.500
   94BOLB   C1B 2241  12.950  23.080  13.610
   94BOLB   C2B 2242  12.960  23.440  13.400
   94BOLB   C3B 2243  12.960  23.830  13.510
   94BOLB   C4B 2244  12.790  24.100  13.930
   94BOLB   NC2 2245  11.750  25.680  14.060
   94BOLB   PO2 2246  11.600  25.480  13.800
   94BOLB   GL3 2247  11.920  25.190  13.740
   94BOLB   GL4 2248  12.090  25.070  13.400
   94BOLB   C1C 2249  12.090  24.970  14.000
   94BOLB   C2C 2250  12.140  24.560  14.060
   94BOLB   C3C 2251  12.410  24.210  14.340
   94BOLB   C4C 2252  12.720  23.840  14.430
   94BOLB   C1D 2253  12.340  24.780  13.660
   94BOLB   C2D 2254  12.670  24.710  13.890
   94BOLB   C3D 2255  12.920  24.580  14.340
   94BOLB   C4D 2256  13.100  24.130  14.630
   95BOLB   NC1 2257  12.190   9.560  14.860
   95BOLB   PO1 2258  11.690   9.740  14.850
   95BOLB   GL1 2259  11.380   9.460  14.940
   95BOLB   GL2 2260  11.430   9.130  14.960
   95BOLB   C1A 2261  11.000   9.400  14.870
   95BOLB   C2A 2262  10.610   9.120  14.860
   95BOLB   C3A 2263  10.200   8.960  14.840
   95BOLB   C4A 2264   9.770   9.120  15.050
   95BOLB   C1B 2265  10.980   8.860  15.020
   95BOLB   C2B 2266  10.560   8.640  14.950
   95BOLB   C3B 2267  10.160   8.390  14.890
   95BOLB   C4B 2268   9.760   8.160  14.820
   95BOLB   NC2 2269   7.300   8.720  15.820
   95BOLB   PO2 2270   7.460   8.860  15.340
   95BOLB   GL3 2271   7.860   9.020  15.350
   95BOLB   GL4 2272   7.920   9.440  15.410
   95BOLB   C1C 2273   8.280   9.020  15.230
   95BOLB   C2C 2274   8.640   9.060  15.260
   95BOLB   C3C 2275   8.960   9.280  15.360
   95BOLB   C4C 2276   9.400   9.330  15.380
   95BOLB   C1D 2277   8.370   9.490  15.390
   95BOLB   C2D 2278   8.750   9.680  15.160
   95BOLB   C3D 2279   9.170   9.730  15.190
   95BOLB   C4D 2280   9.530   9.860  15.420
   96BOLB   NC1 2281  20.120  22.810  10.210
   96BOLB   PO1 2282  19.670  23.030  10.190
   96BOLB   GL1 2283  19.570  23.360   9.970
   96BOLB   GL2 2284  19.580  23.360   9.730
   96BOLB   C1A 2285  19.400  23.790   9.840
   96BOLB   C2A 2286  19.500  24.170   9.660
   96BOLB   C3A 2287  19.390  24.580   9.440
   96BOLB   C4A 2288  19.280  24.810   9.030
   96BOLB   C1B 2289  19.450  23.540   9.410
   96BOLB   C2B 2290  19.430  23.650   8.980
   96BOLB   C3B 2291  19.480  23.680   8.560
   96BOLB   C4B 2292  19.510  23.780   8.160
   96BOLB   NC2 2293  19.390  27.420   8.580
   96BOLB   PO2 2294  19.360  27.070   8.840
   96BOLB   GL3 2295  19.380  26.640   8.920
   96BOLB   GL4 2296  19.440  26.520   9.290
   96BOLB   C1C 2297  19.620  26.190   8.960
   96BOLB   C2C 2298  19.620  25.900   8.800
   96BOLB   C3C 2299  19.620  25.600   8.950
   96BOLB   C4C 2300  19.420  25.250   8.790
   96BOLB   C1D 2301  19.070  26.350   9.240
   96BOLB   C2D 2302  19.110  25.940   9.040
   96BOLB   C3D 2303  19.070  25.490   9.030
   96BOLB   C4D 2304  18.930  25.070   8.700
   97BOLB   NC1 2305  14.790   9.530  19.340
   97BOLB   PO1 2306  14.520   9.540  19.390
   97BOLB   GL1 2307  14.130   9.610  19.720
   97BOLB   GL2 2308  14.130   9.970  19.820
   97BOLB   C1A 2309  13.760   9.660  19.810
   97BOLB   C2A 2310  13.410   9.680  20.090
   97BOLB   C3A 2311  13.250   9.530  20.490
   97BOLB   C4A 2312  13.400   9.470  20.910
   97BOLB   C1B 2313  13.950   9.800  20.220
   97BOLB   C2B 2314  13.750   9.490  20.470
   97BOLB   C3B 2315  13.730   9.080  20.490
   97BOLB   C4B 2316  13.430   8.990  20.700
   97BOLB   NC2 2317  12.280   8.610  22.590
   97BOLB   PO2 2318  12.580   8.370  22.810
   97BOLB   GL3 2319  12.760   8.500  22.490
   97BOLB   GL4 2320  12.930   8.330  22.270
   97BOLB   C1C 2321  12.770   8.830  22.150
   97BOLB   C2C 2322  12.870   8.990  21.800
   97BOLB   C3C 2323  13.010   9.040  21.460
   97BOLB   C4C 2324  13.260   9.310  21.250
   97BOLB   C1D 2325  13.100   8.550  21.960
   97BOLB   C2D 2326  13.460   8.770  21.720
   97BOLB   C3D 2327  13.870   8.750  21.520
   97BOLB   C4D 2328  14.220   8.770  21.160
   98BOLB   NC1 2329  20.870  22.580   9.620
   98BOLB   PO1 2330  20.400  22.560   9.730
   98BOLB   GL1 2331  20.160  23.010   9.730
   98BOLB   GL2 2332  20.130  23.240   9.910
   98BOLB   C1A 2333  20.020  23.330   9.330
   98BOLB   C2A 2334  19.960  23.620   9.100
   98BOLB   C3A 2335  20.070  23.820   8.710
   98BOLB   C4A 2336  19.870  24.120   8.500
   98BOLB   C1B 2337  20.260  23.540   9.740
   98BOLB   C2B 2338  19.920  23.830   9.590
   98BOLB   C3B 2339  19.720  24.050   9.180
   98BOLB   C4B 2340  19.460  24.270   8.920
   98BOLB   NC2 2341  20.310  26.070   7.660
   98BOLB   PO2 2342  20.080  25.960   7.290
   98BOLB   GL3 2343  19.940  25.670   7.600
   98BOLB   GL4 2344  19.890  25.810   7.900
   98BOLB   C1C 2345  19.550  25.400   7.580
   98BOLB   C2C 2346  19.600  25.010   7.760
   98BOLB   C3C 2347  19.570  24.750   8.060
   98BOLB   C4C 2348  19.560  24.280   8.240
   98BOLB   C1D 2349  19.970  25.720   8.330
   98BOLB   C2D 2350  19.850  25.440   8.500
   98BOLB   C3D 2351  19.850  25.030   8.510
   98BOLB   C4D 2352  19.780  24.570   8.600
   99BOLB   NC1 2353  21.970  17.940  23.840
   99BOLB   PO1 2354  22.150  17.690  24.110
   99BOLB   GL1 2355  22.160  17.250  23.780
   99BOLB   GL2 2356  22.230  16.970  23.840
   99BOLB   C1A 2357  22.130  16.870  23.350
   99BOLB   C2A 2358  22.180  16.540  22.930
   99BOLB   C3A 2359  22.030  16.550  22.470
   99BOLB   C4A 2360  21.850  16.950  22.400
   99BOLB   C1B 2361  22.570  17.120  23.520
   99BOLB   C2B 2362  23.000  17.350  23.450
   99BOLB   C3B 2363  23.390  17.510  23.380
   99BOLB   C4B 2364  23.740  17.350  23.150
   99BOLB   NC2 2365  22.140  18.630  23.500
   99BOLB   PO2 2366  22.240  18.170  23.480
   99BOLB   GL3 2367  21.800  18.190  23.270
   99BOLB   GL4 2368  21.580  17.980  23.510
   99BOLB   C1C 2369  21.560  18.200  22.900
   99BOLB   C2C 2370  21.340  17.940  22.770
   99BOLB   C3C 2371  21.400  17.560  22.580
   99BOLB   C4C 2372  21.640  17.360  22.350
   99BOLB   C1D 2373  21.310  17.600  23.580
   99BOLB   C2D 2374  21.270  17.170  23.400
   99BOLB   C3D 2375  21.260  16.970  23.110
   99BOLB   C4D 2376  21.060  17.110  22.730
  100BOLB   NC1 2377  25.590   7.370  16.950
  100BOLB   PO1 2378  25.730   7.420  16.520
  100BOLB   GL1 2379  26.070   7.320  16.670
  100BOLB   GL2 2380  26.270   7.320  16.470
  100BOLB   C1A 2381  26.390   7.130  16.990
  100BOLB   C2A 2382  26.740   6.820  17.100
  100BOLB   C3A 2383  27.160   6.790  17.100
  100BOLB   C4A 2384  27.380   6.490  16.920
  100BOLB   C1B 2385  26.670   7.050  16.560
  100BOLB   C2B 2386  26.960   6.780  16.670
  100BOLB   C3B 2387  26.910   6.370  16.760
  100BOLB   C4B 2388  27.060   5.900  16.660
  100BOLB   NC2 2389  29.260   5.330  17.100
  100BOLB   PO2 2390  29.500   5.600  16.810
  100BOLB   GL3 2391  29.400   6.020  16.850
  100BOLB   GL4 2392  29.090   5.950  17.130
  100BOLB   C1C 2393  29.050   6.200  16.590
  100BOLB   C2C 2394  28.650   6.500  16.580
  100BOLB   C3C 2395  28.230   6.490  16.600
  100BOLB   C4C 2396  27.780   6.540  16.790
  100BOLB   C1D 2397  28.660   6.000  16.870
  100BOLB   C2D 2398  28.140   6.030  16.940
  100BOLB   C3D 2399  27.910   5.700  16.600
  100BOLB   C4D 2400  27.650   5.480  16.580
  101BOLB   NC1 2401  14.590   7.520  18.700
  101BOLB   PO1 2402  14.410   7.700  18.350
  101BOLB   GL1 2403  14.160   7.940  18.680
  101BOLB   GL2 2404  14.410   8.150  18.850
  101BOLB   C1A 2405  13.900   7.690  18.970
  101BOLB   C2A 2406  14.120   7.440  19.220
  101BOLB   C3A 2407  13.920   7.130  19.420
  101BOLB   C4A 2408  13.840   6.730  19.540
  101BOLB   C1B 2409  14.260   7.950  19.210
  101BOLB   C2B 2410  14.120   7.940  19.610
  101BOLB   C3B 2411  13.970   7.670  19.900
  101BOLB   C4B 2412  13.830   7.410  20.290
  101BOLB   NC2 2413  12.400   4.600  19.530
  101BOLB   PO2 2414  12.460   4.950  19.860
  101BOLB   GL3 2415  12.540   5.180  19.610
  101BOLB   GL4 2416  12.720   5.010  19.370
  101BOLB   C1C 2417  12.690   5.580  19.510
  101BOLB   C2C 2418  12.880   5.870  19.200
  101BOLB   C3C 2419  13.280   6.100  19.150
  101BOLB   C4C 2420  13.660   6.390  19.200
  101BOLB   C1D 2421  12.710   4.950  18.950
  101BOLB   C2D 2422  13.080   5.110  18.810
  101BOLB   C3D 2423  13.300   5.330  18.490
  101BOLB   C4D 2424  13.380   5.730  18.560
  102BOLB   NC1 2425  18.990  16.620  20.180
  102BOLB   PO1 2426  19.380  16.700  20.140
  102BOLB   GL1 2427  19.310  16.400  20.450
  102BOLB   GL2 2428  19.150  16.680  20.690
  102BOLB   C1A 2429  19.250  16.120  20.830
  102BOLB   C2A 2430  18.960  16.230  21.270
  102BOLB   C3A 2431  18.730  16.710  21.470
  102BOLB   C4A 2432  18.470  16.810  21.810
  102BOLB   C1B 2433  19.390  16.590  20.980
  102BOLB   C2B 2434  19.220  16.660  21.430
  102BOLB   C3B 2435  19.150  16.540  21.730
  102BOLB   C4B 2436  18.860  16.550  21.990
  102BOLB   NC2 2437  17.650  17.110  24.090
  102BOLB   PO2 2438  17.930  17.470  24.130
  102BOLB   GL3 2439  17.930  17.300  23.620
  102BOLB   GL4 2440  18.230  17.180  23.510
  102BOLB   C1C 2441  17.930  17.460  23.100
  102BOLB   C2C 2442  18.080  17.450  22.730
  102BOLB   C3C 2443  17.900  17.330  22.380
  102BOLB   C4C 2444  18.020  17.070  22.040
  102BOLB   C1D 2445  18.490  17.130  23.120
  102BOLB   C2D 2446  18.630  17.040  22.550
  102BOLB   C3D 2447  18.580  17.240  22.250
  102BOLB   C4D 2448  18.360  17.630  22.240
  103BOLB   NC1 2449  12.000   9.030  15.680
  103BOLB   PO1 2450  12.120   8.710  15.950
  103BOLB   GL1 2451  11.770   8.950  16.180
  103BOLB   GL2 2452  11.490   8.850  15.950
  103BOLB   C1A 2453  11.400   8.940  16.470
  103BOLB   C2A 2454  10.990   8.860  16.640
  103BOLB   C3A 2455  10.760   9.010  17.010
  103BOLB   C4A 2456  10.590   9.140  17.420
  103BOLB   C1B 2457  11.270   8.590  15.800
  103BOLB   C2B 2458  10.810   8.320  15.790
  103BOLB   C3B 2459  10.550   8.060  16.010
  103BOLB   C4B 2460  10.280   7.870  16.320
  103BOLB   NC2 2461   9.020   7.350  18.720
  103BOLB   PO2 2462   9.050   7.720  18.450
  103BOLB   GL3 2463   9.450   8.050  18.240
  103BOLB   GL4 2464   9.300   8.230  18.440
  103BOLB   C1C 2465   9.770   8.330  18.410
  103BOLB   C2C 2466  10.020   8.690  18.310
  103BOLB   C3C 2467  10.310   8.960  18.050
  103BOLB   C4C 2468  10.300   8.950  17.610
  103BOLB   C1D 2469   9.330   8.590  18.510
  103BOLB   C2D 2470   9.600   8.940  18.530
  103BOLB   C3D 2471   9.900   9.240  18.300
  103BOLB   C4D 2472  10.140   9.720  18.210
  104BOLB   NC1 2473  17.600  21.640  22.270
  104BOLB   PO1 2474  17.270  21.840  22.010
  104BOLB   GL1 2475  17.260  21.580  21.610
  104BOLB   GL2 2476  17.080  21.730  21.410
  104BOLB   C1A 2477  17.520  21.260  21.490
  104BOLB   C2A 2478  17.590  20.820  21.450
  104BOLB   C3A 2479  17.740  20.380  21.510
  104BOLB   C4A 2480  17.690  19.930  21.610
  104BOLB   C1B 2481  17.550  21.700  21.190
  104BOLB   C2B 2482  17.990  21.940  21.260
  104BOLB   C3B 2483  18.430  22.080  21.240
  104BOLB   C4B 2484  18.770  22.350  21.100
  104BOLB   NC2 2485  17.430  19.720  23.750
  104BOLB   PO2 2486  17.340  19.740  23.290
  104BOLB   GL3 2487  17.140  19.350  23.090
  104BOLB   GL4 2488  16.810  19.360  22.990
  104BOLB   C1C 2489  17.180  19.020  22.760
  104BOLB   C2C 2490  17.410  19.030  22.440
  104BOLB   C3C 2491  17.460  19.320  22.090
  104BOLB   C4C 2492  17.510  19.610  21.800
  104BOLB   C1D 2493  17.060  19.440  22.590
  104BOLB   C2D 2494  16.950  19.320  22.160
  104BOLB   C3D 2495  17.030  19.200  21.740
  104BOLB   C4D 2496  17.070  19.310  21.310
  105BOLB   NC1 2497  23.270  19.830  18.260
  105BOLB   PO1 2498  22.940  19.950  18.550
  105BOLB   GL1 2499  23.300  19.940  18.780
  105BOLB   GL2 2500  23.480  19.640  18.800
  105BOLB   C1A 2501  23.450  20.160  19.090
  105BOLB   C2A 2502  23.480  20.380  19.430
  105BOLB   C3A 2503  23.680  20.550  19.780
  105BOLB   C4A 2504  23.600  20.470  20.200
  105BOLB   C1B 2505  23.750  19.720  19.160
  105BOLB   C2B 2506  24.020  19.850  19.340
  105BOLB   C3B 2507  24.050  20.250  19.520
  105BOLB   C4B 2508  24.200  20.660  19.690
  105BOLB   NC2 2509  24.500  21.760  21.980
  105BOLB   PO2 2510  24.890  21.460  21.800
  105BOLB   GL3 2511  24.870  21.490  21.420
  105BOLB   GL4 2512  25.210  21.510  21.230
  105BOLB   C1C 2513  24.630  21.170  21.180
  105BOLB   C2C 2514  24.320  21.040  21.020
  105BOLB   C3C 2515  23.980  20.860  20.850
  105BOLB   C4C 2516  23.830  20.580  20.550
  105BOLB   C1D 2517  24.930  21.420  20.880
  105BOLB   C2D 2518  24.620  21.190  20.680
  105BOLB   C3D 2519  24.410  20.820  20.580
  105BOLB   C4D 2520  24.340  20.530  20.260
  106BOLB   NC1 2521  11.570  10.160  15.640
  106BOLB   PO1 2522  11.740   9.920  15.340
  106BOLB   GL1 2523  11.320   9.850  15.280
  106BOLB   GL2 2524  11.180   9.930  14.930
  106BOLB   C1A 2525  11.050   9.560  15.360
  106BOLB   C2A 2526  10.720   9.260  15.330
  106BOLB   C3A 2527  10.280   9.090  15.310
  106BOLB   C4A 2528   9.980   8.690  15.250
  106BOLB   C1B 2529  10.750   9.870  15.150
  106BOLB   C2B 2530  10.240  10.000  14.900
  106BOLB   C3B 2531   9.990  10.170  14.560
  106BOLB   C4B 2532   9.590  10.130  14.520
  106BOLB   NC2 2533   8.750   6.850  14.110
  106BOLB   PO2 2534   8.530   6.870  14.560
  106BOLB   GL3 2535   8.980   6.940  14.660
  106BOLB   GL4 2536   9.130   6.640  14.460
  106BOLB   C1C 2537   9.220   7.340  14.650
  106BOLB   C2C 2538   9.200   7.670  14.830
  106BOLB   C3C 2539   9.400   7.900  15.210
  106BOLB   C4C 2540   9.880   8.140  15.310
  106BOLB   C1D 2541   9.510   6.900  14.320
  106BOLB   C2D 2542   9.710   7.310  14.290
  106BOLB   C3D 2543   9.550   7.720  14.410
  106BOLB   C4D 2544   9.430   8.130  14.280
  107BOLB   NC1 2545  14.180   2.080  12.040
  107BOLB   PO1 2546  14.330   2.050  12.490
  107BOLB   GL1 2547  14.410   2.340  12.660
  107BOLB   GL2 2548  14.750   2.400  12.490
  107BOLB   C1A 2549  14.260   2.720  12.590
  107BOLB   C2A 2550  14.230   3.040  12.310
  107BOLB   C3A 2551  14.260   3.530  12.250
  107BOLB   C4A 2552  14.330   3.800  12.620
  107BOLB   C1B 2553  15.200   2.620  12.560
  107BOLB   C2B 2554  15.450   2.960  12.490
  107BOLB   C3B 2555  15.670   3.280  12.580
  107BOLB   C4B 2556  15.840   3.670  12.670
  107BOLB   NC2 2557  14.890   6.630  12.730
  107BOLB   PO2 2558  14.620   6.360  13.040
  107BOLB   GL3 2559  14.490   5.930  12.980
  107BOLB   GL4 2560  14.410   5.890  13.420
  107BOLB   C1C 2561  14.320   5.530  12.920
  107BOLB   C2C 2562  14.320   5.050  12.690
  107BOLB   C3C 2563  14.100   4.650  12.710
  107BOLB   C4C 2564  14.440   4.280  12.700
  107BOLB   C1D 2565  14.240   5.470  13.500
  107BOLB   C2D 2566  14.070   5.130  13.490
  107BOLB   C3D 2567  13.920   4.760  13.370
  107BOLB   C4D 2568  13.830   4.440  13.490
  108BOLB   NC1 2569  10.960   4.660  12.280
  108BOLB   PO1 2570  11.130   4.880  11.890
  108BOLB   GL1 2571  11.440   5.000  12.240
  108BOLB   GL2 2572  11.220   5.050  12.380
  108BOLB   C1A 2573  11.670   4.790  12.530
  108BOLB   C2A 2574  12.050   4.760  12.740
  108BOLB   C3A 2575  12.450   4.890  12.770
  108BOLB   C4A 2576  12.900   5.070  12.780
  108BOLB   C1B 2577  11.270   5.540  12.330
  108BOLB   C2B 2578  11.380   5.940  12.530
  108BOLB   C3B 2579  11.760   5.990  12.810
  108BOLB   C4B 2580  12.090   6.220  13.030
  108BOLB   NC2 2581  14.240   6.610  13.200
  108BOLB   PO2 2582  14.250   6.370  13.470
  108BOLB   GL3 2583  13.950   6.140  13.410
  108BOLB   GL4 2584  13.730   6.160  13.480
  108BOLB   C1C 2585  13.950   5.690  13.220
  108BOLB   C2C 2586  13.910   5.270  12.930
  108BOLB   C3C 2587  13.800   5.040  12.620
  108BOLB   C4C 2588  13.320   5.040  12.620
  108BOLB   C1D 2589  13.440   5.820  13.360
  108BOLB   C2D 2590  13.090   5.630  13.360
  108BOLB   C3D 2591  12.730   5.490  13.470
  108BOLB   C4D 2592  12.420   5.270  13.500
  109BOLB   NC1 2593  21.970  22.370  10.280
  109BOLB   PO1 2594  21.670  22.720  10.500
  109BOLB   GL1 2595  21.810  22.910  10.140
  109BOLB   GL2 2596  21.520  23.240   9.980
  109BOLB   C1A 2597  22.090  23.010   9.830
  109BOLB   C2A 2598  22.260  23.330   9.600
  109BOLB   C3A 2599  22.380  23.780   9.440
  109BOLB   C4A 2600  22.270  23.960   9.090
  109BOLB   C1B 2601  21.960  23.460  10.040
  109BOLB   C2B 2602  22.100  23.680  10.340
  109BOLB   C3B 2603  22.160  24.060  10.470
  109BOLB   C4B 2604  22.010  24.370  10.520
  109BOLB   NC2 2605  22.420  26.240   8.450
  109BOLB   PO2 2606  22.260  26.050   8.160
  109BOLB   GL3 2607  22.440  25.710   8.370
  109BOLB   GL4 2608  22.560  25.780   8.700
  109BOLB   C1C 2609  22.500  25.260   8.350
  109BOLB   C2C 2610  22.310  24.900   8.460
  109BOLB   C3C 2611  22.240  24.520   8.550
  109BOLB   C4C 2612  22.240  24.260   8.810
  109BOLB   C1D 2613  22.170  25.720   9.030
  109BOLB   C2D 2614  21.950  25.690   9.450
  109BOLB   C3D 2615  21.830  25.360   9.770
  109BOLB   C4D 2616  21.890  24.900  10.050
  110BOLB   NC1 2617  20.370   1.950  18.490
  110BOLB   PO1 2618  20.000   1.780  18.680
  110BOLB   GL1 2619  19.940   2.270  18.800
  110BOLB   GL2 2620  20.030   2.320  19.090
  110BOLB   C1A 2621  19.830   2.580  18.590
  110BOLB   C2A 2622  19.810   2.890  18.410
  110BOLB   C3A 2623  19.580   3.020  18.060
  110BOLB   C4A 2624  19.510   2.920  17.610
  110BOLB   C1B 2625  20.220   2.670  18.900
  110BOLB   C2B 2626  20.290   3.030  18.770
  110BOLB   C3B 2627  20.190   3.300  18.470
  110BOLB   C4B 2628  19.790   3.430  18.300
  110BOLB   NC2 2629  19.210   0.780  16.600
  110BOLB   PO2 2630  19.620   0.890  16.350
  110BOLB   GL3 2631  19.570   1.410  16.400
  110BOLB   GL4 2632  19.670   1.630  16.720
  110BOLB   C1C 2633  19.500   1.850  16.260
  110BOLB   C2C 2634  19.310   2.130  16.600
  110BOLB   C3C 2635  19.290   2.400  16.980
  110BOLB   C4C 2636  19.290   2.590  17.270
  110BOLB   C1D 2637  19.850   2.010  16.610
  110BOLB   C2D 2638  19.680   2.300  16.330
  110BOLB   C3D 2639  19.850   2.430  15.910
  110BOLB   C4D 2640  20.080   2.210  15.580
  111BOLB   NC1 2641  10.460  15.890  15.560
  111BOLB   PO1 2642  10.260  15.590  15.760
  111BOLB   GL1 2643  10.000  15.720  16.070
  111BOLB   GL2 2644   9.860  15.530  16.390
  111BOLB   C1A 2645   9.610  15.890  16.000
  111BOLB   C2A 2646   9.600  16.060  16.230
  111BOLB   C3A 2647   9.450  16.110  16.550
  111BOLB   C4A 2648   9.120  16.020  16.700
  111BOLB   C1B 2649   9.630  15.600  16.760
  111BOLB   C2B 2650   9.170  15.520  16.860
  111BOLB   C3B 2651   8.630  15.640  16.840
  111BOLB   C4B 2652   8.360  15.830  17.110
  111BOLB   NC2 2653   6.930  16.270  17.590
  111BOLB   PO2 2654   6.660  16.310  17.230
  111BOLB   GL3 2655   7.140  16.290  17.160
  111BOLB   GL4 2656   7.020  16.060  16.910
  111BOLB   C1C 2657   7.560  16.450  17.200
  111BOLB   C2C 2658   7.990  16.490  17.060
  111BOLB   C3C 2659   8.440  16.330  17.150
  111BOLB   C4C 2660   8.790  16.080  16.940
  111BOLB   C1D 2661   7.400  15.980  16.930
  111BOLB   C2D 2662   7.730  16.080  16.920
  111BOLB   C3D 2663   8.170  16.060  16.740
  111BOLB   C4D 2664   8.620  16.170  16.420
  112BOLB   NC1 2665  14.070  24.630  18.920
  112BOLB   PO1 2666  13.750  24.670  18.610
  112BOLB   GL1 2667  13.730  24.340  18.420
  112BOLB   GL2 2668  13.420  24.140  18.620
  112BOLB   C1A 2669  13.930  24.120  18.060
  112BOLB   C2A 2670  14.100  23.910  17.690
  112BOLB   C3A 2671  14.110  23.560  17.320
  112BOLB   C4A 2672  14.200  23.480  16.890
  112BOLB   C1B 2673  13.790  23.880  18.650
  112BOLB   C2B 2674  13.850  23.410  18.680
  112BOLB   C3B 2675  13.980  23.030  18.790
  112BOLB   C4B 2676  13.800  22.670  18.960
  112BOLB   NC2 2677  13.800  24.700  18.130
  112BOLB   PO2 2678  13.810  25.080  17.760
  112BOLB   GL3 2679  14.130  25.250  17.500
  112BOLB   GL4 2680  14.450  25.080  17.620
  112BOLB   C1C 2681  14.280  25.120  17.110
  112BOLB   C2C 2682  14.150  24.770  16.740
  112BOLB   C3C 2683  14.080  24.310  16.740
  112BOLB   C4C 2684  14.150  23.900  16.700
  112BOLB   C1D 2685  14.350  24.720  17.420
  112BOLB   C2D 2686  14.510  24.590  17.030
  112BOLB   C3D 2687  14.960  24.400  16.790
  112BOLB   C4D 2688  15.280  24.580  16.540
  113BOLB   NC1 2689  22.550   3.200  21.000
  113BOLB   PO1 2690  22.790   3.090  20.710
  113BOLB   GL1 2691  22.600   3.420  20.470
  113BOLB   GL2 2692  22.690   3.610  20.140
  113BOLB   C1A 2693  22.310   3.820  20.370
  113BOLB   C2A 2694  22.180   4.080  20.220
  113BOLB   C3A 2695  21.960   4.320  19.850
  113BOLB   C4A 2696  21.750   4.630  19.590
  113BOLB   C1B 2697  22.580   3.870  19.800
  113BOLB   C2B 2698  22.470   4.270  19.610
  113BOLB   C3B 2699  22.230   4.590  19.350
  113BOLB   C4B 2700  21.940   4.810  19.070
  113BOLB   NC2 2701  21.050   6.230  17.890
  113BOLB   PO2 2702  21.400   6.330  17.790
  113BOLB   GL3 2703  21.390   5.920  17.990
  113BOLB   GL4 2704  21.360   5.660  17.820
  113BOLB   C1C 2705  21.290   5.850  18.440
  113BOLB   C2C 2706  21.380   5.650  18.830
  113BOLB   C3C 2707  21.420   5.220  18.940
  113BOLB   C4C 2708  21.400   4.820  19.260
  113BOLB   C1D 2709  21.670   5.440  18.190
  113BOLB   C2D 2710  21.830   5.150  18.510
  113BOLB   C3D 2711  22.120   4.800  18.580
  113BOLB   C4D 2712  22.340   4.510  18.770
  114BOLB   NC1 2713  11.560  19.070  15.460
  114BOLB   PO1 2714  11.590  19.250  15.110
  114BOLB   GL1 2715  11.130  19.210  15.150
  114BOLB   GL2 2716  11.140  19.330  14.880
  114BOLB   C1A 2717  10.680  19.370  15.100
  114BOLB   C2A 2718  10.390  19.530  15.340
  114BOLB   C3A 2719  10.410  19.910  15.550
  114BOLB   C4A 2720  10.330  20.350  15.560
  114BOLB   C1B 2721  10.990  19.700  14.730
  114BOLB   C2B 2722  10.820  20.200  14.700
  114BOLB   C3B 2723  10.980  20.630  14.770
  114BOLB   C4B 2724  10.740  20.970  14.580
  114BOLB   NC2 2725   7.760  20.990  15.320
  114BOLB   PO2 2726   8.190  20.760  15.500
  114BOLB   GL3 2727   8.590  20.640  15.300
  114BOLB   GL4 2728   8.800  20.910  15.100
  114BOLB   C1C 2729   8.840  20.310  15.340
  114BOLB   C2C 2730   9.330  20.280  15.360
  114BOLB   C3C 2731   9.670  20.420  15.200
  114BOLB   C4C 2732  10.060  20.460  15.350
  114BOLB   C1D 2733   8.910  21.140  15.500
  114BOLB   C2D 2734   8.970  21.130  15.980
  114BOLB   C3D 2735   9.200  21.050  16.350
  114BOLB   C4D 2736   8.910  20.800  16.550
  115BOLB   NC1 2737  15.110   2.340  18.200
  115BOLB   PO1 2738  15.510   2.350  18.090
  115BOLB   GL1 2739  15.480   2.730  18.340
  115BOLB   GL2 2740  15.780   2.870  18.140
  115BOLB   C1A 2741  15.720   3.050  18.640
  115BOLB   C2A 2742  15.850   3.540  18.560
  115BOLB   C3A 2743  16.140   3.850  18.500
  115BOLB   C4A 2744  16.130   4.290  18.720
  115BOLB   C1B 2745  15.720   3.370  18.070
  115BOLB   C2B 2746  15.460   3.730  18.060
  115BOLB   C3B 2747  15.230   4.080  18.210
  115BOLB   C4B 2748  14.920   4.490  18.120
  115BOLB   NC2 2749  15.750   3.210  20.330
  115BOLB   PO2 2750  15.410   3.440  20.530
  115BOLB   GL3 2751  15.370   3.730  20.250
  115BOLB   GL4 2752  15.480   3.550  19.990
  115BOLB   C1C 2753  15.220   3.950  19.830
  115BOLB   C2C 2754  15.360   4.310  19.530
  115BOLB   C3C 2755  15.690   4.600  19.270
  115BOLB   C4C 2756  16.140   4.450  19.120
  115BOLB   C1D 2757  15.720   3.910  19.830
  115BOLB   C2D 2758  15.740   4.330  19.890
  115BOLB   C3D 2759  15.610   4.730  19.880
  115BOLB   C4D 2760  16.010   4.960  19.890
  116BOLB   NC1 2761  10.450  23.840  11.090
  116BOLB   PO1 2762  10.050  23.650  11.140
  116BOLB   GL1 2763  10.250  23.440  11.500
  116BOLB   GL2 2764  10.530  23.450  11.420
  116BOLB   C1A 2765  10.410  23.280  11.870
  116BOLB   C2A 2766  10.430  22.800  12.040
  116BOLB   C3A 2767  10.600  22.940  12.450
  116BOLB   C4A 2768  10.860  23.000  12.680
  116BOLB   C1B 2769  10.890  23.160  11.620
  116BOLB   C2B 2770  10.940  23.350  12.080
  116BOLB   C3B 2771  10.940  23.760  12.160
  116BOLB   C4B 2772  11.120  24.050  12.380
  116BOLB   NC2 2773  10.240  24.520  13.130
  116BOLB   PO2 2774  10.490  24.790  13.400
  116BOLB   GL3 2775  10.780  24.480  13.250
  116BOLB   GL4 2776  10.740  24.190  13.340
  116BOLB   C1C 2777  10.960  24.260  12.890
  116BOLB   C2C 2778  11.390  23.920  12.890
  116BOLB   C3C 2779  11.480  23.500  12.810
  116BOLB   C4C 2780  11.280  23.180  12.970
  116BOLB   C1D 2781  11.120  24.120  13.380
  116BOLB   C2D 2782  11.500  23.810  13.380
  116BOLB   C3D 2783  11.740  23.350  13.280
  116BOLB   C4D 2784  11.760  23.120  12.920
  117BOLB   NC1 2785  21.190   6.800  10.060
  117BOLB   PO1 2786  20.810   6.990   9.750
  117BOLB   GL1 2787  20.720   6.960   9.430
  117BOLB   GL2 2788  20.960   6.750   9.270
  117BOLB   C1A 2789  20.500   6.930   9.030
  117BOLB   C2A 2790  20.310   6.930   8.530
  117BOLB   C3A 2791  20.290   6.680   8.220
  117BOLB   C4A 2792  19.960   6.850   7.920
  117BOLB   C1B 2793  21.030   6.420   9.160
  117BOLB   C2B 2794  21.190   5.990   9.000
  117BOLB   C3B 2795  21.170   5.700   8.630
  117BOLB   C4B 2796  20.840   5.840   8.330
  117BOLB   NC2 2797  21.280   5.330   6.200
  117BOLB   PO2 2798  21.140   5.690   6.320
  117BOLB   GL3 2799  21.020   5.750   6.660
  117BOLB   GL4 2800  20.710   5.840   6.670
  117BOLB   C1C 2801  21.040   5.860   7.070
  117BOLB   C2C 2802  20.670   6.050   7.290
  117BOLB   C3C 2803  20.320   6.410   7.300
  117BOLB   C4C 2804  20.060   6.750   7.470
  117BOLB   C1D 2805  20.660   5.560   7.060
  117BOLB   C2D 2806  20.600   5.620   7.520
  117BOLB   C3D 2807  20.620   5.650   7.870
  117BOLB   C4D 2808  21.030   5.490   7.920
  118BOLB   NC1 2809  24.330   9.010  19.110
  118BOLB   PO1 2810  24.820   8.890  18.890
  118BOLB   GL1 2811  24.910   8.760  19.270
  118BOLB   GL2 2812  24.800   8.500  19.270
  118BOLB   C1A 2813  25.130   8.870  19.600
  118BOLB   C2A 2814  25.170   8.740  20.000
  118BOLB   C3A 2815  25.280   8.880  20.400
  118BOLB   C4A 2816  25.160   8.910  20.850
  118BOLB   C1B 2817  25.100   8.390  19.600
  118BOLB   C2B 2818  25.250   8.010  19.920
  118BOLB   C3B 2819  25.250   7.770  20.280
  118BOLB   C4B 2820  25.470   7.510  20.540
  118BOLB   NC2 2821  26.510   8.130  22.570
  118BOLB   PO2 2822  26.070   8.260  22.650
  118BOLB   GL3 2823  25.590   8.320  22.600
  118BOLB   GL4 2824  25.360   8.350  22.860
  118BOLB   C1C 2825  25.430   8.570  22.420
  118BOLB   C2C 2826  25.160   8.650  22.040
  118BOLB   C3C 2827  24.940   8.490  21.630
  118BOLB   C4C 2828  25.100   8.620  21.270
  118BOLB   C1D 2829  25.060   8.780  22.760
  118BOLB   C2D 2830  25.220   9.360  22.580
  118BOLB   C3D 2831  25.220   9.630  22.220
  118BOLB   C4D 2832  25.260  10.020  22.150
  119BOLB   NC1 2833  28.560  13.000  14.990
  119BOLB   PO1 2834  28.730  12.540  14.830
  119BOLB   GL1 2835  29.090  12.430  14.860
  119BOLB   GL2 2836  29.330  12.600  15.020
  119BOLB   C1A 2837  29.500  12.120  14.910
  119BOLB   C2A 2838  29.970  12.000  14.870
  119BOLB   C3A 2839  30.380  12.020  15.150
  119BOLB   C4A 2840  30.710  11.900  15.320
  119BOLB   C1B 2841  29.550  12.470  15.250
  119BOLB   C2B 2842  29.940  12.380  15.380
  119BOLB   C3B 2843  30.430  12.340  15.550
  119BOLB   C4B 2844  30.720  12.170  15.860
  119BOLB   NC2 2845  33.040  11.030  14.760
  119BOLB   PO2 2846  32.660  11.190  14.770
  119BOLB   GL3 2847  32.320  11.230  15.110
  119BOLB   GL4 2848  32.490  11.510  15.320
  119BOLB   C1C 2849  31.900  11.020  15.040
  119BOLB   C2C 2850  31.540  11.230  14.950
  119BOLB   C3C 2851  31.410  11.580  14.900
  119BOLB   C4C 2852  31.090  11.770  15.160
  119BOLB   C1D 2853  32.220  11.640  15.720
  119BOLB   C2D 2854  31.850  11.660  15.690
  119BOLB   C3D 2855  31.550  11.910  15.480
  119BOLB   C4D 2856  31.150  11.960  15.620
  120BOLB   NC1 2857  24.140   6.940  16.730
  120BOLB   PO1 2858  24.410   6.620  16.980
  120BOLB   GL1 2859  24.580   6.290  17.270
  120BOLB   GL2 2860  24.570   5.920  17.210
  120BOLB   C1A 2861  25.000   6.130  17.350
  120BOLB   C2A 2862  25.400   6.320  17.550
  120BOLB   C3A 2863  25.710   6.090  17.850
  120BOLB   C4A 2864  25.860   5.820  18.130
  120BOLB   C1B 2865  24.830   5.600  17.330
  120BOLB   C2B 2866  24.900   5.390  17.680
  120BOLB   C3B 2867  25.330   5.220  17.920
  120BOLB   C4B 2868  25.570   5.390  18.310
  120BOLB   NC2 2869  26.530   4.950  20.300
  120BOLB   PO2 2870  26.510   5.320  20.480
  120BOLB   GL3 2871  26.420   5.520  20.150
  120BOLB   GL4 2872  26.230   5.250  20.060
  120BOLB   C1C 2873  26.310   5.560  19.670
  120BOLB   C2C 2874  26.190   5.900  19.350
  120BOLB   C3C 2875  26.050   6.030  18.880
  120BOLB   C4C 2876  25.960   5.860  18.500
  120BOLB   C1D 2877  25.990   5.640  20.030
  120BOLB   C2D 2878  25.670   5.720  19.790
  120BOLB   C3D 2879  25.260   5.950  19.660
  120BOLB   C4D 2880  25.050   6.110  19.300
  121BOLB   NC1 2881  25.130   9.260  18.570
  121BOLB   PO1 2882  25.520   9.210  18.710
  121BOLB   GL1 2883  25.880   9.030  18.980
  121BOLB   GL2 2884  25.790   9.210  19.200
  121BOLB   C1A 2885  26.190   8.860  19.280
  121BOLB   C2A 2886  26.140   8.680  19.690
  121BOLB   C3A 2887  26.160   8.450  20.030
  121BOLB   C4A 2888  26.240   8.340  20.430
  121BOLB   C1B 2889  25.900   9.160  19.600
  121BOLB   C2B 2890  26.130   9.090  19.900
  121BOLB   C3B 2891  26.510   8.820  20.010
  121BOLB   C4B 2892  26.660   8.560  19.780
  121BOLB   NC2 2893  26.830   8.960  23.080
  121BOLB   PO2 2894  26.780   9.150  22.710
  121BOLB   GL3 2895  26.740   8.930  22.350
  121BOLB   GL4 2896  26.760   8.570  22.240
  121BOLB   C1C 2897  26.470   8.840  22.000
  121BOLB   C2C 2898  26.510   8.840  21.560
  121BOLB   C3C 2899  26.510   8.780  21.130
  121BOLB   C4C 2900  26.400   8.580  20.740
  121BOLB   C1D 2901  26.830   8.530  21.720
  121BOLB   C2D 2902  26.990   8.750  21.460
  121BOLB   C3D 2903  27.020   8.830  21.060
  121BOLB   C4D 2904  26.900   8.900  20.650
  122BOLB   NC1 2905  14.330  16.590  23.320
  122BOLB   PO1 2906  14.500  16.150  23.380
  122BOLB   GL1 2907  14.770  16.070  22.990
  122BOLB   GL2 2908  14.780  16.430  23.010
  122BOLB   C1A 2909  14.780  16.300  22.540
  122BOLB   C2A 2910  14.820  16.230  22.150
  122BOLB   C3A 2911  14.680  16.480  21.790
  122BOLB   C4A 2912  14.490  16.860  21.750
  122BOLB   C1B 2913  14.910  16.740  22.740
  122BOLB   C2B 2914  15.110  16.610  22.310
  122BOLB   C3B 2915  15.270  16.540  21.920
  122BOLB   C4B 2916  15.050  16.260  21.540
  122BOLB   NC2 2917  13.310  18.820  22.370
  122BOLB   PO2 2918  12.860  18.660  22.230
  122BOLB   GL3 2919  13.030  18.420  21.910
  122BOLB   GL4 2920  12.800  18.430  21.710
  122BOLB   C1C 2921  13.510  18.320  21.760
  122BOLB   C2C 2922  13.850  18.030  21.620
  122BOLB   C3C 2923  14.230  17.700  21.650
  122BOLB   C4C 2924  14.250  17.270  21.780
  122BOLB   C1D 2925  12.980  18.060  21.560
  122BOLB   C2D 2926  12.910  17.720  21.350
  122BOLB   C3D 2927  13.100  17.560  20.970
  122BOLB   C4D 2928  13.080  17.250  20.680
  123BOLB   NC1 2929  26.610   8.630  17.540
  123BOLB   PO1 2930  26.720   8.860  17.870
  123BOLB   GL1 2931  27.150   8.870  17.950
  123BOLB   GL2 2932  27.350   8.590  17.820
  123BOLB   C1A 2933  27.460   8.930  18.200
  123BOLB   C2A 2934  27.590   8.870  18.650
  123BOLB   C3A 2935  27.850   9.000  18.990
  123BOLB   C4A 2936  28.180   9.180  19.120
  123BOLB   C1B 2937  27.760   8.440  17.960
  123BOLB   C2B 2938  28.160   8.460  17.870
  123BOLB   C3B 2939  28.510   8.330  17.990
  123BOLB   C4B 2940  28.780   8.020  18.160
  123BOLB   NC2 2941  29.760   7.670  20.370
  123BOLB   PO2 2942  29.690   7.510  19.970
  123BOLB   GL3 2943  29.500   7.750  19.650
  123BOLB   GL4 2944  29.550   8.150  19.590
  123BOLB   C1C 2945  29.110   8.000  19.500
  123BOLB   C2C 2946  28.910   8.390  19.370
  123BOLB   C3C 2947  28.750   8.730  19.370
  123BOLB   C4C 2948  28.680   9.110  19.260
  123BOLB   C1D 2949  29.410   8.280  19.250
  123BOLB   C2D 2950  29.680   8.330  18.900
  123BOLB   C3D 2951  29.750   8.760  18.650
  123BOLB   C4D 2952  29.730   9.030  18.310
  124BOLB   NC1 2953  23.900   6.310  14.010
  124BOLB   PO1 2954  24.080   6.050  14.300
  124BOLB   GL1 2955  24.260   5.670  14.360
  124BOLB   GL2 2956  24.470   5.730  14.560
  124BOLB   C1A 2957  24.460   5.310  14.250
  124BOLB   C2A 2958  24.650   5.170  14.510
  124BOLB   C3A 2959  25.040   5.150  14.730
  124BOLB   C4A 2960  25.430   4.900  14.580
  124BOLB   C1B 2961  24.880   5.590  14.400
  124BOLB   C2B 2962  25.240   5.220  14.280
  124BOLB   C3B 2963  25.590   5.080  13.900
  124BOLB   C4B 2964  25.750   4.770  13.670
  124BOLB   NC2 2965  27.470   3.100  13.620
  124BOLB   PO2 2966  27.440   3.330  13.970
  124BOLB   GL3 2967  27.050   3.610  14.260
  124BOLB   GL4 2968  27.050   3.710  13.900
  124BOLB   C1C 2969  26.600   3.930  14.080
  124BOLB   C2C 2970  26.350   4.280  13.990
  124BOLB   C3C 2971  26.080   4.360  14.220
  124BOLB   C4C 2972  25.720   4.680  14.400
  124BOLB   C1D 2973  26.970   4.060  13.590
  124BOLB   C2D 2974  26.520   4.180  13.400
  124BOLB   C3D 2975  26.400   4.450  13.070
  124BOLB   C4D 2976  26.400   4.440  12.710
  125BOLB   NC1 2977  23.410  10.040  20.010
  125BOLB   PO1 2978  23.060  10.120  20.120
  125BOLB   GL1 2979  23.170  10.220  20.420
  125BOLB   GL2 2980  23.000   9.930  20.660
  125BOLB   C1A 2981  23.220  10.310  20.790
  125BOLB   C2A 2982  23.220  10.080  21.230
  125BOLB   C3A 2983  23.230  10.020  21.680
  125BOLB   C4A 2984  23.100   9.720  21.940
  125BOLB   C1B 2985  23.200   9.670  20.940
  125BOLB   C2B 2986  23.380   9.650  21.380
  125BOLB   C3B 2987  23.610   9.690  21.790
  125BOLB   C4B 2988  23.780   9.600  22.300
  125BOLB   NC2 2989  23.230   9.950  24.260
  125BOLB   PO2 2990  23.720   9.960  24.210
  125BOLB   GL3 2991  23.530   9.690  23.850
  125BOLB   GL4 2992  23.220   9.570  23.940
  125BOLB   C1C 2993  23.270   9.870  23.570
  125BOLB   C2C 2994  23.280   9.750  23.100
  125BOLB   C3C 2995  23.460   9.540  22.780
  125BOLB   C4C 2996  23.310   9.470  22.310
  125BOLB   C1D 2997  23.220   9.430  23.480
  125BOLB   C2D 2998  23.290   9.230  23.090
  125BOLB   C3D 2999  23.080   9.230  22.710
  125BOLB   C4D 3000  23.130   9.010  22.360
  126BOLB   NC1 3001  17.630   8.980  19.430
  126BOLB   PO1 3002  17.450   8.630  19.620
  126BOLB   GL1 3003  17.600   8.490  20.050
  126BOLB   GL2 3004  17.400   8.300  20.180
  126BOLB   C1A 3005  17.550   8.630  20.510
  126BOLB   C2A 3006  17.410   8.410  20.850
  126BOLB   C3A 3007  17.440   8.060  21.150
  126BOLB   C4A 3008  17.640   7.930  21.440
  126BOLB   C1B 3009  17.100   8.140  20.530
  126BOLB   C2B 3010  16.980   8.080  20.950
  126BOLB   C3B 3011  17.070   7.770  21.350
  126BOLB   C4B 3012  17.250   7.520  21.660
  126BOLB   NC2 3013  17.290   7.040  23.660
  126BOLB   PO2 3014  17.220   7.450  23.640
  126BOLB   GL3 3015  17.370   7.440  23.300
  126BOLB   GL4 3016  17.170   7.200  23.140
  126BOLB   C1C 3017  17.570   7.500  22.950
  126BOLB   C2C 3018  17.760   7.590  22.550
  126BOLB   C3C 3019  17.740   7.560  22.170
  126BOLB   C4C 3020  17.720   7.650  21.750
  126BOLB   C1D 3021  17.080   7.580  22.940
  126BOLB   C2D 3022  16.940   7.760  22.610
  126BOLB   C3D 3023  16.950   8.010  22.360
  126BOLB   C4D 3024  16.790   8.250  22.020
  127BOLB   NC1 3025  27.390  11.180  17.670
  127BOLB   PO1 3026  27.400  11.680  17.630
  127BOLB   GL1 3027  27.760  11.650  17.640
  127BOLB   GL2 3028  27.990  11.540  17.500
  127BOLB   C1A 3029  27.970  11.680  17.960
  127BOLB   C2A 3030  28.410  11.730  18.010
  127BOLB   C3A 3031  28.820  11.730  18.130
  127BOLB   C4A 3032  29.140  11.550  18.370
  127BOLB   C1B 3033  28.380  11.550  17.580
  127BOLB   C2B 3034  28.570  11.210  17.610
  127BOLB   C3B 3035  28.960  11.010  17.490
  127BOLB   C4B 3036  29.180  10.770  17.600
  127BOLB   NC2 3037  31.710  11.750  18.340
  127BOLB   PO2 3038  31.600  11.820  18.740
  127BOLB   GL3 3039  31.230  11.830  18.480
  127BOLB   GL4 3040  31.250  11.550  18.370
  127BOLB   C1C 3041  30.760  11.910  18.410
  127BOLB   C2C 3042  30.330  11.800  18.520
  127BOLB   C3C 3043  29.950  11.720  18.280
  127BOLB   C4C 3044  29.550  11.760  18.290
  127BOLB   C1D 3045  30.810  11.350  18.200
  127BOLB   C2D 3046  30.480  11.500  18.150
  127BOLB   C3D 3047  30.230  11.580  17.870
  127BOLB   C4D 3048  29.890  11.920  17.730
  128BOLB   NC1 3049  26.360  13.120  23.090
  128BOLB   PO1 3050  26.290  12.700  23.350
  128BOLB   GL1 3051  25.980  12.520  23.000
  128BOLB   GL2 3052  25.850  12.200  23.120
  128BOLB   C1A 3053  25.910  12.560  22.580
  128BOLB   C2A 3054  25.830  12.430  22.210
  128BOLB   C3A 3055  25.950  12.180  21.810
  128BOLB   C4A 3056  25.950  12.100  21.350
  128BOLB   C1B 3057  25.590  11.770  22.980
  128BOLB   C2B 3058  25.350  11.780  22.680
  128BOLB   C3B 3059  25.260  11.730  22.270
  128BOLB   C4B 3060  25.020  11.480  22.000
  128BOLB   NC2 3061  25.640  11.770  19.220
  128BOLB   PO2 3062  25.180  12.090  19.220
  128BOLB   GL3 3063  25.220  12.210  19.580
  128BOLB   GL4 3064  25.310  12.480  19.580
  128BOLB   C1C 3065  25.420  12.150  19.920
  128BOLB   C2C 3066  25.410  12.150  20.340
  128BOLB   C3C 3067  25.660  12.220  20.640
  128BOLB   C4C 3068  25.900  12.210  20.950
  128BOLB   C1D 3069  25.460  12.640  20.020
  128BOLB   C2D 3070  25.600  12.660  20.430
  128BOLB   C3D 3071  25.900  12.710  20.770
  128BOLB   C4D 3072  26.280  12.810  20.890
  129BOLB   NC1 3073  27.390  10.620  11.890
  129BOLB   PO1 3074  27.850  10.590  11.990
  129BOLB   GL1 3075  28.300  10.450  11.830
  129BOLB   GL2 3076  28.390  10.460  12.100
  129BOLB   C1A 3077  28.550  10.410  11.550
  129BOLB   C2A 3078  28.940  10.530  11.540
  129BOLB   C3A 3079  29.470  10.640  11.540
  129BOLB   C4A 3080  29.780  10.920  11.320
  129BOLB   C1B 3081  28.760  10.530  12.030
  129BOLB   C2B 3082  29.160  10.310  11.920
  129BOLB   C3B 3083  29.560  10.500  12.000
  129BOLB   C4B 3084  29.940  10.740  11.790
  129BOLB   NC2 3085  31.550  10.530   9.970
  129BOLB   PO2 3086  31.770  10.900  10.040
  129BOLB   GL3 3087  31.350  10.970  10.150
  129BOLB   GL4 3088  31.270  11.140   9.970
  129BOLB   C1C 3089  31.090  10.870  10.500
  129BOLB   C2C 3090  30.690  10.960  10.490
  129BOLB   C3C 3091  30.290  11.100  10.680
  129BOLB   C4C 3092  29.960  11.140  10.920
  129BOLB   C1D 3093  30.890  11.080  10.040
  129BOLB   C2D 3094  30.420  11.240  10.160
  129BOLB   C3D 3095  30.100  11.610  10.110
  129BOLB   C4D 3096  29.730  11.870  10.050
  130BOLB   NC1 3097  18.720  11.420  20.560
  130BOLB   PO1 3098  18.420  11.150  20.570
  130BOLB   GL1 3099  18.450  11.190  20.930
  130BOLB   GL2 3100  18.400  10.910  21.060
  130BOLB   C1A 3101  18.520  11.200  21.440
  130BOLB   C2A 3102  18.210  11.130  21.710
  130BOLB   C3A 3103  18.100  10.980  22.060
  130BOLB   C4A 3104  17.990  10.820  22.410
  130BOLB   C1B 3105  18.440  10.700  21.530
  130BOLB   C2B 3106  18.500  10.670  21.950
  130BOLB   C3B 3107  18.330  10.460  22.270
  130BOLB   C4B 3108  18.290  10.300  22.700
  130BOLB   NC2 3109  18.370  10.070  25.330
  130BOLB   PO2 3110  18.690  10.190  24.970
  130BOLB   GL3 3111  18.580  10.180  24.500
  130BOLB   GL4 3112  18.920  10.110  24.290
  130BOLB   C1C 3113  18.440  10.320  24.080
  130BOLB   C2C 3114  18.440  10.460  23.630
  130BOLB   C3C 3115  18.240  10.780  23.280
  130BOLB   C4C 3116  18.060  10.840  22.870
  130BOLB   C1D 3117  19.040   9.760  23.990
  130BOLB   C2D 3118  19.190   9.590  23.530
  130BOLB   C3D 3119  19.320   9.900  23.200
  130BOLB   C4D 3120  19.560   9.920  22.870
  131BOLB   NC1 3121  20.360  11.670  20.510
  131BOLB   PO1 3122  20.720  11.390  20.480
  131BOLB   GL1 3123  20.810  11.150  20.830
  131BOLB   GL2 3124  20.580  11.380  20.960
  131BOLB   C1A 3125  20.800  11.130  21.380
  131BOLB   C2A 3126  20.840  11.050  21.790
  131BOLB   C3A 3127  20.970  11.330  22.020
  131BOLB   C4A 3128  21.090  11.630  22.410
  131BOLB   C1B 3129  20.460  11.450  21.360
  131BOLB   C2B 3130  20.410  11.380  21.740
  131BOLB   C3B 3131  20.460  11.210  22.160
  131BOLB   C4B 3132  20.770  11.160  22.480
  131BOLB   NC2 3133  20.090  12.180  24.610
  131BOLB   PO2 3134  20.200  12.560  24.680
  131BOLB   GL3 3135  20.150  12.510  24.160
  131BOLB   GL4 3136  20.340  12.780  24.070
  131BOLB   C1C 3137  20.550  12.390  23.940
  131BOLB   C2C 3138  20.680  12.170  23.650
  131BOLB   C3C 3139  20.740  12.060  23.210
  131BOLB   C4C 3140  20.870  11.880  22.730
  131BOLB   C1D 3141  20.220  12.640  23.590
  131BOLB   C2D 3142  20.180  12.480  23.210
  131BOLB   C3D 3143  20.260  12.070  22.920
  131BOLB   C4D 3144  20.020  11.770  22.660
  132BOLB   NC1 3145  20.440   6.600  18.620
  132BOLB   PO1 3146  20.090   6.360  18.730
  132BOLB   GL1 3147  20.040   5.950  18.780
  132BOLB   GL2 3148  20.150   5.750  18.540
  132BOLB   C1A 3149  19.990   5.540  19.020
  132BOLB   C2A 3150  19.880   5.080  18.950
  132BOLB   C3A 3151  19.460   4.700  18.900
  132BOLB   C4A 3152  19.150   4.470  19.110
  132BOLB   C1B 3153  20.350   5.430  18.620
  132BOLB   C2B 3154  20.320   4.910  18.810
  132BOLB   C3B 3155  20.620   4.580  18.860
  132BOLB   C4B 3156  21.080   4.500  19.070
  132BOLB   NC2 3157  17.900   3.600  21.060
  132BOLB   PO2 3158  18.130   3.360  21.210
  132BOLB   GL3 3159  18.400   3.690  20.980
  132BOLB   GL4 3160  18.770   3.590  20.920
  132BOLB   C1C 3161  18.430   4.000  20.740
  132BOLB   C2C 3162  18.520   4.100  20.410
  132BOLB   C3C 3163  18.700   4.400  20.080
  132BOLB   C4C 3164  18.810   4.510  19.590
  132BOLB   C1D 3165  18.490   3.470  20.540
  132BOLB   C2D 3166  18.260   3.440  20.210
  132BOLB   C3D 3167  18.070   3.520  19.810
  132BOLB   C4D 3168  17.800   3.800  19.760
  133BOLB   NC1 3169  13.550  10.780  17.950
  133BOLB   PO1 3170  13.270  10.620  18.240
  133BOLB   GL1 3171  12.960  10.430  18.530
  133BOLB   GL2 3172  12.620  10.490  18.660
  133BOLB   C1A 3173  12.620  10.020  18.710
  133BOLB   C2A 3174  12.290  10.110  18.810
  133BOLB   C3A 3175  12.030  10.270  19.140
  133BOLB   C4A 3176  11.720  10.200  19.410
  133BOLB   C1B 3177  12.510  10.560  19.180
  133BOLB   C2B 3178  12.470  10.750  19.570
  133BOLB   C3B 3179  12.480  10.890  20.000
  133BOLB   C4B 3180  12.350  11.150  20.360
  133BOLB   NC2 3181  10.980   9.790  21.550
  133BOLB   PO2 3182  10.580   9.940  21.390
  133BOLB   GL3 3183  10.820   9.780  21.020
  133BOLB   GL4 3184  11.000   9.530  21.130
  133BOLB   C1C 3185  11.000   9.970  20.720
  133BOLB   C2C 3186  11.280   9.910  20.470
  133BOLB   C3C 3187  11.320   9.730  20.060
  133BOLB   C4C 3188  11.590  10.010  19.790
  133BOLB   C1D 3189  11.110   9.460  20.740
  133BOLB   C2D 3190  11.500   9.420  20.490
  133BOLB   C3D 3191  11.910   9.160  20.440
  133BOLB   C4D 3192  12.420   9.180  20.510
  134BOLB   NC1 3193  31.360   7.680  16.060
  134BOLB   PO1 3194  31.510   7.560  15.760
  134BOLB   GL1 3195  31.240   7.870  15.660
  134BOLB   GL2 3196  31.040   7.990  15.890
  134BOLB   C1A 3197  30.880   8.010  15.450
  134BOLB   C2A 3198  30.500   8.190  15.350
  134BOLB   C3A 3199  30.100   8.170  15.400
  134BOLB   C4A 3200  29.690   8.140  15.250
  134BOLB   C1B 3201  30.760   8.190  15.940
  134BOLB   C2B 3202  30.280   8.360  15.890
  134BOLB   C3B 3203  29.980   8.460  16.060
  134BOLB   C4B 3204  29.540   8.330  16.020
  134BOLB   NC2 3205  31.610   7.100  14.550
  134BOLB   PO2 3206  31.200   6.980  14.460
  134BOLB   GL3 3207  30.900   7.290  14.550
  134BOLB   GL4 3208  31.080   7.450  14.410
  134BOLB   C1C 3209  30.530   7.330  14.830
  134BOLB   C2C 3210  30.110   7.430  14.930
  134BOLB   C3C 3211  29.630   7.560  14.910
  134BOLB   C4C 3212  29.480   7.950  15.040
  134BOLB   C1D 3213  30.880   7.780  14.600
  134BOLB   C2D 3214  30.690   8.160  14.440
  134BOLB   C3D 3215  30.730   8.500  14.190
  134BOLB   C4D 3216  30.590   8.930  14.080
  135BOLB   NC1 3217  26.500  13.810  17.930
  135BOLB   PO1 3218  26.400  13.580  18.290
  135BOLB   GL1 3219  26.750  13.580  18.620
  135BOLB   GL2 3220  26.700  13.930  18.720
  135BOLB   C1A 3221  27.110  13.670  18.700
  135BOLB   C2A 3222  27.450  13.990  18.730
  135BOLB   C3A 3223  27.690  14.440  18.830
  135BOLB   C4A 3224  28.100  14.510  18.980
  135BOLB   C1B 3225  26.830  14.200  18.920
  135BOLB   C2B 3226  27.290  14.280  19.080
  135BOLB   C3B 3227  27.590  14.320  19.350
  135BOLB   C4B 3228  27.790  14.740  19.330
  135BOLB   NC2 3229  29.890  14.970  20.440
  135BOLB   PO2 3230  30.190  15.020  20.080
  135BOLB   GL3 3231  29.820  15.010  19.940
  135BOLB   GL4 3232  29.730  15.100  19.510
  135BOLB   C1C 3233  29.440  14.940  19.960
  135BOLB   C2C 3234  29.070  14.780  19.750
  135BOLB   C3C 3235  28.740  14.600  19.540
  135BOLB   C4C 3236  28.490  14.620  19.190
  135BOLB   C1D 3237  29.580  15.150  19.220
  135BOLB   C2D 3238  29.540  14.940  18.810
  135BOLB   C3D 3239  29.220  14.740  18.630
  135BOLB   C4D 3240  28.920  14.480  18.610
  136BOLB   NC1 3241  15.260  13.960  19.410
  136BOLB   PO1 3242  15.690  14.120  19.460
  136BOLB   GL1 3243  15.290  14.370  19.710
  136BOLB   GL2 3244  15.220  14.050  19.910
  136BOLB   C1A 3245  15.080  14.530  20.080
  136BOLB   C2A 3246  14.800  14.790  20.260
  136BOLB   C3A 3247  14.500  14.970  20.550
  136BOLB   C4A 3248  14.220  14.830  20.900
  136BOLB   C1B 3249  15.070  14.050  20.390
  136BOLB   C2B 3250  14.980  14.410  20.580
  136BOLB   C3B 3251  14.740  14.560  20.890
  136BOLB   C4B 3252  14.640  14.630  21.260
  136BOLB   NC2 3253  13.490  14.860  23.240
  136BOLB   PO2 3254  13.410  14.450  23.250
  136BOLB   GL3 3255  13.740  14.540  22.900
  136BOLB   GL4 3256  14.090  14.400  23.010
  136BOLB   C1C 3257  13.980  14.520  22.440
  136BOLB   C2C 3258  14.030  14.700  21.980
  136BOLB   C3C 3259  14.130  14.910  21.720
  136BOLB   C4C 3260  14.200  14.860  21.340
  136BOLB   C1D 3261  14.320  14.230  22.640
  136BOLB   C2D 3262  14.460  14.150  22.220
  136BOLB   C3D 3263  14.610  13.850  21.860
  136BOLB   C4D 3264  14.790  13.680  21.490
  137BOLB   NC1 3265  21.040   8.190   9.420
  137BOLB   PO1 3266  21.420   8.070   9.130
  137BOLB   GL1 3267  21.540   8.040   8.690
  137BOLB   GL2 3268  21.300   7.980   8.390
  137BOLB   C1A 3269  21.810   7.860   8.530
  137BOLB   C2A 3270  22.060   7.520   8.500
  137BOLB   C3A 3271  21.930   7.040   8.620
  137BOLB   C4A 3272  21.890   6.650   8.370
  137BOLB   C1B 3273  21.540   7.890   8.050
  137BOLB   C2B 3274  21.630   8.000   7.580
  137BOLB   C3B 3275  21.790   7.840   7.170
  137BOLB   C4B 3276  21.960   7.870   6.850
  137BOLB   NC2 3277  21.690   4.720   6.790
  137BOLB   PO2 3278  21.440   5.020   6.500
  137BOLB   GL3 3279  21.120   5.250   6.790
  137BOLB   GL4 3280  20.980   5.110   7.130
  137BOLB   C1C 3281  21.390   5.570   6.980
  137BOLB   C2C 3282  21.480   5.910   7.330
  137BOLB   C3C 3283  21.600   6.100   7.710
  137BOLB   C4C 3284  21.610   6.470   8.010
  137BOLB   C1D 3285  21.090   5.490   7.420
  137BOLB   C2D 3286  21.040   5.890   7.620
  137BOLB   C3D 3287  20.810   6.140   7.790
  137BOLB   C4D 3288  20.450   6.320   7.770
  138BOLB   NC1 3289  20.810  12.280  20.390
  138BOLB   PO1 3290  20.430  12.130  20.550
  138BOLB   GL1 3291  20.700  12.280  20.880
  138BOLB   GL2 3292  21.070  12.340  20.800
  138BOLB   C1A 3293  20.700  12.450  21.220
  138BOLB   C2A 3294  20.520  12.340  21.640
  138BOLB   C3A 3295  20.620  12.200  22.050
  138BOLB   C4A 3296  20.540  12.200  22.460
  138BOLB   C1B 3297  21.220  12.390  21.270
  138BOLB   C2B 3298  21.370  12.450  21.690
  138BOLB   C3B 3299  21.510  12.440  22.110
  138BOLB   C4B 3300  21.810  12.240  22.270
  138BOLB   NC2 3301  20.390  12.960  24.520
  138BOLB   PO2 3302  20.670  12.650  24.800
  138BOLB   GL3 3303  20.780  12.650  24.310
  138BOLB   GL4 3304  21.130  12.830  24.230
  138BOLB   C1C 3305  20.840  12.730  23.790
  138BOLB   C2C 3306  20.880  12.640  23.360
  138BOLB   C3C 3307  20.980  12.550  22.960
  138BOLB   C4C 3308  20.830  12.360  22.630
  138BOLB   C1D 3309  21.210  13.160  24.000
  138BOLB   C2D 3310  21.110  13.120  23.640
  138BOLB   C3D 3311  20.650  13.110  23.480
  138BOLB   C4D 3312  20.540  12.810  23.120
  139BOLB   NC1 3313  26.160  13.910  18.590
  139BOLB   PO1 3314  26.250  13.640  18.850
  139BOLB   GL1 3315  26.390  13.420  19.160
  139BOLB   GL2 3316  26.710  13.370  19.070
  139BOLB   C1A 3317  26.610  13.440  19.570
  139BOLB   C2A 3318  26.940  13.610  19.700
  139BOLB   C3A 3319  27.330  13.570  19.850
  139BOLB   C4A 3320  27.820  13.570  19.930
  139BOLB   C1B 3321  26.970  13.260  19.360
  139BOLB   C2B 3322  27.350  13.220  19.490
  139BOLB   C3B 3323  27.350  13.140  19.960
  139BOLB   C4B 3324  27.640  13.080  20.290
  139BOLB   NC2 3325  29.590  13.630  21.360
  139BOLB   PO2 3326  29.370  13.290  21.560
  139BOLB   GL3 3327  29.070  13.220  21.240
  139BOLB   GL4 3328  29.320  13.110  20.970
  139BOLB   C1C 3329  28.640  13.310  21.040
  139BOLB   C2C 3330  28.220  13.300  20.910
  139BOLB   C3C 3331  28.120  13.130  20.550
  139BOLB   C4C 3332  28.080  13.320  20.180
  139BOLB   C1D 3333  29.090  13.550  20.710
  139BOLB   C2D 3334  28.860  13.750  20.450
  139BOLB   C3D 3335  28.890  13.810  20.010
  139BOLB   C4D 3336  28.770  14.140  19.690
  140BOLB   NC1 3337  22.670  10.400  20.210
  140BOLB   PO1 3338  22.490   9.980  20.370
  140BOLB   GL1 3339  22.150   9.700  20.600
  140BOLB   GL2 3340  22.060   9.900  20.800
  140BOLB   C1A 3341  22.080   9.450  20.970
  140BOLB   C2A 3342  22.070   9.600  21.340
  140BOLB   C3A 3343  22.130   9.520  21.720
  140BOLB   C4A 3344  21.910   9.180  21.960
  140BOLB   C1B 3345  21.800  10.100  21.150
  140BOLB   C2B 3346  21.730  10.170  21.620
  140BOLB   C3B 3347  21.720  10.480  22.080
  140BOLB   C4B 3348  21.550  10.720  22.330
  140BOLB   NC2 3349  22.360   8.200  24.400
  140BOLB   PO2 3350  22.190   8.610  24.130
  140BOLB   GL3 3351  22.130   8.540  23.760
  140BOLB   GL4 3352  22.400   8.450  23.710
  140BOLB   C1C 3353  21.820   8.530  23.390
  140BOLB   C2C 3354  21.730   8.420  23.030
  140BOLB   C3C 3355  21.700   8.560  22.550
  140BOLB   C4C 3356  21.800   8.820  22.190
  140BOLB   C1D 3357  22.700   8.570  23.340
  140BOLB   C2D 3358  22.840   8.590  22.940
  140BOLB   C3D 3359  22.710   8.420  22.530
  140BOLB   C4D 3360  22.530   8.250  22.170
  141BOLB   NC1 3361  28.480  11.310  15.370
  141BOLB   PO1 3362  28.410  10.840  15.390
  141BOLB   GL1 3363  28.480  10.560  15.280
  141BOLB   GL2 3364  28.660  10.700  14.960
  141BOLB   C1A 3365  28.780  10.370  15.360
  141BOLB   C2A 3366  29.100  10.140  15.720
  141BOLB   C3A 3367  29.400  10.190  15.960
  141BOLB   C4A 3368  29.760  10.190  15.870
  141BOLB   C1B 3369  29.040  10.600  14.910
  141BOLB   C2B 3370  29.430  10.760  14.680
  141BOLB   C3B 3371  29.730  10.620  14.480
  141BOLB   C4B 3372  29.710  10.220  14.230
  141BOLB   NC2 3373  32.000   9.030  16.370
  141BOLB   PO2 3374  31.580   9.160  16.220
  141BOLB   GL3 3375  31.300   9.540  16.260
  141BOLB   GL4 3376  31.510   9.780  16.110
  141BOLB   C1C 3377  31.010   9.830  16.120
  141BOLB   C2C 3378  30.830  10.070  16.000
  141BOLB   C3C 3379  30.470  10.280  15.980
  141BOLB   C4C 3380  30.100  10.280  16.070
  141BOLB   C1D 3381  31.400  10.160  16.200
  141BOLB   C2D 3382  31.350  10.670  16.130
  141BOLB   C3D 3383  31.130  10.990  16.350
  141BOLB   C4D 3384  30.620  10.990  16.440
  142BOLB   NC1 3385  28.380  14.480  12.510
  142BOLB   PO1 3386  28.320  13.970  12.660
  142BOLB   GL1 3387  28.680  14.080  12.580
  142BOLB   GL2 3388  28.810  14.340  12.640
  142BOLB   C1A 3389  29.230  14.080  12.470
  142BOLB   C2A 3390  29.650  14.050  12.330
  142BOLB   C3A 3391  30.000  13.800  12.540
  142BOLB   C4A 3392  30.210  13.510  12.410
  142BOLB   C1B 3393  29.130  14.560  12.560
  142BOLB   C2B 3394  29.430  14.570  12.360
  142BOLB   C3B 3395  29.730  14.530  12.090
  142BOLB   C4B 3396  29.710  14.600  11.620
  142BOLB   NC2 3397  32.720  13.890  12.940
  142BOLB   PO2 3398  32.500  13.510  12.670
  142BOLB   GL3 3399  32.100  13.610  12.890
  142BOLB   GL4 3400  32.260  13.830  13.010
  142BOLB   C1C 3401  31.670  13.490  12.770
  142BOLB   C2C 3402  31.350  13.360  12.530
  142BOLB   C3C 3403  31.020  13.300  12.360
  142BOLB   C4C 3404  30.590  13.300  12.260
  142BOLB   C1D 3405  31.830  14.000  12.920
  142BOLB   C2D 3406  31.450  14.180  12.870
  142BOLB   C3D 3407  31.180  14.510  12.800
  142BOLB   C4D 3408  31.030  14.660  13.110
  143BOLB   NC1 3409  24.830   6.790  17.200
  143BOLB   PO1 3410  25.070   7.080  17.060
  143BOLB   GL1 3411  25.280   6.880  16.790
  143BOLB   GL2 3412  25.580   6.880  16.920
  143BOLB   C1A 3413  25.610   6.470  16.670
  143BOLB   C2A 3414  25.950   6.220  16.630
  143BOLB   C3A 3415  26.170   5.900  16.460
  143BOLB   C4A 3416  26.380   5.590  16.670
  143BOLB   C1B 3417  25.780   6.650  17.150
  143BOLB   C2B 3418  26.160   6.540  17.130
  143BOLB   C3B 3419  26.490   6.400  17.240
  143BOLB   C4B 3420  26.890   6.470  17.420
  143BOLB   NC2 3421  28.340   4.360  17.020
  143BOLB   PO2 3422  27.930   4.110  16.920
  143BOLB   GL3 3423  27.810   4.490  16.880
  143BOLB   GL4 3424  27.990   4.720  17.180
  143BOLB   C1C 3425  27.760   4.890  16.770
  143BOLB   C2C 3426  27.450   5.100  16.890
  143BOLB   C3C 3427  27.220   5.500  16.840
  143BOLB   C4C 3428  26.820   5.420  16.650
  143BOLB   C1D 3429  27.700   4.990  17.340
  143BOLB   C2D 3430  27.460   5.360  17.320
  143BOLB   C3D 3431  27.300   5.690  17.360
  143BOLB   C4D 3432  27.090   6.050  17.110
  144BOLB   NC1 3433  21.260  11.330  20.420
  144BOLB   PO1 3434  21.590  11.620  20.480
  144BOLB   GL1 3435  21.540  11.530  20.990
  144BOLB   GL2 3436  21.180  11.490  20.940
  144BOLB   C1A 3437  21.620  11.330  21.310
  144BOLB   C2A 3438  21.820  11.110  21.610
  144BOLB   C3A 3439  21.960  10.950  22.030
  144BOLB   C4A 3440  22.120  10.900  22.470
  144BOLB   C1B 3441  21.150  11.500  21.390
  144BOLB   C2B 3442  21.370  11.520  21.820
  144BOLB   C3B 3443  21.650  11.350  22.070
  144BOLB   C4B 3444  21.760  11.280  22.460
  144BOLB   NC2 3445  21.200  11.460  24.880
  144BOLB   PO2 3446  21.410  11.070  24.660
  144BOLB   GL3 3447  21.240  10.850  24.230
  144BOLB   GL4 3448  21.100  10.590  24.250
  144BOLB   C1C 3449  21.330  10.760  23.760
  144BOLB   C2C 3450  21.260  10.610  23.330
  144BOLB   C3C 3451  21.590  10.530  22.990
  144BOLB   C4C 3452  21.940  10.680  22.760
  144BOLB   C1D 3453  21.130  10.320  23.940
  144BOLB   C2D 3454  20.970  10.280  23.600
  144BOLB   C3D 3455  20.920  10.270  23.190
  144BOLB   C4D 3456  21.110  10.330  22.850
  145BOLB   NC1 3457  31.250   9.390  18.610
  145BOLB   PO1 3458  30.960   9.170  18.940
  145BOLB   GL1 3459  30.610   9.550  18.940
  145BOLB   GL2 3460  30.460   9.410  19.170
  145BOLB   C1A 3461  30.540   9.910  18.580
  145BOLB   C2A 3462  30.200   9.950  18.230
  145BOLB   C3A 3463  29.930   9.690  18.110
  145BOLB   C4A 3464  29.510   9.420  18.210
  145BOLB   C1B 3465  30.150   9.620  19.050
  145BOLB   C2B 3466  30.020   9.910  18.770
  145BOLB   C3B 3467  30.130  10.310  18.560
  145BOLB   C4B 3468  30.190  10.440  18.150
  145BOLB   NC2 3469  26.790  10.010  17.010
  145BOLB   PO2 3470  27.170   9.770  17.010
  145BOLB   GL3 3471  27.500   9.790  17.220
  145BOLB   GL4 3472  27.810   9.850  17.040
  145BOLB   C1C 3473  27.820   9.470  17.520
  145BOLB   C2C 3474  28.210   9.420  17.650
  145BOLB   C3C 3475  28.690   9.420  17.800
  145BOLB   C4C 3476  29.100   9.430  18.050
  145BOLB   C1D 3477  28.090   9.400  16.990
  145BOLB   C2D 3478  28.410   8.980  16.960
  145BOLB   C3D 3479  28.850   8.820  17.080
  145BOLB   C4D 3480  29.250   8.800  17.120
  146BOLB   NC1 3481  23.530  14.100   7.980
  146BOLB   PO1 3482  23.650  13.620   8.000
  146BOLB   GL1 3483  23.660  13.810   7.600
  146BOLB   GL2 3484  23.740  13.570   7.500
  146BOLB   C1A 3485  23.570  14.050   7.190
  146BOLB   C2A 3486  23.680  14.240   6.840
  146BOLB   C3A 3487  24.040  14.360   6.550
  146BOLB   C4A 3488  23.960  14.300   6.090
  146BOLB   C1B 3489  23.980  13.790   7.040
  146BOLB   C2B 3490  24.290  13.840   6.620
  146BOLB   C3B 3491  24.480  13.850   6.230
  146BOLB   C4B 3492  24.630  13.840   5.800
  146BOLB   NC2 3493  25.450  14.730   3.740
  146BOLB   PO2 3494  25.580  14.560   4.150
  146BOLB   GL3 3495  25.370  14.410   4.560
  146BOLB   GL4 3496  25.520  14.100   4.740
  146BOLB   C1C 3497  25.070  14.300   5.010
  146BOLB   C2C 3498  24.840  14.070   5.240
  146BOLB   C3C 3499  24.570  14.180   5.410
  146BOLB   C4C 3500  24.240  14.110   5.800
  146BOLB   C1D 3501  25.270  13.850   4.970
  146BOLB   C2D 3502  25.140  13.750   5.520
  146BOLB   C3D 3503  25.090  13.960   5.860
  146BOLB   C4D 3504  24.830  14.250   6.080
  147BOLB   NC1 3505  20.070   8.370  19.820
  147BOLB   PO1 3506  20.400   8.470  20.170
  147BOLB   GL1 3507  20.520   8.430  20.550
  147BOLB   GL2 3508  20.300   8.270  20.650
  147BOLB   C1A 3509  20.570   8.470  21.060
  147BOLB   C2A 3510  20.790   8.720  21.330
  147BOLB   C3A 3511  20.850   8.740  21.740
  147BOLB   C4A 3512  21.060   8.490  22.070
  147BOLB   C1B 3513  20.370   7.800  20.870
  147BOLB   C2B 3514  20.600   7.660  21.220
  147BOLB   C3B 3515  20.390   7.610  21.630
  147BOLB   C4B 3516  20.590   7.620  22.120
  147BOLB   NC2 3517  21.230   7.700  24.180
  147BOLB   PO2 3518  21.050   8.150  24.380
  147BOLB   GL3 3519  21.110   8.240  23.920
  147BOLB   GL4 3520  20.970   8.520  23.800
  147BOLB   C1C 3521  21.240   8.190  23.580
  147BOLB   C2C 3522  21.460   7.900  23.250
  147BOLB   C3C 3523  21.370   8.100  22.810
  147BOLB   C4C 3524  21.220   8.130  22.400
  147BOLB   C1D 3525  20.760   8.640  23.390
  147BOLB   C2D 3526  20.580   8.650  22.990
  147BOLB   C3D 3527  20.750   8.890  22.630
  147BOLB   C4D 3528  20.790   8.920  22.210
  148BOLB   NC1 3529  24.290  12.070  19.620
  148BOLB   PO1 3530  24.020  12.190  19.970
  148BOLB   GL1 3531  24.060  12.240  20.510
  148BOLB   GL2 3532  24.070  12.560  20.700
  148BOLB   C1A 3533  24.330  12.030  20.760
  148BOLB   C2A 3534  24.630  11.800  21.230
  148BOLB   C3A 3535  25.000  11.660  21.100
  148BOLB   C4A 3536  25.230  11.490  21.420
  148BOLB   C1B 3537  24.300  12.430  21.050
  148BOLB   C2B 3538  24.530  12.450  21.440
  148BOLB   C3B 3539  24.310  12.350  21.740
  148BOLB   C4B 3540  24.380  12.150  22.110
  148BOLB   NC2 3541  25.980  12.400  23.990
  148BOLB   PO2 3542  25.710  12.140  23.710
  148BOLB   GL3 3543  25.440  12.270  23.410
  148BOLB   GL4 3544  25.150  12.510  23.550
  148BOLB   C1C 3545  25.340  12.320  23.010
  148BOLB   C2C 3546  25.490  12.250  22.610
  148BOLB   C3C 3547  25.380  12.210  22.140
  148BOLB   C4C 3548  25.430  11.830  21.800
  148BOLB   C1D 3549  24.980  12.640  23.120
  148BOLB   C2D 3550  25.010  12.600  22.670
  148BOLB   C3D 3551  24.990  12.530  22.280
  148BOLB   C4D 3552  24.630  12.600  22.080
  149BOLB   NC1 3553  22.880   9.640  20.200
  149BOLB   PO1 3554  22.400   9.530  20.080
  149BOLB   GL1 3555  22.470   9.340  20.520
  149BOLB   GL2 3556  22.730   9.500  20.660
  149BOLB   C1A 3557  22.590   9.180  20.950
  149BOLB   C2A 3558  22.580   9.400  21.250
  149BOLB   C3A 3559  22.860   9.360  21.570
  149BOLB   C4A 3560  23.240   9.290  21.780
  149BOLB   C1B 3561  22.560   9.770  20.960
  149BOLB   C2B 3562  22.350   9.990  21.240
  149BOLB   C3B 3563  22.150   9.980  21.670
  149BOLB   C4B 3564  21.870   9.900  22.010
  149BOLB   NC2 3565  24.950   8.840  23.820
  149BOLB   PO2 3566  25.170   9.190  23.690
  149BOLB   GL3 3567  25.020   9.240  23.370
  149BOLB   GL4 3568  24.650   9.270  23.420
  149BOLB   C1C 3569  24.720   9.070  22.940
  149BOLB   C2C 3570  24.320   9.110  22.680
  149BOLB   C3C 3571  24.060   9.120  22.300
  149BOLB   C4C 3572  23.680   9.130  22.040
  149BOLB   C1D 3573  24.340   9.420  23.040
  149BOLB   C2D 3574  24.100   9.520  22.660
  149BOLB   C3D 3575  24.290   9.810  22.290
  149BOLB   C4D 3576  24.220  10.200  22.040
  150BOLB   NC1 3577  24.560  12.860  19.230
  150BOLB   PO1 3578  24.810  13.020  19.380
  150BOLB   GL1 3579  24.880  13.180  19.830
  150BOLB   GL2 3580  25.150  13.060  19.930
  150BOLB   C1A 3581  24.900  12.750  20.210
  150BOLB   C2A 3582  25.090  12.500  20.430
  150BOLB   C3A 3583  25.240  12.500  20.810
  150BOLB   C4A 3584  25.500  12.480  21.100
  150BOLB   C1B 3585  25.340  13.140  20.280
  150BOLB   C2B 3586  25.580  13.120  20.660
  150BOLB   C3B 3587  25.870  13.170  21.030
  150BOLB   C4B 3588  25.980  13.440  21.450
  150BOLB   NC2 3589  26.960  12.010  23.410
  150BOLB   PO2 3590  26.890  12.300  23.000
  150BOLB   GL3 3591  26.760  12.380  22.570
  150BOLB   GL4 3592  26.630  12.100  22.640
  150BOLB   C1C 3593  26.810  12.570  22.100
  150BOLB   C2C 3594  26.670  12.660  21.660
  150BOLB   C3C 3595  26.260  12.760  21.480
  150BOLB   C4C 3596  25.910  12.630  21.270
  150BOLB   C1D 3597  26.720  12.050  22.240
  150BOLB   C2D 3598  26.560  12.190  21.890
  150BOLB   C3D 3599  26.290  12.460  21.930
  150BOLB   C4D 3600  26.300  12.840  21.980
  151BOLB   NC1 3601  13.580   9.720  18.810
  151BOLB   PO1 3602  13.490   9.380  18.960
  151BOLB   GL1 3603  13.380   9.170  19.200
  151BOLB   GL2 3604  13.700   9.200  19.470
  151BOLB   C1A 3605  13.310   8.880  19.510
  151BOLB   C2A 3606  13.460   8.700  19.910
  151BOLB   C3A 3607  13.560   8.590  20.380
  151BOLB   C4A 3608  13.890   8.640  20.710
  151BOLB   C1B 3609  13.630   9.200  19.850
  151BOLB   C2B 3610  13.360   9.110  20.200
  151BOLB   C3B 3611  12.940   9.090  20.300
  151BOLB   C4B 3612  12.620   8.770  20.490
  151BOLB   NC2 3613  11.680   8.390  21.970
  151BOLB   PO2 3614  12.070   8.390  22.210
  151BOLB   GL3 3615  12.490   8.370  22.060
  151BOLB   GL4 3616  12.480   8.110  21.880
  151BOLB   C1C 3617  12.650   8.520  21.710
  151BOLB   C2C 3618  13.010   8.550  21.490
  151BOLB   C3C 3619  13.350   8.750  21.210
  151BOLB   C4C 3620  13.670   8.680  21.060
  151BOLB   C1D 3621  12.450   8.100  21.490
  151BOLB   C2D 3622  12.830   8.140  21.190
  151BOLB   C3D 3623  12.930   8.230  20.750
  151BOLB   C4D 3624  13.180   8.600  20.760
  152BOLB   NC1 3625  25.410   7.020  22.420
  152BOLB   PO1 3626  25.420   7.310  22.700
  152BOLB   GL1 3627  25.210   7.490  22.380
  152BOLB   GL2 3628  25.370   7.530  22.140
  152BOLB   C1A 3629  24.860   7.750  22.250
  152BOLB   C2A 3630  24.510   7.940  22.030
  152BOLB   C3A 3631  24.290   8.170  21.650
  152BOLB   C4A 3632  24.420   8.540  21.470
  152BOLB   C1B 3633  25.030   7.680  21.760
  152BOLB   C2B 3634  25.090   7.890  21.370
  152BOLB   C3B 3635  24.770   8.240  21.190
  152BOLB   C4B 3636  24.390   8.470  20.940
  152BOLB   NC2 3637  25.980   8.620  23.030
  152BOLB   PO2 3638  25.910   9.040  22.970
  152BOLB   GL3 3639  25.850   8.930  22.570
  152BOLB   GL4 3640  25.900   8.720  22.260
  152BOLB   C1C 3641  25.540   9.060  22.340
  152BOLB   C2C 3642  25.270   9.240  21.980
  152BOLB   C3C 3643  25.040   9.000  21.650
  152BOLB   C4C 3644  24.700   8.860  21.350
  152BOLB   C1D 3645  25.640   8.820  21.930
  152BOLB   C2D 3646  25.520   8.820  21.560
  152BOLB   C3D 3647  25.620   8.800  21.090
  152BOLB   C4D 3648  25.760   8.940  20.720
  153BOLB   NC1 3649  30.510   5.510  13.450
  153BOLB   PO1 3650  30.170   5.760  13.590
  153BOLB   GL1 3651  29.720   5.810  13.560
  153BOLB   GL2 3652  29.550   6.050  13.560
  153BOLB   C1A 3653  29.330   5.660  13.710
  153BOLB   C2A 3654  28.950   5.720  13.890
  153BOLB   C3A 3655  28.610   5.960  13.910
  153BOLB   C4A 3656  28.650   6.080  14.270
  153BOLB   C1B 3657  29.140   6.330  13.530
  153BOLB   C2B 3658  28.890   6.660  13.530
  153BOLB   C3B 3659  28.520   6.980  13.420
  153BOLB   C4B 3660  28.120   7.100  13.240
  153BOLB   NC2 3661  30.170   5.850  15.910
  153BOLB   PO2 3662  30.240   5.630  15.530
  153BOLB   GL3 3663  29.770   5.740  15.570
  153BOLB   GL4 3664  29.580   5.670  15.850
  153BOLB   C1C 3665  29.360   5.940  15.470
  153BOLB   C2C 3666  29.020   5.840  15.230
  153BOLB   C3C 3667  28.660   5.950  15.020
  153BOLB   C4C 3668  28.570   6.200  14.710
  153BOLB   C1D 3669  29.140   5.650  15.810
  153BOLB   C2D 3670  28.910   6.000  15.660
  153BOLB   C3D 3671  28.890   6.350  15.310
  153BOLB   C4D 3672  28.530   6.480  15.150
  154BOLB   NC1 3673  24.800   7.230  16.260
  154BOLB   PO1 3674  24.770   6.890  16.690
  154BOLB   GL1 3675  25.010   6.460  16.820
  154BOLB   GL2 3676  24.900   6.170  16.800
  154BOLB   C1A 3677  25.370   6.280  17.070
  154BOLB   C2A 3678  25.790   6.120  17.080
  154BOLB   C3A 3679  26.230   5.990  17.060
  154BOLB   C4A 3680  26.640   5.870  17.040
  154BOLB   C1B 3681  25.120   5.900  16.900
  154BOLB   C2B 3682  25.370   5.730  17.270
  154BOLB   C3B 3683  25.600   5.560  17.670
  154BOLB   C4B 3684  25.890   5.420  17.890
  154BOLB   NC2 3685  27.640   3.980  17.930
  154BOLB   PO2 3686  28.030   4.180  17.940
  154BOLB   GL3 3687  27.860   4.620  17.730
  154BOLB   GL4 3688  28.150   4.880  17.790
  154BOLB   C1C 3689  27.570   4.520  17.400
  154BOLB   C2C 3690  27.160   4.610  17.340
  154BOLB   C3C 3691  27.050   5.030  17.190
  154BOLB   C4C 3692  26.860   5.510  17.190
  154BOLB   C1D 3693  27.830   5.130  17.810
  154BOLB   C2D 3694  27.670   5.460  17.970
  154BOLB   C3D 3695  27.310   5.680  17.890
  154BOLB   C4D 3696  27.060   6.000  17.650
  155BOLB   NC1 3697  27.280   9.220  17.230
  155BOLB   PO1 3698  27.080   9.250  16.830
  155BOLB   GL1 3699  27.430   8.930  16.870
  155BOLB   GL2 3700  27.790   8.990  17.060
  155BOLB   C1A 3701  27.850   8.590  16.810
  155BOLB   C2A 3702  28.250   8.480  16.850
  155BOLB   C3A 3703  28.600   8.400  17.070
  155BOLB   C4A 3704  29.010   8.330  17.180
  155BOLB   C1B 3705  28.100   9.050  17.340
  155BOLB   C2B 3706  28.460   8.800  17.430
  155BOLB   C3B 3707  28.740   8.490  17.560
  155BOLB   C4B 3708  29.070   8.330  17.830
  155BOLB   NC2 3709  30.000   6.310  18.120
  155BOLB   PO2 3710  30.120   6.610  18.410
  155BOLB   GL3 3711  29.920   6.870  18.190
  155BOLB   GL4 3712  29.840   6.750  17.970
  155BOLB   C1C 3713  29.900   7.280  18.120
  155BOLB   C2C 3714  29.630   7.680  17.910
  155BOLB   C3C 3715  29.620   8.130  17.720
  155BOLB   C4C 3716  29.340   8.220  17.420
  155BOLB   C1D 3717  29.400   6.660  18.310
  155BOLB   C2D 3718  28.920   6.900  18.100
  155BOLB   C3D 3719  28.690   6.820  17.900
  155BOLB   C4D 3720  28.520   6.730  17.540
  156BOLB   NC1 3721  24.550   7.180  15.790
  156BOLB   PO1 3722  24.730   6.710  15.970
  156BOLB   GL1 3723  25.090   6.480  16.050
  156BOLB   GL2 3724  25.200   6.490  16.330
  156BOLB   C1A 3725  25.300   6.090  16.000
  156BOLB   C2A 3726  25.330   5.640  16.200
  156BOLB   C3A 3727  25.340   5.210  16.220
  156BOLB   C4A 3728  25.610   4.850  16.260
  156BOLB   C1B 3729  25.310   6.110  16.480
  156BOLB   C2B 3730  25.530   5.690  16.650
  156BOLB   C3B 3731  25.840   5.540  16.980
  156BOLB   C4B 3732  25.930   5.190  17.000
  156BOLB   NC2 3733  26.220   2.740  17.060
  156BOLB   PO2 3734  26.620   2.670  16.770
  156BOLB   GL3 3735  26.330   3.130  16.750
  156BOLB   GL4 3736  26.230   3.210  16.370
  156BOLB   C1C 3737  26.110   3.390  16.950
  156BOLB   C2C 3738  26.010   3.850  16.800
  156BOLB   C3C 3739  26.010   4.110  16.530
  156BOLB   C4C 3740  25.750   4.350  16.200
  156BOLB   C1D 3741  26.110   3.620  16.250
  156BOLB   C2D 3742  26.400   3.970  16.210
  156BOLB   C3D 3743  26.270   4.300  15.960
  156BOLB   C4D 3744  26.230   4.690  15.690
  157BOLB   NC1 3745  24.500  10.670   9.280
  157BOLB   PO1 3746  24.710  10.650   8.830
  157BOLB   GL1 3747  24.930  10.430   8.450
  157BOLB   GL2 3748  25.210  10.580   8.360
  157BOLB   C1A 3749  24.860  10.210   8.080
  157BOLB   C2A 3750  24.980   9.860   7.860
  157BOLB   C3A 3751  25.120   9.510   7.700
  157BOLB   C4A 3752  25.130   9.170   7.900
  157BOLB   C1B 3753  25.320  10.220   8.150
  157BOLB   C2B 3754  25.490   9.880   7.910
  157BOLB   C3B 3755  25.540   9.770   7.580
  157BOLB   C4B 3756  25.610   9.430   7.380
  157BOLB   NC2 3757  26.650   8.230   5.980
  157BOLB   PO2 3758  26.100   8.250   5.950
  157BOLB   GL3 3759  25.810   8.260   6.280
  157BOLB   GL4 3760  25.800   7.930   6.390
  157BOLB   C1C 3761  25.840   8.420   6.690
  157BOLB   C2C 3762  25.680   8.390   7.020
  157BOLB   C3C 3763  25.660   8.430   7.510
  157BOLB   C4C 3764  25.480   8.840   7.750
  157BOLB   C1D 3765  26.150   8.000   6.780
  157BOLB   C2D 3766  26.210   8.420   7.050
  157BOLB   C3D 3767  26.220   8.800   7.330
  157BOLB   C4D 3768  26.190   9.260   7.290
  158BOLB   NC1 3769  20.680   5.340  16.710
  158BOLB   PO1 3770  20.440   5.410  17.090
  158BOLB   GL1 3771  20.670   5.120  17.290
  158BOLB   GL2 3772  20.960   5.070  17.130
  158BOLB   C1A 3773  20.720   4.870  17.530
  158BOLB   C2A 3774  20.940   4.520  17.650
  158BOLB   C3A 3775  20.970   4.290  18.110
  158BOLB   C4A 3776  20.750   4.260  18.550
  158BOLB   C1B 3777  21.340   4.750  17.360
  158BOLB   C2B 3778  21.570   4.340  17.450
  158BOLB   C3B 3779  21.700   3.910  17.450
  158BOLB   C4B 3780  21.940   3.690  17.120
  158BOLB   NC2 3781  20.450   2.100  19.850
  158BOLB   PO2 3782  20.510   2.170  19.390
  158BOLB   GL3 3783  20.730   2.470  19.210
  158BOLB   GL4 3784  20.990   2.300  18.990
  158BOLB   C1C 3785  20.760   2.810  18.840
  158BOLB   C2C 3786  20.980   3.090  18.680
  158BOLB   C3C 3787  20.970   3.490  18.800
  158BOLB   C4C 3788  20.760   3.890  18.720
  158BOLB   C1D 3789  21.380   2.380  19.190
  158BOLB   C2D 3790  21.330   2.760  19.280
  158BOLB   C3D 3791  20.980   3.170  19.190
  158BOLB   C4D 3792  20.820   3.650  19.290
  159BOLB   NC1 3793  28.130  10.590  14.920
  159BOLB   PO1 3794  28.310  10.760  14.560
  159BOLB   GL1 3795  28.790  10.740  14.360
  159BOLB   GL2 3796  29.070  11.030  14.510
  159BOLB   C1A 3797  29.220  10.520  14.270
  159BOLB   C2A 3798  29.340  10.210  13.910
  159BOLB   C3A 3799  29.430   9.780  13.880
  159BOLB   C4A 3800  29.690   9.470  13.970
  159BOLB   C1B 3801  29.480  10.990  14.190
  159BOLB   C2B 3802  29.870  10.910  14.040
  159BOLB   C3B 3803  30.330  11.140  14.020
  159BOLB   C4B 3804  30.380  11.610  13.770
  159BOLB   NC2 3805  31.410   8.450  14.000
  159BOLB   PO2 3806  31.360   7.970  13.970
  159BOLB   GL3 3807  30.940   7.870  14.080
  159BOLB   GL4 3808  30.820   7.620  14.020
  159BOLB   C1C 3809  30.520   8.020  13.910
  159BOLB   C2C 3810  30.280   8.490  13.940
  159BOLB   C3C 3811  30.010   8.820  14.040
  159BOLB   C4C 3812  30.050   9.270  13.970
  159BOLB   C1D 3813  30.460   7.760  14.300
  159BOLB   C2D 3814  30.350   7.860  14.680
  159BOLB   C3D 3815  29.950   7.940  14.860
  159BOLB   C4D 3816  29.610   8.040  14.500
  160BOLB   NC1 3817  23.310  11.020  19.780
  160BOLB   PO1 3818  23.480  11.400  19.930
  160BOLB   GL1 3819  23.530  11.540  20.290
  160BOLB   GL2 3820  23.700  11.890  20.350
  160BOLB   C1A 3821  23.550  11.360  20.680
  160BOLB   C2A 3822  23.650  11.520  21.100
  160BOLB   C3A 3823  23.680  11.470  21.510
  160BOLB   C4A 3824  23.600  11.750  21.850
  160BOLB   C1B 3825  23.850  11.890  20.790
  160BOLB   C2B 3826  24.190  11.640  21.070
  160BOLB   C3B 3827  24.330  11.510  21.480
  160BOLB   C4B 3828  24.770  11.360  21.520
  160BOLB   NC2 3829  24.460  12.590  24.080
  160BOLB   PO2 3830  24.750  12.310  23.770
  160BOLB   GL3 3831  24.650  12.490  23.540
  160BOLB   GL4 3832  24.780  12.890  23.630
  160BOLB   C1C 3833  24.350  12.360  23.160
  160BOLB   C2C 3834  24.150  12.450  22.780
  160BOLB   C3C 3835  24.070  12.250  22.460
  160BOLB   C4C 3836  23.830  12.130  22.090
  160BOLB   C1D 3837  24.810  13.290  23.340
  160BOLB   C2D 3838  24.580  13.260  22.940
  160BOLB   C3D 3839  24.320  13.190  22.610
  160BOLB   C4D 3840  24.290  13.130  22.130
  161BOLB   NC1 3841  27.720   4.020  18.790
  161BOLB   PO1 3842  27.370   4.000  18.350
  161BOLB   GL1 3843  27.040   4.290  18.150
  161BOLB   GL2 3844  26.680   4.150  18.150
  161BOLB   C1A 3845  26.870   4.510  17.800
  161BOLB   C2A 3846  26.880   4.850  17.700
  161BOLB   C3A 3847  26.560   5.160  17.520
  161BOLB   C4A 3848  26.420   5.260  17.170
  161BOLB   C1B 3849  26.360   4.350  17.810
  161BOLB   C2B 3850  26.020   4.550  17.890
  161BOLB   C3B 3851  25.700   4.830  17.820
  161BOLB   C4B 3852  25.300   4.760  17.770
  161BOLB   NC2 3853  27.540   3.530  16.300
  161BOLB   PO2 3854  27.350   3.450  16.670
  161BOLB   GL3 3855  27.120   3.730  16.400
  161BOLB   GL4 3856  26.980   3.520  16.120
  161BOLB   C1C 3857  26.900   4.010  16.220
  161BOLB   C2C 3858  26.620   4.300  16.440
  161BOLB   C3C 3859  26.400   4.600  16.590
  161BOLB   C4C 3860  26.400   4.960  16.740
  161BOLB   C1D 3861  26.890   3.340  15.670
  161BOLB   C2D 3862  27.000   3.410  15.250
  161BOLB   C3D 3863  26.960   3.460  14.760
  161BOLB   C4D 3864  26.660   3.610  14.550
  162BOLB   NC1 3865  24.920  12.530  19.270
  162BOLB   PO1 3866  24.710  12.440  19.650
  162BOLB   GL1 3867  24.470  12.360  19.970
  162BOLB   GL2 3868  24.500  11.980  20.130
  162BOLB   C1A 3869  24.500  12.450  20.350
  162BOLB   C2A 3870  24.720  12.650  20.720
  162BOLB   C3A 3871  24.940  12.710  21.100
  162BOLB   C4A 3872  24.970  12.960  21.520
  162BOLB   C1B 3873  24.780  12.040  20.490
  162BOLB   C2B 3874  24.800  12.210  20.930
  162BOLB   C3B 3875  24.930  12.210  21.420
  162BOLB   C4B 3876  24.950  11.860  21.620
  162BOLB   NC2 3877  26.150  13.630  23.520
  162BOLB   PO2 3878  26.540  13.540  23.270
  162BOLB   GL3 3879  26.380  13.590  22.900
  162BOLB   GL4 3880  26.570  13.700  22.600
  162BOLB   C1C 3881  26.050  13.700  22.590
  162BOLB   C2C 3882  25.780  13.490  22.370
  162BOLB   C3C 3883  25.660  13.210  21.900
  162BOLB   C4C 3884  25.210  13.280  21.800
  162BOLB   C1D 3885  26.860  13.630  22.310
  162BOLB   C2D 3886  26.810  13.890  21.890
  162BOLB   C3D 3887  26.720  14.040  21.500
  162BOLB   C4D 3888  26.810  14.500  21.320
  163BOLB   NC1 3889  16.440   9.100   9.730
  163BOLB   PO1 3890  16.810   8.860   9.560
  163BOLB   GL1 3891  16.810   8.480   9.410
  163BOLB   GL2 3892  16.630   8.260   9.690
  163BOLB   C1A 3893  16.680   8.310   8.920
  163BOLB   C2A 3894  16.450   8.230   8.630
  163BOLB   C3A 3895  16.180   7.970   8.480
  163BOLB   C4A 3896  15.920   7.730   8.220
  163BOLB   C1B 3897  16.860   7.990   9.330
  163BOLB   C2B 3898  16.860   7.730   8.980
  163BOLB   C3B 3899  16.750   7.830   8.490
  163BOLB   C4B 3900  16.850   7.600   8.110
  163BOLB   NC2 3901  14.790   6.980   5.720
  163BOLB   PO2 3902  15.050   6.860   6.200
  163BOLB   GL3 3903  15.350   6.860   6.600
  163BOLB   GL4 3904  15.700   6.870   6.550
  163BOLB   C1C 3905  15.460   7.080   6.940
  163BOLB   C2C 3906  15.590   7.220   7.260
  163BOLB   C3C 3907  15.520   7.540   7.530
  163BOLB   C4C 3908  15.750   7.710   7.870
  163BOLB   C1D 3909  15.960   6.900   6.890
  163BOLB   C2D 3910  16.140   7.280   7.080
  163BOLB   C3D 3911  16.050   7.550   7.420
  163BOLB   C4D 3912  16.450   7.580   7.700
  164BOLB   NC1 3913  27.990  13.400  11.740
  164BOLB   PO1 3914  27.960  13.720  11.590
  164BOLB   GL1 3915  28.330  13.730  11.580
  164BOLB   GL2 3916  28.360  13.800  11.270
  164BOLB   C1A 3917  28.630  13.500  11.770
  164BOLB   C2A 3918  28.870  13.310  12.030
  164BOLB   C3A 3919  29.270  13.230  12.220
  164BOLB   C4A 3920  29.640  13.100  11.980
  164BOLB   C1B 3921  28.730  14.080  11.210
  164BOLB   C2B 3922  29.090  14.120  11.060
  164BOLB   C3B 3923  29.230  13.880  10.800
  164BOLB   C4B 3924  29.620  13.670  10.700
  164BOLB   NC2 3925  31.680  13.490  10.290
  164BOLB   PO2 3926  31.820  13.400  10.690
  164BOLB   GL3 3927  31.600  13.560  11.060
  164BOLB   GL4 3928  31.520  13.810  10.950
  164BOLB   C1C 3929  31.140  13.480  11.280
  164BOLB   C2C 3930  30.680  13.390  11.360
  164BOLB   C3C 3931  30.320  13.160  11.560
  164BOLB   C4C 3932  30.050  13.260  11.880
  164BOLB   C1D 3933  31.160  13.770  10.800
  164BOLB   C2D 3934  30.690  13.970  10.780
  164BOLB   C3D 3935  30.330  13.760  11.100
  164BOLB   C4D 3936  30.160  13.670  11.470
  165BOLB   NC1 3937  27.590   9.570  16.200
  165BOLB   PO1 3938  27.540   9.850  16.540
  165BOLB   GL1 3939  27.970   9.530  16.540
  165BOLB   GL2 3940  28.240   9.750  16.630
  165BOLB   C1A 3941  28.340   9.290  16.460
  165BOLB   C2A 3942  28.660   9.100  16.300
  165BOLB   C3A 3943  29.010   8.810  16.170
  165BOLB   C4A 3944  29.110   8.680  15.760
  165BOLB   C1B 3945  28.630   9.660  16.760
  165BOLB   C2B 3946  28.860   9.430  16.980
  165BOLB   C3B 3947  29.190   9.380  17.120
  165BOLB   C4B 3948  29.580   9.440  16.960
  165BOLB   NC2 3949  31.910   8.970  15.190
  165BOLB   PO2 3950  31.650   8.880  15.590
  165BOLB   GL3 3951  31.240   8.990  15.400
  165BOLB   GL4 3952  31.390   9.130  15.170
  165BOLB   C1C 3953  30.830   9.050  15.540
  165BOLB   C2C 3954  30.390   9.090  15.430
  165BOLB   C3C 3955  29.910   9.110  15.640
  165BOLB   C4C 3956  29.470   8.960  15.890
  165BOLB   C1D 3957  31.070   9.380  15.050
  165BOLB   C2D 3958  30.650   9.550  14.810
  165BOLB   C3D 3959  30.280   9.750  14.810
  165BOLB   C4D 3960  30.190   9.810  15.260
  166BOLB   NC1 3961  27.960  11.110  13.690
  166BOLB   PO1 3962  28.450  11.140  13.690
  166BOLB   GL1 3963  28.850  10.820  13.600
  166BOLB   GL2 3964  28.980  10.770  13.880
  166BOLB   C1A 3965  29.240  10.450  13.510
  166BOLB   C2A 3966  29.410  10.110  13.400
  166BOLB   C3A 3967  29.540   9.700  13.320
  166BOLB   C4A 3968  29.700   9.340  13.000
  166BOLB   C1B 3969  29.510  10.650  13.860
  166BOLB   C2B 3970  29.770  10.320  13.620
  166BOLB   C3B 3971  29.750  10.380  13.180
  166BOLB   C4B 3972  29.610  10.250  12.790
  166BOLB   NC2 3973  32.310   8.750  13.140
  166BOLB   PO2 3974  32.020   9.000  13.400
  166BOLB   GL3 3975  31.620   9.380  13.410
  166BOLB   GL4 3976  31.680   9.630  13.660
  166BOLB   C1C 3977  31.200   9.310  13.310
  166BOLB   C2C 3978  30.870   8.960  13.310
  166BOLB   C3C 3979  30.490   9.080  13.100
  166BOLB   C4C 3980  30.160   9.160  12.960
  166BOLB   C1D 3981  31.210   9.630  13.660
  166BOLB   C2D 3982  30.830   9.760  13.890
  166BOLB   C3D 3983  30.430   9.760  13.840
  166BOLB   C4D 3984  29.990   9.860  13.710
  167BOLB   NC1 3985  16.830  15.250  19.610
  167BOLB   PO1 3986  17.050  15.390  19.930
  167BOLB   GL1 3987  16.910  15.530  20.290
  167BOLB   GL2 3988  16.660  15.650  20.370
  167BOLB   C1A 3989  17.030  15.540  20.720
  167BOLB   C2A 3990  17.030  15.640  21.140
  167BOLB   C3A 3991  16.750  15.790  21.350
  167BOLB   C4A 3992  16.540  15.670  21.730
  167BOLB   C1B 3993  16.380  16.030  20.670
  167BOLB   C2B 3994  16.190  16.240  21.120
  167BOLB   C3B 3995  15.850  16.310  21.410
  167BOLB   C4B 3996  15.460  16.500  21.420
  167BOLB   NC2 3997  16.630  16.020  24.610
  167BOLB   PO2 3998  16.570  15.840  24.140
  167BOLB   GL3 3999  16.880  15.780  23.840
  167BOLB   GL4 4000  16.950  15.940  23.660
  167BOLB   C1C 4001  16.960  15.490  23.450
  167BOLB   C2C 4002  16.880  15.570  22.980
  167BOLB   C3C 4003  16.720  15.550  22.630
  167BOLB   C4C 4004  16.520  15.580  22.170
  167BOLB   C1D 4005  16.730  15.960  23.220
  167BOLB   C2D 4006  16.690  16.010  22.810
  167BOLB   C3D 4007  16.840  15.930  22.430
  167BOLB   C4D 4008  17.220  16.120  22.200
  168BOLB   NC1 4009  28.470  14.000  14.880
  168BOLB   PO1 4010  28.670  13.850  15.270
  168BOLB   GL1 4011  28.920  14.200  15.440
  168BOLB   GL2 4012  29.260  14.030  15.440
  168BOLB   C1A 4013  29.200  14.610  15.410
  168BOLB   C2A 4014  29.600  14.770  15.210
  168BOLB   C3A 4015  30.030  14.510  15.230
  168BOLB   C4A 4016  30.220  14.260  15.610
  168BOLB   C1B 4017  29.610  14.290  15.490
  168BOLB   C2B 4018  29.710  14.810  15.800
  168BOLB   C3B 4019  30.090  14.830  15.750
  168BOLB   C4B 4020  30.550  14.800  15.750
  168BOLB   NC2 4021  32.350  15.010  16.920
  168BOLB   PO2 4022  32.440  14.850  16.530
  168BOLB   GL3 4023  32.050  14.720  16.440
  168BOLB   GL4 4024  31.910  14.940  16.220
  168BOLB   C1C 4025  31.740  14.480  16.290
  168BOLB   C2C 4026  31.330  14.390  16.290
  168BOLB   C3C 4027  31.040  14.080  16.020
  168BOLB   C4C 4028  30.660  14.110  15.790
  168BOLB   C1D 4029  31.530  14.910  16.040
  168BOLB   C2D 4030  31.050  14.800  16.040
  168BOLB   C3D 4031  30.720  14.520  16.220
  168BOLB   C4D 4032  30.290  14.430  16.080
  169BOLB   NC1 4033  25.760  11.370  19.000
  169BOLB   PO1 4034  25.490  11.320  19.370
  169BOLB   GL1 4035  25.710  11.330  19.700
  169BOLB   GL2 4036  25.790  11.760  19.910
  169BOLB   C1A 4037  26.030  11.320  20.130
  169BOLB   C2A 4038  26.310  11.400  20.490
  169BOLB   C3A 4039  26.600  11.240  20.670
  169BOLB   C4A 4040  26.460  11.190  21.110
  169BOLB   C1B 4041  25.870  11.870  20.300
  169BOLB   C2B 4042  25.950  11.720  20.660
  169BOLB   C3B 4043  26.000  11.700  21.060
  169BOLB   C4B 4044  25.830  11.610  21.400
  169BOLB   NC2 4045  26.410  12.240  23.130
  169BOLB   PO2 4046  26.710  11.770  23.100
  169BOLB   GL3 4047  27.040  11.910  22.720
  169BOLB   GL4 4048  27.210  12.210  22.640
  169BOLB   C1C 4049  27.170  11.740  22.340
  169BOLB   C2C 4050  27.350  11.550  22.000
  169BOLB   C3C 4051  27.070  11.410  21.710
  169BOLB   C4C 4052  26.650  11.350  21.570
  169BOLB   C1D 4053  27.200  12.210  22.200
  169BOLB   C2D 4054  27.050  12.290  21.800
  169BOLB   C3D 4055  26.970  12.290  21.480
  169BOLB   C4D 4056  26.970  12.080  21.050
  170BOLB   NC1 4057  24.420   7.310  11.520
  170BOLB   PO1 4058  24.690   6.990  11.400
  170BOLB   GL1 4059  25.020   6.960  11.360
  170BOLB   GL2 4060  25.270   7.090  11.550
  170BOLB   C1A 4061  25.300   6.760  11.010
  170BOLB   C2A 4062  25.290   6.320  10.940
  170BOLB   C3A 4063  25.070   5.930  10.700
  170BOLB   C4A 4064  25.330   5.500  10.480
  170BOLB   C1B 4065  25.480   6.710  11.470
  170BOLB   C2B 4066  25.510   6.190  11.410
  170BOLB   C3B 4067  25.530   5.820  11.810
  170BOLB   C4B 4068  25.500   5.870  12.180
  170BOLB   NC2 4069  25.210   3.190  10.190
  170BOLB   PO2 4070  24.690   3.190  10.170
  170BOLB   GL3 4071  24.690   3.580  10.090
  170BOLB   GL4 4072  24.970   3.600  10.280
  170BOLB   C1C 4073  25.010   4.020  10.010
  170BOLB   C2C 4074  25.310   4.310  10.100
  170BOLB   C3C 4075  25.410   4.700  10.240
  170BOLB   C4C 4076  25.370   5.190  10.190
  170BOLB   C1D 4077  24.990   4.030  10.540
  170BOLB   C2D 4078  24.850   4.280  10.890
  170BOLB   C3D 4079  25.050   4.610  11.100
  170BOLB   C4D 4080  25.210   4.790  11.490
  171BOLB   NC1 4081  22.740   8.010  20.080
  171BOLB   PO1 4082  23.080   8.240  19.810
  171BOLB   GL1 4083  23.310   7.930  19.940
  171BOLB   GL2 4084  23.110   7.720  20.180
  171BOLB   C1A 4085  23.540   7.610  20.090
  171BOLB   C2A 4086  23.700   7.240  20.360
  171BOLB   C3A 4087  23.360   7.140  20.760
  171BOLB   C4A 4088  22.930   7.130  20.900
  171BOLB   C1B 4089  23.030   7.330  20.430
  171BOLB   C2B 4090  22.930   6.920  20.440
  171BOLB   C3B 4091  22.870   6.670  20.730
  171BOLB   C4B 4092  22.580   6.370  21.040
  171BOLB   NC2 4093  23.170   5.900  23.060
  171BOLB   PO2 4094  23.320   6.290  22.960
  171BOLB   GL3 4095  23.110   6.580  22.640
  171BOLB   GL4 4096  23.300   6.360  22.390
  171BOLB   C1C 4097  23.210   6.880  22.380
  171BOLB   C2C 4098  22.910   6.710  22.040
  171BOLB   C3C 4099  22.700   6.690  21.710
  171BOLB   C4C 4100  22.830   6.770  21.290
  171BOLB   C1D 4101  23.300   6.440  21.980
  171BOLB   C2D 4102  23.270   6.720  21.610
  171BOLB   C3D 4103  23.280   6.780  21.120
  171BOLB   C4D 4104  23.490   6.610  20.760
  172BOLB   NC1 4105  23.340   9.800   8.770
  172BOLB   PO1 4106  23.360   9.410   8.500
  172BOLB   GL1 4107  23.130   9.220   8.190
  172BOLB   GL2 4108  23.090   9.460   7.980
  172BOLB   C1A 4109  23.210   8.880   7.860
  172BOLB   C2A 4110  23.460   8.460   7.700
  172BOLB   C3A 4111  23.780   8.120   7.650
  172BOLB   C4A 4112  24.100   8.090   7.310
  172BOLB   C1B 4113  22.860   9.460   7.620
  172BOLB   C2B 4114  22.970   9.550   7.170
  172BOLB   C3B 4115  22.640   9.660   6.910
  172BOLB   C4B 4116  22.540  10.020   6.720
  172BOLB   NC2 4117  25.450   7.550   4.970
  172BOLB   PO2 4118  25.250   7.810   5.210
  172BOLB   GL3 4119  25.300   7.740   5.750
  172BOLB   GL4 4120  25.440   7.970   5.940
  172BOLB   C1C 4121  24.940   7.780   6.060
  172BOLB   C2C 4122  24.720   7.780   6.350
  172BOLB   C3C 4123  24.610   7.810   6.750
  172BOLB   C4C 4124  24.250   7.880   6.980
  172BOLB   C1D 4125  25.320   7.790   6.380
  172BOLB   C2D 4126  25.120   7.780   6.680
  172BOLB   C3D 4127  25.010   7.520   7.080
  172BOLB   C4D 4128  25.090   7.020   6.930
  173BOLB   NC1 4129  28.350   7.300  21.140
  173BOLB   PO1 4130  28.450   6.960  20.990
  173BOLB   GL1 4131  28.010   7.120  20.800
  173BOLB   GL2 4132  27.810   7.340  20.960
  173BOLB   C1A 4133  27.920   7.140  20.360
  173BOLB   C2A 4134  27.630   7.470  20.170
  173BOLB   C3A 4135  27.440   7.880  20.300
  173BOLB   C4A 4136  27.340   8.210  20.630
  173BOLB   C1B 4137  27.890   7.640  20.660
  173BOLB   C2B 4138  28.010   7.760  20.250
  173BOLB   C3B 4139  28.060   7.570  19.910
  173BOLB   C4B 4140  28.020   7.150  19.780
  173BOLB   NC2 4141  28.820   8.170  20.860
  173BOLB   PO2 4142  28.820   8.460  21.250
  173BOLB   GL3 4143  28.480   8.720  21.240
  173BOLB   GL4 4144  28.230   8.860  20.970
  173BOLB   C1C 4145  28.230   8.780  21.550
  173BOLB   C2C 4146  27.790   8.700  21.450
  173BOLB   C3C 4147  27.580   8.660  21.150
  173BOLB   C4C 4148  27.320   8.590  20.780
  173BOLB   C1D 4149  27.820   8.750  20.710
  173BOLB   C2D 4150  27.670   8.650  20.300
  173BOLB   C3D 4151  27.480   8.730  19.810
  173BOLB   C4D 4152  27.400   8.500  19.500
  174BOLB   NC1 4153  19.230   4.980  14.720
  174BOLB   PO1 4154  19.260   4.780  15.090
  174BOLB   GL1 4155  19.460   4.520  14.870
  174BOLB   GL2 4156  19.690   4.790  14.690
  174BOLB   C1A 4157  19.480   4.100  14.980
  174BOLB   C2A 4158  19.420   3.720  15.340
  174BOLB   C3A 4159  19.170   3.380  15.460
  174BOLB   C4A 4160  19.070   3.090  15.810
  174BOLB   C1B 4161  19.810   4.360  14.570
  174BOLB   C2B 4162  19.730   3.990  14.530
  174BOLB   C3B 4163  19.550   3.550  14.350
  174BOLB   C4B 4164  19.840   3.200  14.070
  174BOLB   NC2 4165  20.850   0.860  14.920
  174BOLB   PO2 4166  20.550   1.060  15.290
  174BOLB   GL3 4167  20.250   1.290  15.120
  174BOLB   GL4 4168  20.370   1.560  15.270
  174BOLB   C1C 4169  19.870   1.670  15.220
  174BOLB   C2C 4170  19.720   2.100  15.300
  174BOLB   C3C 4171  19.510   2.500  15.510
  174BOLB   C4C 4172  19.360   2.730  15.880
  174BOLB   C1D 4173  20.190   2.010  15.120
  174BOLB   C2D 4174  20.220   2.460  15.130
  174BOLB   C3D 4175  20.430   2.890  14.840
  174BOLB   C4D 4176  20.790   3.090  14.570
  175BOLB   NC1 4177  20.790   7.000  19.380
  175BOLB   PO1 4178  20.500   7.160  19.490
  175BOLB   GL1 4179  20.630   7.030  19.900
  175BOLB   GL2 4180  20.640   7.210  20.100
  175BOLB   C1A 4181  21.060   6.840  20.180
  175BOLB   C2A 4182  21.190   6.730  20.470
  175BOLB   C3A 4183  21.480   6.530  20.790
  175BOLB   C4A 4184  21.700   6.270  20.680
  175BOLB   C1B 4185  20.580   6.820  20.390
  175BOLB   C2B 4186  20.360   6.770  20.780
  175BOLB   C3B 4187  20.320   6.620  21.160
  175BOLB   C4B 4188  20.440   6.310  21.370
  175BOLB   NC2 4189  22.680   4.670  22.220
  175BOLB   PO2 4190  22.340   4.420  22.050
  175BOLB   GL3 4191  22.110   4.780  21.850
  175BOLB   GL4 4192  21.740   4.780  21.750
  175BOLB   C1C 4193  22.180   5.040  21.570
  175BOLB   C2C 4194  22.030   5.170  21.200
  175BOLB   C3C 4195  21.760   5.510  20.990
  175BOLB   C4C 4196  21.630   5.920  20.880
  175BOLB   C1D 4197  21.710   5.220  21.590
  175BOLB   C2D 4198  21.380   5.450  21.760
  175BOLB   C3D 4199  21.000   5.650  21.870
  175BOLB   C4D 4200  20.530   5.630  21.940
  176BOLB   NC1 4201  21.650   7.820  19.300
  176BOLB   PO1 4202  21.950   7.720  19.520
  176BOLB   GL1 4203  22.270   7.390  19.590
  176BOLB   GL2 4204  22.450   7.300  19.380
  176BOLB   C1A 4205  22.160   6.920  19.620
  176BOLB   C2A 4206  22.260   6.560  19.870
  176BOLB   C3A 4207  22.440   6.320  20.080
  176BOLB   C4A 4208  22.600   5.990  20.310
  176BOLB   C1B 4209  22.650   6.930  19.670
  176BOLB   C2B 4210  22.790   6.640  19.940
  176BOLB   C3B 4211  23.040   6.440  20.250
  176BOLB   C4B 4212  23.300   6.160  20.430
  176BOLB   NC2 4213  23.130   5.110  22.870
  176BOLB   PO2 4214  22.830   5.120  22.550
  176BOLB   GL3 4215  22.580   5.190  22.100
  176BOLB   GL4 4216  22.260   5.320  22.120
  176BOLB   C1C 4217  22.580   5.360  21.670
  176BOLB   C2C 4218  22.410   5.470  21.380
  176BOLB   C3C 4219  22.320   5.580  21.010
  176BOLB   C4C 4220  22.440   5.820  20.740
  176BOLB   C1D 4221  22.000   5.500  21.830
  176BOLB   C2D 4222  21.870   5.690  21.460
  176BOLB   C3D 4223  21.840   6.130  21.330
  176BOLB   C4D 4224  21.630   6.450  21.330
  177BOLB   NC1 4225  21.960   9.370  20.260
  177BOLB   PO1 4226  21.570   9.580  20.290
  177BOLB   GL1 4227  21.670   9.560  20.690
  177BOLB   GL2 4228  21.460   9.750  20.830
  177BOLB   C1A 4229  21.590   9.230  20.990
  177BOLB   C2A 4230  21.790   9.040  21.330
  177BOLB   C3A 4231  21.980   8.780  21.650
  177BOLB   C4A 4232  22.290   8.580  21.830
  177BOLB   C1B 4233  21.560   9.660  21.290
  177BOLB   C2B 4234  21.600   9.630  21.680
  177BOLB   C3B 4235  21.530   9.520  22.160
  177BOLB   C4B 4236  21.900   9.610  22.380
  177BOLB   NC2 4237  22.320   9.580  24.540
  177BOLB   PO2 4238  22.470   9.190  24.350
  177BOLB   GL3 4239  22.280   9.060  23.950
  177BOLB   GL4 4240  22.020   9.330  23.720
  177BOLB   C1C 4241  22.290   8.970  23.460
  177BOLB   C2C 4242  22.250   8.720  23.070
  177BOLB   C3C 4243  22.210   8.510  22.750
  177BOLB   C4C 4244  22.140   8.470  22.310
  177BOLB   C1D 4245  22.280   9.450  23.300
  177BOLB   C2D 4246  22.270   9.250  22.930
  177BOLB   C3D 4247  22.580   8.930  22.630
  177BOLB   C4D 4248  22.670   8.780  22.220
  178BOLB   NC1 4249  25.310   8.240  17.540
  178BOLB   PO1 4250  25.770   8.340  17.750
  178BOLB   GL1 4251  26.030   8.070  18.040
  178BOLB   GL2 4252  26.390   8.090  17.860
  178BOLB   C1A 4253  26.150   7.790  18.300
  178BOLB   C2A 4254  26.270   7.400  18.520
  178BOLB   C3A 4255  26.770   7.250  18.510
  178BOLB   C4A 4256  27.110   7.130  18.230
  178BOLB   C1B 4257  26.760   7.840  18.050
  178BOLB   C2B 4258  27.090   7.610  18.190
  178BOLB   C3B 4259  27.400   7.430  18.420
  178BOLB   C4B 4260  27.770   7.110  18.400
  178BOLB   NC2 4261  28.810   5.140  18.890
  178BOLB   PO2 4262  28.650   5.560  19.060
  178BOLB   GL3 4263  28.550   5.810  18.730
  178BOLB   GL4 4264  28.690   6.090  18.550
  178BOLB   C1C 4265  28.250   5.940  18.400
  178BOLB   C2C 4266  27.870   6.220  18.480
  178BOLB   C3C 4267  27.730   6.610  18.160
  178BOLB   C4C 4268  27.370   6.920  18.150
  178BOLB   C1D 4269  28.460   6.370  18.840
  178BOLB   C2D 4270  28.200   6.830  18.710
  178BOLB   C3D 4271  27.920   7.040  18.900
  178BOLB   C4D 4272  27.770   7.530  18.870
  179BOLB   NC1 4273  26.350   3.980  20.430
  179BOLB   PO1 4274  26.040   4.210  20.370
  179BOLB   GL1 4275  25.810   4.400  20.010
  179BOLB   GL2 4276  25.600   4.200  19.740
  179BOLB   C1A 4277  25.440   4.660  19.910
  179BOLB   C2A 4278  25.060   4.930  19.660
  179BOLB   C3A 4279  24.980   5.130  19.260
  179BOLB   C4A 4280  24.770   5.620  19.170
  179BOLB   C1B 4281  25.370   4.430  19.460
  179BOLB   C2B 4282  24.920   4.230  19.300
  179BOLB   C3B 4283  24.540   4.390  19.100
  179BOLB   C4B 4284  24.140   4.720  18.940
  179BOLB   NC2 4285  24.310   7.960  18.580
  179BOLB   PO2 4286  23.900   7.790  18.630
  179BOLB   GL3 4287  24.230   7.470  18.710
  179BOLB   GL4 4288  24.340   7.620  19.020
  179BOLB   C1C 4289  24.300   6.920  18.780
  179BOLB   C2C 4290  24.430   6.630  19.110
  179BOLB   C3C 4291  24.620   6.430  19.300
  179BOLB   C4C 4292  24.570   5.970  19.230
  179BOLB   C1D 4293  23.940   7.500  19.250
  179BOLB   C2D 4294  23.960   7.120  19.260
  179BOLB   C3D 4295  24.020   6.670  19.330
  179BOLB   C4D 4296  24.120   6.240  19.160
  180BOLB   NC1 4297  24.650   6.460  16.460
  180BOLB   PO1 4298  24.600   6.120  16.230
  180BOLB   GL1 4299  24.910   5.850  16.320
  180BOLB   GL2 4300  24.910   5.820  15.920
  180BOLB   C1A 4301  25.040   5.510  16.550
  180BOLB   C2A 4302  25.170   5.340  17.040
  180BOLB   C3A 4303  25.150   5.060  17.390
  180BOLB   C4A 4304  24.930   4.650  17.380
  180BOLB   C1B 4305  24.860   5.390  16.030
  180BOLB   C2B 4306  24.980   4.930  16.040
  180BOLB   C3B 4307  25.180   4.590  16.040
  180BOLB   C4B 4308  25.230   4.200  16.030
  180BOLB   NC2 4309  24.200   2.620  18.110
  180BOLB   PO2 4310  24.490   2.750  17.830
  180BOLB   GL3 4311  24.310   3.140  17.810
  180BOLB   GL4 4312  23.930   3.030  17.840
  180BOLB   C1C 4313  24.190   3.460  17.680
  180BOLB   C2C 4314  24.290   3.630  17.340
  180BOLB   C3C 4315  24.720   3.790  17.290
  180BOLB   C4C 4316  24.750   4.200  17.310
  180BOLB   C1D 4317  23.810   3.260  17.420
  180BOLB   C2D 4318  23.640   3.500  17.110
  180BOLB   C3D 4319  23.500   3.680  16.680
  180BOLB   C4D 4320  23.490   3.750  16.150
  181BOLB   NC1 4321  20.280  12.680   8.220
  181BOLB   PO1 4322  20.420  12.680   7.730
  181BOLB   GL1 4323  20.360  12.530   7.370
  181BOLB   GL2 4324  20.020  12.340   7.450
  181BOLB   C1A 4325  20.460  12.580   6.970
  181BOLB   C2A 4326  20.310  12.570   6.510
  181BOLB   C3A 4327  20.000  12.440   6.170
  181BOLB   C4A 4328  19.880  12.410   5.720
  181BOLB   C1B 4329  20.000  12.330   6.990
  181BOLB   C2B 4330  20.040  12.100   6.560
  181BOLB   C3B 4331  19.990  11.970   6.130
  181BOLB   C4B 4332  19.980  11.840   5.760
  181BOLB   NC2 4333  19.680  11.550   3.180
  181BOLB   PO2 4334  19.810  11.420   3.550
  181BOLB   GL3 4335  19.880  11.640   3.760
  181BOLB   GL4 4336  19.610  11.830   3.940
  181BOLB   C1C 4337  19.980  11.680   4.210
  181BOLB   C2C 4338  20.100  11.920   4.580
  181BOLB   C3C 4339  19.980  11.980   5.040
  181BOLB   C4C 4340  19.860  12.270   5.250
  181BOLB   C1D 4341  19.560  11.970   4.380
  181BOLB   C2D 4342  19.450  12.010   4.850
  181BOLB   C3D 4343  19.370  12.170   5.260
  181BOLB   C4D 4344  19.440  12.220   5.730
  182BOLB   NC1 4345  19.260   5.610  16.160
  182BOLB   PO1 4346  19.100   5.180  16.070
  182BOLB   GL1 4347  19.240   4.750  16.200
  182BOLB   GL2 4348  19.020   4.530  16.040
  182BOLB   C1A 4349  19.300   4.430  16.490
  182BOLB   C2A 4350  19.390   4.040  16.710
  182BOLB   C3A 4351  19.360   3.940  17.060
  182BOLB   C4A 4352  19.140   3.750  17.250
  182BOLB   C1B 4353  18.710   4.220  15.950
  182BOLB   C2B 4354  18.530   3.800  15.880
  182BOLB   C3B 4355  18.530   3.400  15.860
  182BOLB   C4B 4356  18.610   3.030  15.650
  182BOLB   NC2 4357  19.450   1.740  18.590
  182BOLB   PO2 4358  19.200   1.930  18.260
  182BOLB   GL3 4359  19.440   2.060  17.940
  182BOLB   GL4 4360  19.680   1.990  17.850
  182BOLB   C1C 4361  19.310   2.410  17.780
  182BOLB   C2C 4362  18.900   2.630  17.630
  182BOLB   C3C 4363  18.690   3.060  17.430
  182BOLB   C4C 4364  18.810   3.480  17.320
  182BOLB   C1D 4365  19.760   2.370  17.570
  182BOLB   C2D 4366  19.830   2.640  17.280
  182BOLB   C3D 4367  19.660   2.890  16.930
  182BOLB   C4D 4368  19.480   2.770  16.550
  183BOLB   NC1 4369  28.370  13.390  23.010
  183BOLB   PO1 4370  28.510  13.250  22.500
  183BOLB   GL1 4371  28.230  13.480  22.260
  183BOLB   GL2 4372  28.430  13.680  22.090
  183BOLB   C1A 4373  27.970  13.470  21.950
  183BOLB   C2A 4374  27.690  13.810  21.690
  183BOLB   C3A 4375  27.610  13.840  21.270
  183BOLB   C4A 4376  27.790  13.590  20.940
  183BOLB   C1B 4377  28.160  13.890  21.730
  183BOLB   C2B 4378  28.040  14.150  21.330
  183BOLB   C3B 4379  27.720  14.360  21.100
  183BOLB   C4B 4380  27.530  14.560  20.810
  183BOLB   NC2 4381  25.640  13.400  19.310
  183BOLB   PO2 4382  25.910  13.270  19.400
  183BOLB   GL3 4383  26.140  13.180  19.700
  183BOLB   GL4 4384  26.110  12.850  19.630
  183BOLB   C1C 4385  26.480  13.200  20.000
  183BOLB   C2C 4386  26.930  13.290  20.210
  183BOLB   C3C 4387  27.220  13.200  20.510
  183BOLB   C4C 4388  27.630  13.520  20.470
  183BOLB   C1D 4389  26.310  12.740  20.020
  183BOLB   C2D 4390  26.570  12.850  20.380
  183BOLB   C3D 4391  26.740  12.830  20.770
  183BOLB   C4D 4392  26.760  12.570  21.100
  184BOLB   NC1 4393  27.740  10.320  16.770
  184BOLB   PO1 4394  28.040  10.690  16.630
  184BOLB   GL1 4395  28.400  10.500  16.870
  184BOLB   GL2 4396  28.340  10.330  17.110
  184BOLB   C1A 4397  28.830  10.510  17.080
  184BOLB   C2A 4398  29.100  10.240  17.420
  184BOLB   C3A 4399  29.270  10.310  17.840
  184BOLB   C4A 4400  29.450  10.610  18.100
  184BOLB   C1B 4401  28.640  10.030  17.100
  184BOLB   C2B 4402  28.910   9.760  17.350
  184BOLB   C3B 4403  29.210   9.610  17.580
  184BOLB   C4B 4404  29.520   9.820  17.830
  184BOLB   NC2 4405  31.620  11.350  18.740
  184BOLB   PO2 4406  31.390  11.090  19.050
  184BOLB   GL3 4407  30.940  11.070  19.200
  184BOLB   GL4 4408  30.840  11.120  18.860
  184BOLB   C1C 4409  30.540  10.840  19.100
  184BOLB   C2C 4410  30.280  10.830  18.810
  184BOLB   C3C 4411  29.880  10.870  18.640
  184BOLB   C4C 4412  29.650  10.750  18.420
  184BOLB   C1D 4413  30.730  11.570  18.710
  184BOLB   C2D 4414  30.580  11.980  18.890
  184BOLB   C3D 4415  30.480  12.480  19.000
  184BOLB   C4D 4416  30.310  12.890  18.760
  185BOLB   NC1 4417  27.980  10.110  14.720
  185BOLB   PO1 4418  28.160  10.140  14.340
  185BOLB   GL1 4419  28.590  10.240  14.350
  185BOLB   GL2 4420  28.790  10.240  13.930
  185BOLB   C1A 4421  28.950  10.120  14.400
  185BOLB   C2A 4422  29.400  10.130  14.610
  185BOLB   C3A 4423  29.680   9.800  14.810
  185BOLB   C4A 4424  29.870   9.440  14.750
  185BOLB   C1B 4425  28.980   9.900  14.000
  185BOLB   C2B 4426  28.960   9.460  13.980
  185BOLB   C3B 4427  29.280   9.230  14.030
  185BOLB   C4B 4428  29.530   9.090  14.250
  185BOLB   NC2 4429  32.350   8.910  14.160
  185BOLB   PO2 4430  31.920   8.730  14.050
  185BOLB   GL3 4431  31.590   8.890  14.270
  185BOLB   GL4 4432  31.200   8.910  14.190
  185BOLB   C1C 4433  31.310   9.030  14.710
  185BOLB   C2C 4434  30.870   8.960  15.040
  185BOLB   C3C 4435  30.420   8.920  15.000
  185BOLB   C4C 4436  30.110   9.130  15.000
  185BOLB   C1D 4437  30.880   9.360  14.210
  185BOLB   C2D 4438  30.490   9.620  14.250
  185BOLB   C3D 4439  30.420   9.950  14.310
  185BOLB   C4D 4440  30.450  10.450  14.340
  186BOLB   NC1 4441  23.920  13.300  24.030
  186BOLB   PO1 4442  23.600  13.660  24.200
  186BOLB   GL1 4443  23.220  13.440  24.000
  186BOLB   GL2 4444  23.290  13.770  23.830
  186BOLB   C1A 4445  23.140  13.140  23.670
  186BOLB   C2A 4446  22.980  12.870  23.340
  186BOLB   C3A 4447  23.000  12.600  22.860
  186BOLB   C4A 4448  22.820  12.580  22.430
  186BOLB   C1B 4449  23.220  13.610  23.470
  186BOLB   C2B 4450  23.200  13.410  23.100
  186BOLB   C3B 4451  22.880  13.290  22.720
  186BOLB   C4B 4452  22.680  13.160  22.380
  186BOLB   NC2 4453  22.440  12.990  19.890
  186BOLB   PO2 4454  22.580  12.580  19.930
  186BOLB   GL3 4455  22.560  12.420  20.340
  186BOLB   GL4 4456  22.300  12.380  20.580
  186BOLB   C1C 4457  22.690  12.550  20.820
  186BOLB   C2C 4458  22.640  12.560  21.240
  186BOLB   C3C 4459  22.650  12.820  21.590
  186BOLB   C4C 4460  22.770  12.820  22.040
  186BOLB   C1D 4461  22.220  12.520  20.990
  186BOLB   C2D 4462  22.210  12.230  21.390
  186BOLB   C3D 4463  22.270  12.020  21.890
  186BOLB   C4D 4464  22.510  12.010  22.190
  187BOLB   NC1 4465  24.590  10.400  19.480
  187BOLB   PO1 4466  24.220  10.590  19.610
  187BOLB   GL1 4467  24.300  10.670  20.030
  187BOLB   GL2 4468  24.070  10.710  20.290
  187BOLB   C1A 4469  24.500  10.440  20.260
  187BOLB   C2A 4470  24.840  10.360  20.380
  187BOLB   C3A 4471  25.050  10.430  20.830
  187BOLB   C4A 4472  25.050  10.430  21.230
  187BOLB   C1B 4473  23.870  10.830  20.640
  187BOLB   C2B 4474  23.730  10.970  21.110
  187BOLB   C3B 4475  23.870  10.680  21.520
  187BOLB   C4B 4476  23.890  10.800  21.970
  187BOLB   NC2 4477  25.420  11.790  23.580
  187BOLB   PO2 4478  25.270  11.380  23.520
  187BOLB   GL3 4479  25.100  11.160  23.120
  187BOLB   GL4 4480  25.100  10.780  23.060
  187BOLB   C1C 4481  24.670  11.100  22.900
  187BOLB   C2C 4482  24.610  10.850  22.590
  187BOLB   C3C 4483  24.720  10.610  22.260
  187BOLB   C4C 4484  24.780  10.400  21.780
  187BOLB   C1D 4485  25.190  10.990  22.700
  187BOLB   C2D 4486  25.350  11.080  22.350
  187BOLB   C3D 4487  25.560  11.340  22.200
  187BOLB   C4D 4488  25.810  11.770  22.160
  188BOLB   NC1 4489  26.640   8.050  15.220
  188BOLB   PO1 4490  26.340   7.760  15.190
  188BOLB   GL1 4491  26.650   7.520  15.330
  188BOLB   GL2 4492  26.890   7.570  15.160
  188BOLB   C1A 4493  26.920   7.140  15.250
  188BOLB   C2A 4494  27.100   6.730  15.260
  188BOLB   C3A 4495  27.240   6.480  14.950
  188BOLB   C4A 4496  27.400   6.180  14.630
  188BOLB   C1B 4497  27.000   7.360  14.860
  188BOLB   C2B 4498  27.430   7.130  14.830
  188BOLB   C3B 4499  27.850   6.890  14.950
  188BOLB   C4B 4500  28.160   6.800  15.190
  188BOLB   NC2 4501  28.670   4.220  15.340
  188BOLB   PO2 4502  29.030   4.530  15.280
  188BOLB   GL3 4503  28.540   4.710  15.320
  188BOLB   GL4 4504  28.340   4.780  15.510
  188BOLB   C1C 4505  28.530   5.140  15.150
  188BOLB   C2C 4506  28.250   5.480  15.160
  188BOLB   C3C 4507  27.920   5.620  14.810
  188BOLB   C4C 4508  27.700   5.920  14.620
  188BOLB   C1D 4509  28.160   5.130  15.550
  188BOLB   C2D 4510  27.970   5.540  15.580
  188BOLB   C3D 4511  27.880   5.880  15.270
  188BOLB   C4D 4512  27.510   6.030  15.050
  189BOLB   NC1 4513  27.300   6.820  21.440
  189BOLB   PO1 4514  27.520   6.560  21.260
  189BOLB   GL1 4515  27.500   6.890  20.920
  189BOLB   GL2 4516  27.130   6.920  20.970
  189BOLB   C1A 4517  27.370   7.100  20.640
  189BOLB   C2A 4518  27.180   7.290  20.380
  189BOLB   C3A 4519  27.200   7.570  19.950
  189BOLB   C4A 4520  27.180   7.500  19.550
  189BOLB   C1B 4521  26.770   7.150  20.780
  189BOLB   C2B 4522  26.680   7.010  20.270
  189BOLB   C3B 4523  26.260   7.120  19.920
  189BOLB   C4B 4524  26.000   7.400  19.680
  189BOLB   NC2 4525  25.870   8.590  18.180
  189BOLB   PO2 4526  26.230   8.540  17.930
  189BOLB   GL3 4527  26.260   8.380  18.340
  189BOLB   GL4 4528  25.990   8.230  18.520
  189BOLB   C1C 4529  26.560   8.040  18.470
  189BOLB   C2C 4530  26.690   7.700  18.660
  189BOLB   C3C 4531  27.090   7.540  18.770
  189BOLB   C4C 4532  27.300   7.570  19.110
  189BOLB   C1D 4533  26.090   8.000  18.870
  189BOLB   C2D 4534  26.240   7.600  18.960
  189BOLB   C3D 4535  26.230   7.270  19.230
  189BOLB   C4D 4536  26.120   6.890  19.470
  190BOLB   NC1 4537  21.920   3.990  21.810
  190BOLB   PO1 4538  22.090   4.360  21.560
  190BOLB   GL1 4539  22.170   4.610  21.280
  190BOLB   GL2 4540  22.470   4.530  21.080
  190BOLB   C1A 4541  22.020   4.690  20.870
  190BOLB   C2A 4542  21.970   5.040  20.650
  190BOLB   C3A 4543  22.130   5.470  20.550
  190BOLB   C4A 4544  21.980   5.860  20.500
  190BOLB   C1B 4545  22.510   4.630  20.630
  190BOLB   C2B 4546  22.870   4.740  20.320
  190BOLB   C3B 4547  22.920   5.090  20.010
  190BOLB   C4B 4548  23.000   5.480  19.750
  190BOLB   NC2 4549  22.100   7.410  18.460
  190BOLB   PO2 4550  21.820   7.600  18.800
  190BOLB   GL3 4551  21.940   7.330  19.140
  190BOLB   GL4 4552  21.650   7.280  19.390
  190BOLB   C1C 4553  21.840   6.880  19.270
  190BOLB   C2C 4554  21.720   6.590  19.640
  190BOLB   C3C 4555  21.820   6.380  19.920
  190BOLB   C4C 4556  21.980   6.210  20.230
  190BOLB   C1D 4557  21.790   7.190  19.750
  190BOLB   C2D 4558  21.930   7.050  20.020
  190BOLB   C3D 4559  22.000   6.690  20.290
  190BOLB   C4D 4560  22.270   6.420  20.590
  191BOLB   NC1 4561  26.160   8.530  13.750
  191BOLB   PO1 4562  26.350   8.100  13.680
  191BOLB   GL1 4563  26.680   7.850  13.610
  191BOLB   GL2 4564  26.530   7.630  13.670
  191BOLB   C1A 4565  27.040   7.800  13.510
  191BOLB   C2A 4566  27.430   7.680  13.490
  191BOLB   C3A 4567  27.780   7.390  13.520
  191BOLB   C4A 4568  27.940   7.070  13.840
  191BOLB   C1B 4569  26.920   7.420  13.750
  191BOLB   C2B 4570  27.290   7.340  13.850
  191BOLB   C3B 4571  27.710   7.400  14.100
  191BOLB   C4B 4572  28.120   7.430  14.160
  191BOLB   NC2 4573  29.930   5.040  13.160
  191BOLB   PO2 4574  30.010   5.520  13.160
  191BOLB   GL3 4575  29.590   5.740  13.120
  191BOLB   GL4 4576  29.630   5.760  12.920
  191BOLB   C1C 4577  29.200   5.900  13.250
  191BOLB   C2C 4578  28.760   6.080  13.400
  191BOLB   C3C 4579  28.440   6.420  13.520
  191BOLB   C4C 4580  28.080   6.730  13.770
  191BOLB   C1D 4581  29.290   6.010  12.770
  191BOLB   C2D 4582  29.150   6.370  12.550
  191BOLB   C3D 4583  28.920   6.740  12.570
  191BOLB   C4D 4584  28.740   7.160  12.510
  192BOLB   NC1 4585  22.440   5.830  12.230
  192BOLB   PO1 4586  22.050   5.770  12.040
  192BOLB   GL1 4587  22.050   5.270  12.130
  192BOLB   GL2 4588  21.710   5.080  12.320
  192BOLB   C1A 4589  22.340   4.950  12.190
  192BOLB   C2A 4590  22.580   4.720  12.480
  192BOLB   C3A 4591  22.560   4.350  12.630
  192BOLB   C4A 4592  22.730   3.970  12.640
  192BOLB   C1B 4593  21.850   4.860  11.940
  192BOLB   C2B 4594  21.870   4.710  11.510
  192BOLB   C3B 4595  22.240   4.430  11.370
  192BOLB   C4B 4596  22.730   4.350  11.370
  192BOLB   NC2 4597  22.920   1.570  12.570
  192BOLB   PO2 4598  23.290   1.900  12.440
  192BOLB   GL3 4599  23.550   2.210  12.580
  192BOLB   GL4 4600  23.610   2.130  12.930
  192BOLB   C1C 4601  23.480   2.660  12.470
  192BOLB   C2C 4602  23.300   2.930  12.240
  192BOLB   C3C 4603  23.030   3.260  12.300
  192BOLB   C4C 4604  22.950   3.650  12.430
  192BOLB   C1D 4605  23.500   2.540  12.960
  192BOLB   C2D 4606  23.610   2.950  13.000
  192BOLB   C3D 4607  23.750   3.300  13.010
  192BOLB   C4D 4608  23.910   3.560  12.650
  193BOLB   NC1 4609  22.450  13.750  20.310
  193BOLB   PO1 4610  22.390  14.120  20.070
  193BOLB   GL1 4611  22.250  14.160  20.540
  193BOLB   GL2 4612  22.390  13.950  20.740
  193BOLB   C1A 4613  22.060  14.210  21.020
  193BOLB   C2A 4614  21.950  14.490  21.310
  193BOLB   C3A 4615  21.930  14.600  21.730
  193BOLB   C4A 4616  21.840  14.690  22.170
  193BOLB   C1B 4617  22.440  13.840  21.160
  193BOLB   C2B 4618  22.480  13.720  21.620
  193BOLB   C3B 4619  22.550  13.970  22.060
  193BOLB   C4B 4620  22.550  14.320  22.400
  193BOLB   NC2 4621  23.260  13.690  24.540
  193BOLB   PO2 4622  23.070  13.930  24.290
  193BOLB   GL3 4623  22.940  14.190  23.960
  193BOLB   GL4 4624  22.880  14.030  23.590
  193BOLB   C1C 4625  22.700  14.510  23.720
  193BOLB   C2C 4626  22.310  14.510  23.450
  193BOLB   C3C 4627  21.940  14.640  23.050
  193BOLB   C4C 4628  21.750  14.760  22.630
  193BOLB   C1D 4629  22.410  13.830  23.530
  193BOLB   C2D 4630  22.290  13.730  23.140
  193BOLB   C3D 4631  22.520  13.740  22.740
  193BOLB   C4D 4632  22.880  13.660  22.370
  194BOLB   NC1 4633  23.030   8.180  18.950
  194BOLB   PO1 4634  23.220   8.000  19.300
  194BOLB   GL1 4635  23.500   7.700  19.490
  194BOLB   GL2 4636  23.780   7.870  19.500
  194BOLB   C1A 4637  23.620   7.320  19.730
  194BOLB   C2A 4638  23.810   6.950  19.710
  194BOLB   C3A 4639  23.750   6.580  19.830
  194BOLB   C4A 4640  23.990   6.300  20.070
  194BOLB   C1B 4641  23.940   7.730  19.800
  194BOLB   C2B 4642  24.160   7.280  19.970
  194BOLB   C3B 4643  24.220   7.120  20.330
  194BOLB   C4B 4644  24.490   7.460  20.650
  194BOLB   NC2 4645  25.790   5.330  21.630
  194BOLB   PO2 4646  25.980   5.630  21.320
  194BOLB   GL3 4647  25.720   5.690  20.940
  194BOLB   GL4 4648  25.730   5.930  20.700
  194BOLB   C1C 4649  25.340   5.610  20.880
  194BOLB   C2C 4650  24.880   5.690  20.730
  194BOLB   C3C 4651  24.620   5.860  20.460
  194BOLB   C4C 4652  24.260   6.120  20.430
  194BOLB   C1D 4653  25.720   6.030  20.270
  194BOLB   C2D 4654  25.510   6.260  19.960
  194BOLB   C3D 4655  25.080   6.430  19.740
  194BOLB   C4D 4656  24.810   6.740  19.840
  195BOLB   NC1 4657  23.230   5.510  16.660
  195BOLB   PO1 4658  23.420   5.470  16.360
  195BOLB   GL1 4659  23.610   5.070  16.420
  195BOLB   GL2 4660  23.770   5.120  16.730
  195BOLB   C1A 4661  23.770   4.700  16.430
  195BOLB   C2A 4662  23.690   4.410  16.500
  195BOLB   C3A 4663  23.850   4.020  16.550
  195BOLB   C4A 4664  24.310   3.810  16.470
  195BOLB   C1B 4665  23.910   5.110  17.180
  195BOLB   C2B 4666  24.250   4.840  17.290
  195BOLB   C3B 4667  24.300   4.420  17.230
  195BOLB   C4B 4668  24.330   4.090  17.560
  195BOLB   NC2 4669  24.400   1.370  15.920
  195BOLB   PO2 4670  24.300   1.750  16.160
  195BOLB   GL3 4671  24.310   2.110  16.020
  195BOLB   GL4 4672  24.090   2.180  15.850
  195BOLB   C1C 4673  24.530   2.510  16.030
  195BOLB   C2C 4674  24.480   2.770  16.300
  195BOLB   C3C 4675  24.740   3.150  16.450
  195BOLB   C4C 4676  24.620   3.520  16.640
  195BOLB   C1D 4677  24.150   2.500  15.660
  195BOLB   C2D 4678  23.930   2.910  15.680
  195BOLB   C3D 4679  23.730   3.190  15.910
  195BOLB   C4D 4680  23.440   3.310  16.350
  196BOLB   NC1 4681  26.010   7.560  16.100
  196BOLB   PO1 4682  26.370   7.680  15.920
  196BOLB   GL1 4683  26.680   7.480  15.850
  196BOLB   GL2 4684  26.700   7.500  16.210
  196BOLB   C1A 4685  26.800   7.100  15.710
  196BOLB   C2A 4686  27.100   6.900  15.690
  196BOLB   C3A 4687  27.360   6.550  15.870
  196BOLB   C4A 4688  27.380   6.010  15.770
  196BOLB   C1B 4689  26.960   7.240  16.200
  196BOLB   C2B 4690  27.170   6.830  16.230
  196BOLB   C3B 4691  27.310   6.390  16.440
  196BOLB   C4B 4692  27.510   6.010  16.500
  196BOLB   NC2 4693  28.660   3.570  15.870
  196BOLB   PO2 4694  28.650   3.990  15.890
  196BOLB   GL3 4695  28.320   4.250  15.670
  196BOLB   GL4 4696  28.320   4.480  15.990
  196BOLB   C1C 4697  28.030   4.450  15.250
  196BOLB   C2C 4698  27.960   4.910  15.160
  196BOLB   C3C 4699  27.670   5.350  15.160
  196BOLB   C4C 4700  27.470   5.670  15.430
  196BOLB   C1D 4701  28.180   4.970  16.050
  196BOLB   C2D 4702  28.160   5.460  16.090
  196BOLB   C3D 4703  27.910   5.920  15.950
  196BOLB   C4D 4704  27.800   6.250  16.200
  197BOLB   NC1 4705  25.670  14.130  19.440
  197BOLB   PO1 4706  25.680  13.750  19.630
  197BOLB   GL1 4707  26.090  13.860  19.780
  197BOLB   GL2 4708  26.060  14.130  19.860
  197BOLB   C1A 4709  26.510  13.800  19.900
  197BOLB   C2A 4710  26.850  13.840  20.160
  197BOLB   C3A 4711  27.120  13.710  20.450
  197BOLB   C4A 4712  27.270  13.610  20.820
  197BOLB   C1B 4713  25.920  14.560  20.130
  197BOLB   C2B 4714  25.760  14.940  20.390
  197BOLB   C3B 4715  25.620  15.320  20.660
  197BOLB   C4B 4716  25.500  15.470  21.030
  197BOLB   NC2 4717  27.800  12.810  23.090
  197BOLB   PO2 4718  27.870  12.450  22.860
  197BOLB   GL3 4719  27.520  12.720  22.620
  197BOLB   GL4 4720  27.620  12.970  22.480
  197BOLB   C1C 4721  27.230  12.780  22.350
  197BOLB   C2C 4722  27.160  12.800  21.820
  197BOLB   C3C 4723  27.120  13.090  21.500
  197BOLB   C4C 4724  27.260  13.260  21.050
  197BOLB   C1D 4725  27.560  13.140  21.980
  197BOLB   C2D 4726  27.630  12.950  21.590
  197BOLB   C3D 4727  27.740  13.040  21.190
  197BOLB   C4D 4728  27.670  13.100  20.810
  198BOLB   NC1 4729  26.220  17.020  10.180
  198BOLB   PO1 4730  26.570  17.260  10.400
  198BOLB   GL1 4731  26.970  17.420  10.280
  198BOLB   GL2 4732  26.960  17.710  10.140
  198BOLB   C1A 4733  27.390  17.470  10.280
  198BOLB   C2A 4734  27.690  17.670  10.340
  198BOLB   C3A 4735  27.620  17.910   9.980
  198BOLB   C4A 4736  27.740  18.320   9.770
  198BOLB   C1B 4737  27.210  17.860   9.800
  198BOLB   C2B 4738  27.350  18.040   9.560
  198BOLB   C3B 4739  27.720  17.860   9.510
  198BOLB   C4B 4740  28.140  17.700   9.280
  198BOLB   NC2 4741  28.800  20.290   7.890
  198BOLB   PO2 4742  28.900  20.130   8.310
  198BOLB   GL3 4743  28.780  19.960   8.690
  198BOLB   GL4 4744  29.090  20.040   8.820
  198BOLB   C1C 4745  28.520  19.790   8.890
  198BOLB   C2C 4746  28.310  19.540   9.230
  198BOLB   C3C 4747  28.230  19.100   9.400
  198BOLB   C4C 4748  28.030  18.690   9.590
  198BOLB   C1D 4749  28.820  20.080   9.170
  198BOLB   C2D 4750  28.510  19.950   9.440
  198BOLB   C3D 4751  28.100  19.980   9.500
  198BOLB   C4D 4752  28.010  20.060   9.930
  199BOLB   NC1 4753  12.920  14.370  18.300
  199BOLB   PO1 4754  12.680  14.040  18.030
  199BOLB   GL1 4755  12.470  14.080  18.450
  199BOLB   GL2 4756  12.470  14.210  18.660
  199BOLB   C1A 4757  12.260  13.720  18.610
  199BOLB   C2A 4758  12.090  13.630  19.040
  199BOLB   C3A 4759  11.930  13.580  19.360
  199BOLB   C4A 4760  11.720  13.610  19.780
  199BOLB   C1B 4761  12.170  14.430  18.960
  199BOLB   C2B 4762  11.990  14.630  19.330
  199BOLB   C3B 4763  11.650  14.690  19.560
  199BOLB   C4B 4764  11.430  14.530  19.910
  199BOLB   NC2 4765  10.990  13.200  22.240
  199BOLB   PO2 4766  10.790  13.500  21.990
  199BOLB   GL3 4767  11.090  13.210  21.660
  199BOLB   GL4 4768  11.200  12.960  21.870
  199BOLB   C1C 4769  11.530  13.230  21.450
  199BOLB   C2C 4770  11.540  13.260  20.910
  199BOLB   C3C 4771  11.370  13.330  20.540
  199BOLB   C4C 4772  11.540  13.550  20.140
  199BOLB   C1D 4773  11.610  12.750  21.600
  199BOLB   C2D 4774  11.890  12.750  21.190
  199BOLB   C3D 4775  12.200  12.840  20.860
  199BOLB   C4D 4776  12.540  13.040  20.900
  200BOLB   NC1 4777  12.750  10.690  18.110
  200BOLB   PO1 4778  12.540  10.410  17.820
  200BOLB   GL1 4779  12.260  10.700  17.980
  200BOLB   GL2 4780  12.000  10.680  17.850
  200BOLB   C1A 4781  12.030  10.600  18.330
  200BOLB   C2A 4782  12.000  10.580  18.760
  200BOLB   C3A 4783  11.590  10.750  19.010
  200BOLB   C4A 4784  11.180  10.710  19.180
  200BOLB   C1B 4785  11.620  10.290  17.990
  200BOLB   C2B 4786  11.210  10.270  18.180
  200BOLB   C3B 4787  10.820  10.090  18.260
  200BOLB   C4B 4788  10.500   9.900  18.430
  200BOLB   NC2 4789  10.560   9.450  21.480
  200BOLB   PO2 4790  10.550   9.250  21.110
  200BOLB   GL3 4791  10.630   9.470  20.670
  200BOLB   GL4 4792  10.510   9.340  20.400
  200BOLB   C1C 4793  10.820   9.730  20.310
  200BOLB   C2C 4794  10.800  10.120  20.170
  200BOLB   C3C 4795  10.780  10.340  19.760
  200BOLB   C4C 4796  10.980  10.560  19.470
  200BOLB   C1D 4797  10.570   9.230  19.980
  200BOLB   C2D 4798  10.650   9.240  19.580
  200BOLB   C3D 4799  10.500   9.560  19.330
  200BOLB   C4D 4800  10.570   9.700  18.930
  201BOLB   NC1 4801  22.920  19.740   8.540
  201BOLB   PO1 4802  23.120  19.910   8.770
  201BOLB   GL1 4803  23.300  20.120   8.420
  201BOLB   GL2 4804  23.590  20.100   8.420
  201BOLB   C1A 4805  23.400  20.630   8.350
  201BOLB   C2A 4806  23.620  20.770   8.010
  201BOLB   C3A 4807  23.940  21.080   7.860
  201BOLB   C4A 4808  24.070  21.290   7.470
  201BOLB   C1B 4809  23.960  20.350   8.280
  201BOLB   C2B 4810  24.140  20.760   8.170
  201BOLB   C3B 4811  24.290  21.170   8.210
  201BOLB   C4B 4812  24.620  21.460   8.150
  201BOLB   NC2 4813  23.920  22.880   5.860
  201BOLB   PO2 4814  24.340  22.930   6.080
  201BOLB   GL3 4815  24.130  22.550   6.230
  201BOLB   GL4 4816  24.260  22.310   6.050
  201BOLB   C1C 4817  23.820  22.360   6.520
  201BOLB   C2C 4818  23.510  22.170   6.790
  201BOLB   C3C 4819  23.580  21.850   7.150
  201BOLB   C4C 4820  23.640  21.580   7.380
  201BOLB   C1D 4821  24.230  21.910   6.150
  201BOLB   C2D 4822  24.150  21.400   6.320
  201BOLB   C3D 4823  24.440  21.130   6.360
  201BOLB   C4D 4824  24.670  21.110   6.040
  202BOLB   NC1 4825  15.210   7.900  18.890
  202BOLB   PO1 4826  15.410   8.080  19.190
  202BOLB   GL1 4827  15.300   7.880  19.460
  202BOLB   GL2 4828  15.120   7.660  19.290
  202BOLB   C1A 4829  15.200   7.560  19.760
  202BOLB   C2A 4830  15.210   7.420  20.150
  202BOLB   C3A 4831  15.110   7.260  20.580
  202BOLB   C4A 4832  14.810   7.310  20.870
  202BOLB   C1B 4833  14.970   7.190  19.370
  202BOLB   C2B 4834  14.690   6.940  19.730
  202BOLB   C3B 4835  14.360   6.710  19.740
  202BOLB   C4B 4836  14.090   6.450  20.000
  202BOLB   NC2 4837  13.910   6.730  23.030
  202BOLB   PO2 4838  14.350   6.860  23.280
  202BOLB   GL3 4839  14.480   6.940  22.950
  202BOLB   GL4 4840  14.760   7.030  22.880
  202BOLB   C1C 4841  14.430   6.900  22.490
  202BOLB   C2C 4842  14.330   7.070  21.980
  202BOLB   C3C 4843  14.280   6.990  21.530
  202BOLB   C4C 4844  14.470   7.190  21.150
  202BOLB   C1D 4845  14.860   7.380  22.670
  202BOLB   C2D 4846  15.060   7.700  22.550
  202BOLB   C3D 4847  15.190   7.710  22.190
  202BOLB   C4D 4848  14.910   7.910  21.850
  203BOLB   NC1 4849  11.820  10.660  15.970
  203BOLB   PO1 4850  11.630  10.290  16.140
  203BOLB   GL1 4851  11.360   9.940  16.220
  203BOLB   GL2 4852  11.190   9.810  16.520
  203BOLB   C1A 4853  10.940   9.720  16.080
  203BOLB   C2A 4854  10.490   9.540  16.040
  203BOLB   C3A 4855  10.170   9.580  15.760
  203BOLB   C4A 4856   9.860   9.200  15.820
  203BOLB   C1B 4857  10.900   9.640  16.730
  203BOLB   C2B 4858  10.550   9.490  16.890
  203BOLB   C3B 4859  10.170   9.260  17.150
  203BOLB   C4B 4860   9.930   9.040  17.220
  203BOLB   NC2 4861   7.770   8.500  17.150
  203BOLB   PO2 4862   7.870   9.010  17.120
  203BOLB   GL3 4863   8.270   9.150  17.100
  203BOLB   GL4 4864   8.200   9.040  16.740
  203BOLB   C1C 4865   8.700   9.240  16.950
  203BOLB   C2C 4866   8.900   9.220  16.590
  203BOLB   C3C 4867   9.120   9.020  16.300
  203BOLB   C4C 4868   9.390   9.070  15.830
  203BOLB   C1D 4869   8.350   9.290  16.360
  203BOLB   C2D 4870   8.730   9.350  16.150
  203BOLB   C3D 4871   9.070   9.440  15.910
  203BOLB   C4D 4872   9.460   9.620  15.840
  204BOLB   NC1 4873  28.980  13.590  15.000
  204BOLB   PO1 4874  29.010  13.820  14.730
  204BOLB   GL1 4875  29.370  13.870  14.800
  204BOLB   GL2 4876  29.550  13.920  15.050
  204BOLB   C1A 4877  29.790  13.560  14.940
  204BOLB   C2A 4878  30.020  13.220  15.180
  204BOLB   C3A 4879  30.100  12.910  15.450
  204BOLB   C4A 4880  30.340  12.790  15.780
  204BOLB   C1B 4881  29.860  13.900  15.360
  204BOLB   C2B 4882  30.360  13.700  15.540
  204BOLB   C3B 4883  30.510  13.360  15.440
  204BOLB   C4B 4884  30.520  13.020  15.120
  204BOLB   NC2 4885  32.880  13.220  16.440
  204BOLB   PO2 4886  32.550  13.400  16.260
  204BOLB   GL3 4887  32.110  13.430  16.400
  204BOLB   GL4 4888  32.110  13.080  16.470
  204BOLB   C1C 4889  31.540  13.500  16.430
  204BOLB   C2C 4890  31.170  13.480  16.560
  204BOLB   C3C 4891  30.860  13.230  16.350
  204BOLB   C4C 4892  30.730  12.920  15.990
  204BOLB   C1D 4893  31.880  13.170  16.890
  204BOLB   C2D 4894  31.480  13.390  17.010
  204BOLB   C3D 4895  31.070  13.580  17.030
  204BOLB   C4D 4896  30.760  13.670  16.740
  205BOLB   NC1 4897  15.470  19.450  17.800
  205BOLB   PO1 4898  15.400  19.290  18.310
  205BOLB   GL1 4899  15.080  19.550  18.450
  205BOLB   GL2 4900  15.000  19.830  18.230
  205BOLB   C1A 4901  14.740  19.820  18.690
  205BOLB   C2A 4902  14.590  20.200  18.740
  205BOLB   C3A 4903  14.710  20.540  18.950
  205BOLB   C4A 4904  14.720  20.880  19.280
  205BOLB   C1B 4905  14.640  20.110  18.200
  205BOLB   C2B 4906  14.260  20.140  18.420
  205BOLB   C3B 4907  14.200  20.470  18.790
  205BOLB   C4B 4908  13.910  20.510  19.240
  205BOLB   NC2 4909  13.680  21.430  21.320
  205BOLB   PO2 4910  13.790  21.860  21.420
  205BOLB   GL3 4911  13.990  21.860  21.000
  205BOLB   GL4 4912  13.810  21.930  20.740
  205BOLB   C1C 4913  14.240  21.650  20.690
  205BOLB   C2C 4914  14.260  21.430  20.380
  205BOLB   C3C 4915  14.330  21.270  19.940
  205BOLB   C4C 4916  14.490  21.210  19.520
  205BOLB   C1D 4917  13.780  21.500  20.380
  205BOLB   C2D 4918  13.840  21.310  19.950
  205BOLB   C3D 4919  13.580  21.420  19.660
  205BOLB   C4D 4920  13.440  21.850  19.450
  206BOLB   NC1 4921  24.020   7.120  17.730
  206BOLB   PO1 4922  23.720   6.970  17.790
  206BOLB   GL1 4923  23.710   6.570  17.990
  206BOLB   GL2 4924  23.510   6.510  17.990
  206BOLB   C1A 4925  23.980   6.290  18.120
  206BOLB   C2A 4926  24.130   5.910  18.040
  206BOLB   C3A 4927  24.110   5.490  18.130
  206BOLB   C4A 4928  24.320   5.170  18.110
  206BOLB   C1B 4929  23.480   6.490  18.440
  206BOLB   C2B 4930  23.670   6.030  18.420
  206BOLB   C3B 4931  23.680   5.620  18.550
  206BOLB   C4B 4932  23.570   5.310  18.920
  206BOLB   NC2 4933  24.210   2.760  19.020
  206BOLB   PO2 4934  24.000   2.570  18.590
  206BOLB   GL3 4935  23.870   2.980  18.410
  206BOLB   GL4 4936  23.590   3.030  18.780
  206BOLB   C1C 4937  24.010   3.410  18.170
  206BOLB   C2C 4938  24.240   3.760  18.060
  206BOLB   C3C 4939  24.340   4.190  18.080
  206BOLB   C4C 4940  24.490   4.680  18.170
  206BOLB   C1D 4941  23.620   3.480  18.690
  206BOLB   C2D 4942  23.300   3.720  18.460
  206BOLB   C3D 4943  23.150   4.080  18.350
  206BOLB   C4D 4944  22.810   4.250  18.160
  207BOLB   NC1 4945  12.320  15.540  17.740
  207BOLB   PO1 4946  12.470  14.950  17.810
  207BOLB   GL1 4947  12.130  15.220  18.060
  207BOLB   GL2 4948  11.840  15.500  18.020
  207BOLB   C1A 4949  12.040  15.290  18.450
  207BOLB   C2A 4950  11.900  15.370  18.820
  207BOLB   C3A 4951  11.540  15.370  18.950
  207BOLB   C4A 4952  11.110  15.570  19.180
  207BOLB   C1B 4953  11.510  15.360  18.240
  207BOLB   C2B 4954  11.250  15.400  18.590
  207BOLB   C3B 4955  10.790  15.470  18.790
  207BOLB   C4B 4956  10.470  15.130  18.900
  207BOLB   NC2 4957   9.590  16.740  21.200
  207BOLB   PO2 4958   9.650  16.560  20.940
  207BOLB   GL3 4959  10.110  16.530  20.680
  207BOLB   GL4 4960  10.140  16.740  20.330
  207BOLB   C1C 4961  10.540  16.410  20.490
  207BOLB   C2C 4962  10.860  16.230  20.230
  207BOLB   C3C 4963  11.030  16.120  19.860
  207BOLB   C4C 4964  11.160  16.000  19.480
  207BOLB   C1D 4965  10.470  16.740  20.040
  207BOLB   C2D 4966  10.910  16.700  19.890
  207BOLB   C3D 4967  10.950  16.950  19.500
  207BOLB   C4D 4968  11.180  17.300  19.370
  208BOLB   NC1 4969  18.400   5.020  14.460
  208BOLB   PO1 4970  18.760   5.080  14.620
  208BOLB   GL1 4971  18.510   4.590  14.520
  208BOLB   GL2 4972  18.310   4.510  14.400
  208BOLB   C1A 4973  18.660   4.090  14.340
  208BOLB   C2A 4974  18.760   3.680  14.550
  208BOLB   C3A 4975  18.560   3.240  14.580
  208BOLB   C4A 4976  18.210   3.060  14.340
  208BOLB   C1B 4977  18.160   4.220  14.610
  208BOLB   C2B 4978  18.120   3.890  14.690
  208BOLB   C3B 4979  18.270   3.550  14.830
  208BOLB   C4B 4980  18.270   3.110  15.000
  208BOLB   NC2 4981  17.250   1.050  12.660
  208BOLB   PO2 4982  17.070   1.410  12.920
  208BOLB   GL3 4983  17.100   1.520  13.390
  208BOLB   GL4 4984  16.960   1.750  13.430
  208BOLB   C1C 4985  17.440   1.750  13.680
  208BOLB   C2C 4986  17.530   2.180  13.920
  208BOLB   C3C 4987  17.630   2.590  13.920
  208BOLB   C4C 4988  17.790   3.050  14.040
  208BOLB   C1D 4989  17.170   2.100  13.420
  208BOLB   C2D 4990  17.000   2.530  13.210
  208BOLB   C3D 4991  16.930   2.950  13.310
  208BOLB   C4D 4992  17.040   3.380  13.460
  209BOLB   NC1 4993  18.060  13.700  20.430
  209BOLB   PO1 4994  18.500  13.590  20.640
  209BOLB   GL1 4995  18.400  13.730  20.960
  209BOLB   GL2 4996  18.310  14.110  20.880
  209BOLB   C1A 4997  18.490  13.680  21.460
  209BOLB   C2A 4998  18.770  13.420  21.680
  209BOLB   C3A 4999  18.610  13.320  22.100
  209BOLB   C4A 5000  18.400  13.550  22.430
  209BOLB   C1B 5001  18.390  14.250  21.270
  209BOLB   C2B 5002  18.540  14.150  21.690
  209BOLB   C3B 5003  18.380  14.260  22.080
  209BOLB   C4B 5004  18.280  14.050  22.430
  209BOLB   NC2 5005  17.340  12.540  24.910
  209BOLB   PO2 5006  17.580  12.850  24.730
  209BOLB   GL3 5007  17.630  13.010  24.260
  209BOLB   GL4 5008  17.430  12.920  24.180
  209BOLB   C1C 5009  17.930  13.400  23.910
  209BOLB   C2C 5010  18.330  13.530  23.620
  209BOLB   C3C 5011  18.310  13.620  23.170
  209BOLB   C4C 5012  18.440  13.560  22.870
  209BOLB   C1D 5013  17.510  13.000  23.760
  209BOLB   C2D 5014  17.550  12.830  23.360
  209BOLB   C3D 5015  17.730  12.530  23.180
  209BOLB   C4D 5016  17.880  12.180  23.420
  210BOLB   NC1 5017  20.340  21.990  17.480
  210BOLB   PO1 5018  20.020  21.740  17.670
  210BOLB   GL1 5019  20.290  21.980  17.940
  210BOLB   GL2 5020  20.310  21.640  18.120
  210BOLB   C1A 5021  20.260  22.310  18.300
  210BOLB   C2A 5022  20.370  22.620  18.590
  210BOLB   C3A 5023  20.740  23.000  18.560
  210BOLB   C4A 5024  20.700  23.210  19.010
  210BOLB   C1B 5025  20.350  21.760  18.510
  210BOLB   C2B 5026  20.010  21.750  18.750
  210BOLB   C3B 5027  19.800  21.890  19.100
  210BOLB   C4B 5028  19.400  21.840  19.290
  210BOLB   NC2 5029  20.680  24.030  21.080
  210BOLB   PO2 5030  20.340  24.060  20.830
  210BOLB   GL3 5031  20.350  23.820  20.580
  210BOLB   GL4 5032  20.590  23.550  20.690
  210BOLB   C1C 5033  20.230  23.820  20.070
  210BOLB   C2C 5034  20.260  23.930  19.670
  210BOLB   C3C 5035  20.420  23.970  19.250
  210BOLB   C4C 5036  20.700  23.690  19.040
  210BOLB   C1D 5037  20.900  23.430  20.410
  210BOLB   C2D 5038  21.050  23.310  19.960
  210BOLB   C3D 5039  21.050  22.880  19.720
  210BOLB   C4D 5040  20.850  22.500  19.790
  211BOLB   NC1 5041  26.050  18.690  17.000
  211BOLB   PO1 5042  26.340  18.400  16.990
  211BOLB   GL1 5043  26.710  18.290  17.200
  211BOLB   GL2 5044  26.820  18.060  17.040
  211BOLB   C1A 5045  26.920  18.460  17.650
  211BOLB   C2A 5046  27.060  18.180  18.020
  211BOLB   C3A 5047  27.390  18.250  18.370
  211BOLB   C4A 5048  27.220  18.530  18.660
  211BOLB   C1B 5049  27.300  18.170  17.150
  211BOLB   C2B 5050  27.700  18.140  16.900
  211BOLB   C3B 5051  28.020  18.500  16.700
  211BOLB   C4B 5052  28.250  18.760  16.880
  211BOLB   NC2 5053  28.500  18.720  20.800
  211BOLB   PO2 5054  28.380  19.230  20.620
  211BOLB   GL3 5055  27.980  19.450  20.440
  211BOLB   GL4 5056  27.660  19.350  20.460
  211BOLB   C1C 5057  27.830  19.480  20.010
  211BOLB   C2C 5058  27.760  19.160  19.630
  211BOLB   C3C 5059  27.500  18.940  19.450
  211BOLB   C4C 5060  27.410  18.800  18.960
  211BOLB   C1D 5061  27.310  19.210  20.070
  211BOLB   C2D 5062  26.970  19.000  19.840
  211BOLB   C3D 5063  26.720  19.080  19.420
  211BOLB   C4D 5064  26.370  19.210  19.280
  212BOLB   NC1 5065  24.310  19.910  17.490
  212BOLB   PO1 5066  24.080  20.140  17.190
  212BOLB   GL1 5067  24.490  20.410  17.160
  212BOLB   GL2 5068  24.550  20.480  16.790
  212BOLB   C1A 5069  24.790  20.680  17.250
  212BOLB   C2A 5070  25.020  20.950  17.590
  212BOLB   C3A 5071  25.240  21.100  18.010
  212BOLB   C4A 5072  25.340  21.220  18.400
  212BOLB   C1B 5073  24.890  20.890  16.700
  212BOLB   C2B 5074  25.210  21.140  16.660
  212BOLB   C3B 5075  25.410  21.550  16.650
  212BOLB   C4B 5076  25.410  21.980  16.690
  212BOLB   NC2 5077  26.400  22.840  19.910
  212BOLB   PO2 5078  26.220  22.460  19.940
  212BOLB   GL3 5079  26.070  22.180  19.600
  212BOLB   GL4 5080  26.080  21.970  19.430
  212BOLB   C1C 5081  25.840  22.320  19.180
  212BOLB   C2C 5082  26.100  22.180  18.850
  212BOLB   C3C 5083  25.930  21.820  18.670
  212BOLB   C4C 5084  25.690  21.470  18.610
  212BOLB   C1D 5085  26.110  21.620  19.620
  212BOLB   C2D 5086  25.970  21.210  19.790
  212BOLB   C3D 5087  25.720  20.940  20.020
  212BOLB   C4D 5088  25.370  20.770  20.150
  213BOLB   NC1 5089  28.020  13.050  12.510
  213BOLB   PO1 5090  28.170  13.370  12.240
  213BOLB   GL1 5091  28.560  13.700  12.250
  213BOLB   GL2 5092  28.570  13.960  12.100
  213BOLB   C1A 5093  29.050  13.750  12.110
  213BOLB   C2A 5094  29.370  13.550  11.860
  213BOLB   C3A 5095  29.670  13.460  11.540
  213BOLB   C4A 5096  29.870  13.380  11.200
  213BOLB   C1B 5097  28.760  13.970  11.690
  213BOLB   C2B 5098  29.110  13.850  11.600
  213BOLB   C3B 5099  29.240  13.620  11.350
  213BOLB   C4B 5100  29.270  13.420  10.990
  213BOLB   NC2 5101  32.070  13.170  11.030
  213BOLB   PO2 5102  31.930  12.750  10.920
  213BOLB   GL3 5103  31.570  13.000  10.870
  213BOLB   GL4 5104  31.490  13.050  10.480
  213BOLB   C1C 5105  31.220  13.310  10.820
  213BOLB   C2C 5106  30.810  13.390  10.660
  213BOLB   C3C 5107  30.380  13.480  10.710
  213BOLB   C4C 5108  30.180  13.260  11.030
  213BOLB   C1D 5109  31.040  13.010  10.440
  213BOLB   C2D 5110  30.680  12.930  10.500
  213BOLB   C3D 5111  30.230  12.900  10.670
  213BOLB   C4D 5112  29.840  12.770  10.610
  214BOLB   NC1 5113  20.190  19.890  18.950
  214BOLB   PO1 5114  20.480  19.570  19.170
  214BOLB   GL1 5115  20.770  19.730  19.550
  214BOLB   GL2 5116  21.050  19.480  19.710
  214BOLB   C1A 5117  20.940  19.990  19.820
  214BOLB   C2A 5118  20.810  20.030  20.250
  214BOLB   C3A 5119  20.860  19.710  20.600
  214BOLB   C4A 5120  20.650  19.710  20.940
  214BOLB   C1B 5121  21.140  19.600  20.190
  214BOLB   C2B 5122  21.420  19.690  20.580
  214BOLB   C3B 5123  21.750  19.830  20.680
  214BOLB   C4B 5124  22.170  19.770  20.690
  214BOLB   NC2 5125  20.100  20.400  23.800
  214BOLB   PO2 5126  20.160  20.160  23.420
  214BOLB   GL3 5127  19.950  20.160  22.930
  214BOLB   GL4 5128  19.540  19.960  22.780
  214BOLB   C1C 5129  20.100  19.980  22.530
  214BOLB   C2C 5130  20.180  20.050  22.130
  214BOLB   C3C 5131  20.110  19.930  21.710
  214BOLB   C4C 5132  20.420  19.820  21.360
  214BOLB   C1D 5133  19.610  20.210  22.470
  214BOLB   C2D 5134  19.690  20.280  22.010
  214BOLB   C3D 5135  19.460  20.460  21.820
  214BOLB   C4D 5136  19.050  20.200  21.800
  215BOLB   NC1 5137  26.070   6.950  22.050
  215BOLB   PO1 5138  25.830   7.230  22.360
  215BOLB   GL1 5139  25.580   7.080  21.960
  215BOLB   GL2 5140  25.310   7.030  21.920
  215BOLB   C1A 5141  25.540   7.340  21.650
  215BOLB   C2A 5142  25.250   7.430  21.370
  215BOLB   C3A 5143  24.900   7.490  21.200
  215BOLB   C4A 5144  24.630   7.830  20.960
  215BOLB   C1B 5145  25.220   6.950  21.530
  215BOLB   C2B 5146  25.010   6.970  21.230
  215BOLB   C3B 5147  24.900   7.160  20.850
  215BOLB   C4B 5148  24.960   7.490  20.540
  215BOLB   NC2 5149  23.720   8.980  19.250
  215BOLB   PO2 5150  24.010   9.360  19.320
  215BOLB   GL3 5151  24.040   9.120  19.680
  215BOLB   GL4 5152  24.200   9.170  19.890
  215BOLB   C1C 5153  24.100   8.700  19.940
  215BOLB   C2C 5154  24.150   8.640  20.370
  215BOLB   C3C 5155  24.060   8.270  20.630
  215BOLB   C4C 5156  24.180   7.940  20.910
  215BOLB   C1D 5157  24.240   9.100  20.270
  215BOLB   C2D 5158  24.190   9.280  20.620
  215BOLB   C3D 5159  24.300   9.450  21.040
  215BOLB   C4D 5160  24.440   9.470  21.460
  216BOLB   NC1 5161  17.870  22.320  16.420
  216BOLB   PO1 5162  17.550  22.280  16.700
  216BOLB   GL1 5163  17.630  22.710  16.580
  216BOLB   GL2 5164  17.590  22.850  16.340
  216BOLB   C1A 5165  17.530  23.050  16.910
  216BOLB   C2A 5166  17.500  23.220  17.250
  216BOLB   C3A 5167  17.460  23.720  17.290
  216BOLB   C4A 5168  17.330  24.180  17.100
  216BOLB   C1B 5169  17.500  23.310  16.320
  216BOLB   C2B 5170  17.700  23.640  16.550
  216BOLB   C3B 5171  17.780  23.990  16.790
  216BOLB   C4B 5172  17.860  24.080  17.180
  216BOLB   NC2 5173  16.760  26.350  17.980
  216BOLB   PO2 5174  17.150  26.140  18.120
  216BOLB   GL3 5175  17.450  25.950  17.800
  216BOLB   GL4 5176  17.790  25.820  17.850
  216BOLB   C1C 5177  17.680  25.650  17.430
  216BOLB   C2C 5178  17.730  25.290  17.140
  216BOLB   C3C 5179  17.620  24.880  17.050
  216BOLB   C4C 5180  17.290  24.630  17.030
  216BOLB   C1D 5181  18.030  25.430  17.930
  216BOLB   C2D 5182  18.070  24.990  17.970
  216BOLB   C3D 5183  18.220  24.460  18.000
  216BOLB   C4D 5184  18.290  24.100  17.920
  217BOLB   NC1 5185  28.770  12.050  15.030
  217BOLB   PO1 5186  28.440  11.810  15.380
  217BOLB   GL1 5187  28.830  11.760  15.530
  217BOLB   GL2 5188  28.750  11.580  15.730
  217BOLB   C1A 5189  29.030  11.920  15.860
  217BOLB   C2A 5190  29.400  12.070  16.020
  217BOLB   C3A 5191  29.840  12.220  15.860
  217BOLB   C4A 5192  30.200  12.320  16.000
  217BOLB   C1B 5193  29.170  11.360  15.870
  217BOLB   C2B 5194  29.540  11.260  16.040
  217BOLB   C3B 5195  29.830  11.040  16.250
  217BOLB   C4B 5196  30.130  11.190  16.380
  217BOLB   NC2 5197  32.410  12.860  17.110
  217BOLB   PO2 5198  32.460  12.680  16.700
  217BOLB   GL3 5199  32.000  12.560  16.570
  217BOLB   GL4 5200  32.000  12.680  16.180
  217BOLB   C1C 5201  31.560  12.410  16.470
  217BOLB   C2C 5202  31.160  12.240  16.450
  217BOLB   C3C 5203  30.740  12.310  16.520
  217BOLB   C4C 5204  30.470  12.400  16.210
  217BOLB   C1D 5205  31.660  12.940  16.380
  217BOLB   C2D 5206  31.320  13.130  16.180
  217BOLB   C3D 5207  31.250  12.980  15.790
  217BOLB   C4D 5208  30.930  12.920  15.440
  218BOLB   NC1 5209  17.180  14.140  20.400
  218BOLB   PO1 5210  16.990  14.540  20.490
  218BOLB   GL1 5211  16.950  14.450  20.900
  218BOLB   GL2 5212  16.830  14.680  21.130
  218BOLB   C1A 5213  17.000  14.040  21.120
  218BOLB   C2A 5214  16.710  13.950  21.400
  218BOLB   C3A 5215  16.380  14.090  21.720
  218BOLB   C4A 5216  16.270  14.290  22.030
  218BOLB   C1B 5217  17.130  14.490  21.470
  218BOLB   C2B 5218  16.980  14.200  21.660
  218BOLB   C3B 5219  17.060  14.080  21.960
  218BOLB   C4B 5220  17.090  14.250  22.290
  218BOLB   NC2 5221  15.700  13.200  24.230
  218BOLB   PO2 5222  15.280  13.300  24.230
  218BOLB   GL3 5223  15.390  13.170  23.830
  218BOLB   GL4 5224  15.650  13.000  23.750
  218BOLB   C1C 5225  15.620  13.440  23.440
  218BOLB   C2C 5226  15.780  13.490  23.010
  218BOLB   C3C 5227  15.730  13.820  22.580
  218BOLB   C4C 5228  15.970  14.200  22.280
  218BOLB   C1D 5229  15.530  12.920  23.380
  218BOLB   C2D 5230  15.440  13.100  22.950
  218BOLB   C3D 5231  15.680  13.210  22.600
  218BOLB   C4D 5232  15.500  13.140  22.100
  219BOLB   NC1 5233  20.870  15.320  20.230
  219BOLB   PO1 5234  21.190  15.090  20.180
  219BOLB   GL1 5235  21.260  15.120  20.590
  219BOLB   GL2 5236  21.580  15.210  20.600
  219BOLB   C1A 5237  21.070  15.220  21.110
  219BOLB   C2A 5238  21.170  15.250  21.510
  219BOLB   C3A 5239  21.270  15.460  21.850
  219BOLB   C4A 5240  21.110  15.520  22.280
  219BOLB   C1B 5241  21.570  15.280  21.050
  219BOLB   C2B 5242  21.830  15.360  21.390
  219BOLB   C3B 5243  21.820  15.450  21.800
  219BOLB   C4B 5244  21.650  15.480  22.260
  219BOLB   NC2 5245  19.740  15.930  24.880
  219BOLB   PO2 5246  19.630  15.850  24.440
  219BOLB   GL3 5247  19.780  15.940  24.030
  219BOLB   GL4 5248  19.710  16.220  23.820
  219BOLB   C1C 5249  20.070  15.930  23.560
  219BOLB   C2C 5250  20.470  15.910  23.350
  219BOLB   C3C 5251  20.750  15.670  23.090
  219BOLB   C4C 5252  20.800  15.570  22.570
  219BOLB   C1D 5253  19.800  16.380  23.490
  219BOLB   C2D 5254  19.960  16.430  23.090
  219BOLB   C3D 5255  19.930  16.270  22.730
  219BOLB   C4D 5256  20.170  16.020  22.420
  220BOLB   NC1 5257  17.120   6.890  18.890
  220BOLB   PO1 5258  17.540   7.030  18.940
  220BOLB   GL1 5259  17.440   6.860  19.290
  220BOLB   GL2 5260  17.110   6.810  19.390
  220BOLB   C1A 5261  17.410   6.560  19.720
  220BOLB   C2A 5262  17.570   6.410  20.040
  220BOLB   C3A 5263  17.690   6.090  20.240
  220BOLB   C4A 5264  17.730   5.840  20.540
  220BOLB   C1B 5265  16.900   6.400  19.470
  220BOLB   C2B 5266  16.760   6.070  19.460
  220BOLB   C3B 5267  16.530   5.770  19.600
  220BOLB   C4B 5268  16.220   5.530  19.760
  220BOLB   NC2 5269  16.890   4.040  22.070
  220BOLB   PO2 5270  16.980   3.910  21.650
  220BOLB   GL3 5271  17.080   4.330  21.610
  220BOLB   GL4 5272  16.810   4.360  21.460
  220BOLB   C1C 5273  17.240   4.670  21.300
  220BOLB   C2C 5274  17.320   5.010  20.950
  220BOLB   C3C 5275  17.260   5.360  21.010
  220BOLB   C4C 5276  17.450   5.700  20.920
  220BOLB   C1D 5277  16.700   4.750  21.490
  220BOLB   C2D 5278  16.450   5.070  21.480
  220BOLB   C3D 5279  16.280   5.410  21.250
  220BOLB   C4D 5280  16.220   5.400  20.760
  221BOLB   NC1 5281  20.220  14.770  20.410
  221BOLB   PO1 5282  20.400  15.150  20.220
  221BOLB   GL1 5283  20.270  15.260  20.620
  221BOLB   GL2 5284  20.510  15.540  20.560
  221BOLB   C1A 5285  20.250  15.430  21.040
  221BOLB   C2A 5286  20.260  15.500  21.480
  221BOLB   C3A 5287  20.030  15.390  21.790
  221BOLB   C4A 5288  20.000  15.290  22.200
  221BOLB   C1B 5289  20.700  15.500  20.910
  221BOLB   C2B 5290  20.740  15.490  21.460
  221BOLB   C3B 5291  20.670  15.480  21.910
  221BOLB   C4B 5292  20.440  15.700  22.220
  221BOLB   NC2 5293  20.900  15.370  24.380
  221BOLB   PO2 5294  20.550  15.650  24.450
  221BOLB   GL3 5295  20.470  15.450  24.070
  221BOLB   GL4 5296  20.290  15.220  24.030
  221BOLB   C1C 5297  20.500  15.410  23.610
  221BOLB   C2C 5298  20.200  15.450  23.310
  221BOLB   C3C 5299  19.990  15.430  23.010
  221BOLB   C4C 5300  19.980  15.110  22.680
  221BOLB   C1D 5301  19.960  15.520  23.760
  221BOLB   C2D 5302  19.600  15.610  23.590
  221BOLB   C3D 5303  19.310  15.560  23.310
  221BOLB   C4D 5304  18.940  15.470  23.090
  222BOLB   NC1 5305  24.690  15.500  19.510
  222BOLB   PO1 5306  24.960  15.170  19.380
  222BOLB   GL1 5307  25.230  15.030  19.660
  222BOLB   GL2 5308  25.360  15.240  19.670
  222BOLB   C1A 5309  25.600  14.920  19.960
  222BOLB   C2A 5310  26.100  15.010  20.050
  222BOLB   C3A 5311  26.480  15.010  20.330
  222BOLB   C4A 5312  26.990  14.810  20.420
  222BOLB   C1B 5313  25.770  15.510  19.870
  222BOLB   C2B 5314  26.150  15.760  19.940
  222BOLB   C3B 5315  26.370  16.020  20.240
  222BOLB   C4B 5316  26.570  16.360  20.330
  222BOLB   NC2 5317  29.700  14.640  21.330
  222BOLB   PO2 5318  29.250  14.610  21.530
  222BOLB   GL3 5319  28.840  14.830  21.390
  222BOLB   GL4 5320  28.580  14.650  21.460
  222BOLB   C1C 5321  28.620  15.010  21.000
  222BOLB   C2C 5322  28.270  15.000  20.780
  222BOLB   C3C 5323  27.810  15.120  20.600
  222BOLB   C4C 5324  27.380  14.970  20.500
  222BOLB   C1D 5325  28.190  14.610  21.160
  222BOLB   C2D 5326  28.010  14.540  20.620
  222BOLB   C3D 5327  27.910  14.340  20.310
  222BOLB   C4D 5328  27.820  14.080  19.910
  223BOLB   NC1 5329  17.450  14.450  20.680
  223BOLB   PO1 5330  17.480  14.850  20.410
  223BOLB   GL1 5331  17.240  14.930  20.850
  223BOLB   GL2 5332  17.420  14.750  21.040
  223BOLB   C1A 5333  16.950  15.130  20.990
  223BOLB   C2A 5334  16.710  15.260  21.310
  223BOLB   C3A 5335  16.370  15.210  21.540
  223BOLB   C4A 5336  16.590  15.210  21.870
  223BOLB   C1B 5337  17.260  15.080  21.340
  223BOLB   C2B 5338  17.010  15.460  21.610
  223BOLB   C3B 5339  17.010  15.660  21.990
  223BOLB   C4B 5340  17.220  15.570  22.390
  223BOLB   NC2 5341  17.190  15.340  24.100
  223BOLB   PO2 5342  17.630  15.350  24.130
  223BOLB   GL3 5343  17.520  15.130  23.760
  223BOLB   GL4 5344  17.650  14.800  23.590
  223BOLB   C1C 5345  17.240  15.070  23.460
  223BOLB   C2C 5346  16.930  15.090  23.140
  223BOLB   C3C 5347  16.840  15.020  22.610
  223BOLB   C4C 5348  16.910  15.170  22.200
  223BOLB   C1D 5349  18.040  14.590  23.490
  223BOLB   C2D 5350  18.240  14.390  23.240
  223BOLB   C3D 5351  18.340  14.140  22.950
  223BOLB   C4D 5352  18.770  13.970  22.630
  224BOLB   NC1 5353  15.260   8.930  19.520
  224BOLB   PO1 5354  15.140   9.370  19.610
  224BOLB   GL1 5355  14.980   9.290  19.980
  224BOLB   GL2 5356  14.650   9.430  19.860
  224BOLB   C1A 5357  15.110   9.260  20.390
  224BOLB   C2A 5358  15.020   9.200  20.910
  224BOLB   C3A 5359  14.960   9.390  21.320
  224BOLB   C4A 5360  14.650   9.380  21.670
  224BOLB   C1B 5361  14.230   9.280  20.070
  224BOLB   C2B 5362  14.220   9.060  20.450
  224BOLB   C3B 5363  14.440   8.980  20.770
  224BOLB   C4B 5364  14.730   8.900  21.190
  224BOLB   NC2 5365  13.370  10.260  23.460
  224BOLB   PO2 5366  13.080  10.130  23.150
  224BOLB   GL3 5367  13.240   9.990  22.710
  224BOLB   GL4 5368  13.120  10.130  22.370
  224BOLB   C1C 5369  13.390   9.740  22.350
  224BOLB   C2C 5370  13.610   9.470  22.100
  224BOLB   C3C 5371  13.890   9.600  21.820
  224BOLB   C4C 5372  14.380   9.550  21.720
  224BOLB   C1D 5373  13.380  10.250  22.020
  224BOLB   C2D 5374  13.500  10.400  21.580
  224BOLB   C3D 5375  13.970  10.520  21.540
  224BOLB   C4D 5376  14.280  10.750  21.650
  225BOLB   NC1 5377  12.280  13.810  17.630
  225BOLB   PO1 5378  11.900  13.470  17.750
  225BOLB   GL1 5379  11.670  13.490  18.040
  225BOLB   GL2 5380  11.780  13.790  18.190
  225BOLB   C1A 5381  11.340  13.590  18.480
  225BOLB   C2A 5382  11.360  13.920  18.860
  225BOLB   C3A 5383  11.520  13.850  19.230
  225BOLB   C4A 5384  11.590  14.060  19.560
  225BOLB   C1B 5385  11.710  13.830  18.560
  225BOLB   C2B 5386  11.850  14.040  18.930
  225BOLB   C3B 5387  11.700  14.370  19.080
  225BOLB   C4B 5388  11.560  14.740  19.100
  225BOLB   NC2 5389  10.810  15.050  21.460
  225BOLB   PO2 5390  10.420  14.830  21.410
  225BOLB   GL3 5391  10.720  14.750  20.970
  225BOLB   GL4 5392  10.700  14.930  20.670
  225BOLB   C1C 5393  11.160  14.570  20.900
  225BOLB   C2C 5394  11.510  14.500  20.640
  225BOLB   C3C 5395  11.570  14.220  20.290
  225BOLB   C4C 5396  11.590  14.050  19.940
  225BOLB   C1D 5397  10.970  14.840  20.430
  225BOLB   C2D 5398  11.010  14.440  20.180
  225BOLB   C3D 5399  11.050  14.100  19.890
  225BOLB   C4D 5400  11.220  13.710  19.770
  226BOLB   NC1 5401  23.930  16.320  19.630
  226BOLB   PO1 5402  23.830  16.700  19.390
  226BOLB   GL1 5403  24.160  16.810  19.680
  226BOLB   GL2 5404  24.340  17.130  19.630
  226BOLB   C1A 5405  24.300  16.920  20.280
  226BOLB   C2A 5406  24.390  17.110  20.700
  226BOLB   C3A 5407  24.260  16.990  21.070
  226BOLB   C4A 5408  24.230  17.380  21.420
  226BOLB   C1B 5409  24.430  17.360  19.900
  226BOLB   C2B 5410  24.430  17.480  20.380
  226BOLB   C3B 5411  24.400  17.580  20.780
  226BOLB   C4B 5412  24.580  17.340  21.110
  226BOLB   NC2 5413  25.300  18.940  22.750
  226BOLB   PO2 5414  25.420  18.530  22.630
  226BOLB   GL3 5415  25.220  18.800  22.320
  226BOLB   GL4 5416  25.360  18.860  22.040
  226BOLB   C1C 5417  25.030  18.550  22.000
  226BOLB   C2C 5418  25.000  18.250  21.800
  226BOLB   C3C 5419  24.770  17.850  21.790
  226BOLB   C4C 5420  24.460  17.580  21.740
  226BOLB   C1D 5421  25.400  18.590  21.650
  226BOLB   C2D 5422  25.220  18.340  21.290
  226BOLB   C3D 5423  24.960  18.080  20.930
  226BOLB   C4D 5424  24.900  17.670  20.780
  227BOLB   NC1 5425  14.010   9.310  19.110
  227BOLB   PO1 5426  14.020   9.560  18.820
  227BOLB   GL1 5427  13.840   9.730  19.280
  227BOLB   GL2 5428  13.560   9.680  19.330
  227BOLB   C1A 5429  13.680  10.070  19.580
  227BOLB   C2A 5430  13.340  10.090  19.780
  227BOLB   C3A 5431  13.000   9.970  20.050
  227BOLB   C4A 5432  12.780   9.700  20.370
  227BOLB   C1B 5433  13.230   9.580  19.600
  227BOLB   C2B 5434  13.050   9.330  19.890
  227BOLB   C3B 5435  12.600   9.390  20.020
  227BOLB   C4B 5436  12.250   9.110  20.050
  227BOLB   NC2 5437  11.490   7.720  21.800
  227BOLB   PO2 5438  11.630   8.140  21.550
  227BOLB   GL3 5439  12.010   8.340  21.520
  227BOLB   GL4 5440  12.060   8.680  21.730
  227BOLB   C1C 5441  12.310   8.610  21.330
  227BOLB   C2C 5442  12.690   8.750  21.100
  227BOLB   C3C 5443  12.890   9.070  20.980
  227BOLB   C4C 5444  12.800   9.430  20.760
  227BOLB   C1D 5445  11.870   9.000  21.550
  227BOLB   C2D 5446  11.960   9.360  21.400
  227BOLB   C3D 5447  12.290   9.700  21.410
  227BOLB   C4D 5448  12.570   9.960  21.050
  228BOLB   NC1 5449   6.360  12.880  15.660
  228BOLB   PO1 5450   6.500  12.490  15.410
  228BOLB   GL1 5451   6.870  12.490  15.610
  228BOLB   GL2 5452   6.870  12.810  15.810
  228BOLB   C1A 5453   7.250  12.560  15.710
  228BOLB   C2A 5454   7.650  12.690  15.510
  228BOLB   C3A 5455   7.850  12.800  15.180
  228BOLB   C4A 5456   7.870  13.060  14.760
  228BOLB   C1B 5457   7.160  13.050  15.530
  228BOLB   C2B 5458   7.380  13.050  15.120
  228BOLB   C3B 5459   7.450  12.700  14.840
  228BOLB   C4B 5460   7.390  12.440  14.500
  228BOLB   NC2 5461   6.370  11.660  13.760
  228BOLB   PO2 5462   6.580  11.980  14.020
  228BOLB   GL3 5463   7.030  12.020  14.040
  228BOLB   GL4 5464   7.170  11.820  13.900
  228BOLB   C1C 5465   7.360  12.320  13.970
  228BOLB   C2C 5466   7.710  12.520  14.080
  228BOLB   C3C 5467   7.970  12.890  14.070
  228BOLB   C4C 5468   8.070  13.210  14.360
  228BOLB   C1D 5469   7.590  11.840  13.980
  228BOLB   C2D 5470   7.890  11.630  14.330
  228BOLB   C3D 5471   8.130  11.490  14.560
  228BOLB   C4D 5472   8.390  11.510  14.880
  229BOLB   NC1 5473  17.830  10.480  20.380
  229BOLB   PO1 5474  17.450  10.590  20.050
  229BOLB   GL1 5475  17.240  10.540  20.460
  229BOLB   GL2 5476  16.930  10.660  20.620
  229BOLB   C1A 5477  17.200  10.480  21.030
  229BOLB   C2A 5478  17.200  10.440  21.520
  229BOLB   C3A 5479  17.110  10.060  21.860
  229BOLB   C4A 5480  17.040   9.950  22.410
  229BOLB   C1B 5481  16.730  10.850  20.990
  229BOLB   C2B 5482  16.770  10.780  21.320
  229BOLB   C3B 5483  16.950  10.800  21.730
  229BOLB   C4B 5484  17.040  10.590  22.200
  229BOLB   NC2 5485  15.750   8.940  24.010
  229BOLB   PO2 5486  16.000   8.840  24.390
  229BOLB   GL3 5487  16.300   9.010  23.930
  229BOLB   GL4 5488  16.160   8.910  23.690
  229BOLB   C1C 5489  16.290   9.430  23.740
  229BOLB   C2C 5490  16.580   9.710  23.580
  229BOLB   C3C 5491  16.740   9.790  23.170
  229BOLB   C4C 5492  16.830   9.910  22.840
  229BOLB   C1D 5493  16.090   9.050  23.290
  229BOLB   C2D 5494  15.800   9.110  23.020
  229BOLB   C3D 5495  15.480   9.010  22.680
  229BOLB   C4D 5496  15.160   8.770  22.380
  230BOLB   NC1 5497  27.470  15.640  11.400
  230BOLB   PO1 5498  27.340  15.240  11.220
  230BOLB   GL1 5499  27.720  15.470  10.990
  230BOLB   GL2 5500  28.050  15.210  11.010
  230BOLB   C1A 5501  28.050  15.690  10.750
  230BOLB   C2A 5502  28.230  15.860  10.390
  230BOLB   C3A 5503  28.460  15.930  10.010
  230BOLB   C4A 5504  28.940  15.980  10.040
  230BOLB   C1B 5505  28.430  15.030  11.020
  230BOLB   C2B 5506  28.820  15.080  10.780
  230BOLB   C3B 5507  29.240  15.060  10.510
  230BOLB   C4B 5508  29.670  15.000  10.600
  230BOLB   NC2 5509  31.150  17.680   9.530
  230BOLB   PO2 5510  30.820  17.520   9.220
  230BOLB   GL3 5511  30.410  17.350   9.290
  230BOLB   GL4 5512  30.340  17.630   9.120
  230BOLB   C1C 5513  30.090  17.080   9.470
  230BOLB   C2C 5514  29.720  16.820   9.620
  230BOLB   C3C 5515  29.460  16.520   9.600
  230BOLB   C4C 5516  29.250  16.290   9.850
  230BOLB   C1D 5517  29.970  17.360   9.040
  230BOLB   C2D 5518  29.590  17.200   9.120
  230BOLB   C3D 5519  29.150  16.970   8.980
  230BOLB   C4D 5520  28.730  16.990   8.990
  231BOLB   NC1 5521  22.940  22.160  13.550
  231BOLB   PO1 5522  23.170  22.290  14.020
  231BOLB   GL1 5523  23.360  22.680  14.190
  231BOLB   GL2 5524  23.620  22.670  14.320
  231BOLB   C1A 5525  23.180  23.100  14.220
  231BOLB   C2A 5526  22.970  23.520  14.200
  231BOLB   C3A 5527  22.790  23.840  13.890
  231BOLB   C4A 5528  22.690  24.330  13.880
  231BOLB   C1B 5529  23.870  23.030  14.160
  231BOLB   C2B 5530  24.130  23.390  14.240
  231BOLB   C3B 5531  24.140  23.920  14.270
  231BOLB   C4B 5532  24.030  24.260  14.300
  231BOLB   NC2 5533  24.010  26.520  13.020
  231BOLB   PO2 5534  24.150  26.170  12.790
  231BOLB   GL3 5535  23.870  25.910  13.190
  231BOLB   GL4 5536  24.000  25.600  13.050
  231BOLB   C1C 5537  23.650  25.570  13.480
  231BOLB   C2C 5538  23.450  25.140  13.340
  231BOLB   C3C 5539  23.290  24.670  13.400
  231BOLB   C4C 5540  22.950  24.530  13.440
  231BOLB   C1D 5541  23.780  25.180  13.020
  231BOLB   C2D 5542  23.690  24.760  13.040
  231BOLB   C3D 5543  23.600  24.370  12.950
  231BOLB   C4D 5544  23.490  23.950  13.070
  232BOLB   NC1 5545  19.530  14.100  20.380
  232BOLB   PO1 5546  19.170  14.020  20.380
  232BOLB   GL1 5547  19.240  14.130  20.820
  232BOLB   GL2 5548  19.340  13.850  21.040
  232BOLB   C1A 5549  19.490  14.270  21.210
  232BOLB   C2A 5550  19.460  14.070  21.560
  232BOLB   C3A 5551  19.410  14.060  22.030
  232BOLB   C4A 5552  19.160  14.060  22.360
  232BOLB   C1B 5553  19.260  13.500  21.380
  232BOLB   C2B 5554  19.220  13.530  21.840
  232BOLB   C3B 5555  19.100  13.510  22.270
  232BOLB   C4B 5556  18.860  13.460  22.540
  232BOLB   NC2 5557  20.050  14.400  24.690
  232BOLB   PO2 5558  19.820  14.890  24.770
  232BOLB   GL3 5559  19.640  14.680  24.390
  232BOLB   GL4 5560  19.660  14.380  24.330
  232BOLB   C1C 5561  19.390  14.710  24.010
  232BOLB   C2C 5562  19.350  14.550  23.560
  232BOLB   C3C 5563  19.390  14.460  23.130
  232BOLB   C4C 5564  19.320  14.250  22.720
  232BOLB   C1D 5565  19.420  14.120  24.150
  232BOLB   C2D 5566  19.380  13.800  23.800
  232BOLB   C3D 5567  19.440  13.460  23.450
  232BOLB   C4D 5568  19.150  13.020  23.340
  233BOLB   NC1 5569  16.130   6.240  17.820
  233BOLB   PO1 5570  16.020   6.040  17.460
  233BOLB   GL1 5571  15.740   5.890  17.800
  233BOLB   GL2 5572  15.840   5.900  18.060
  233BOLB   C1A 5573  15.450   5.580  18.040
  233BOLB   C2A 5574  15.070   5.390  18.190
  233BOLB   C3A 5575  14.800   5.460  18.420
  233BOLB   C4A 5576  14.370   5.520  18.570
  233BOLB   C1B 5577  15.690   5.680  18.450
  233BOLB   C2B 5578  15.460   5.350  18.560
  233BOLB   C3B 5579  15.120   5.250  18.840
  233BOLB   C4B 5580  15.010   5.190  19.200
  233BOLB   NC2 5581  14.540   2.710  18.720
  233BOLB   PO2 5582  14.800   3.040  19.030
  233BOLB   GL3 5583  14.880   3.420  18.940
  233BOLB   GL4 5584  14.920   3.680  19.280
  233BOLB   C1C 5585  14.520   3.860  18.900
  233BOLB   C2C 5586  14.290   4.290  18.850
  233BOLB   C3C 5587  14.240   4.780  18.820
  233BOLB   C4C 5588  14.240   5.100  18.550
  233BOLB   C1D 5589  15.020   3.910  19.000
  233BOLB   C2D 5590  15.150   4.190  18.670
  233BOLB   C3D 5591  15.160   4.600  18.660
  233BOLB   C4D 5592  15.240   4.940  18.460
  234BOLB   NC1 5593  18.820  18.030  18.870
  234BOLB   PO1 5594  19.060  18.200  19.270
  234BOLB   GL1 5595  19.200  18.060  19.660
  234BOLB   GL2 5596  19.410  17.880  19.720
  234BOLB   C1A 5597  18.940  18.130  20.010
  234BOLB   C2A 5598  18.730  18.380  20.220
  234BOLB   C3A 5599  18.840  18.770  20.450
  234BOLB   C4A 5600  18.870  18.950  21.010
  234BOLB   C1B 5601  19.440  18.150  20.120
  234BOLB   C2B 5602  19.160  18.280  20.410
  234BOLB   C3B 5603  19.170  18.480  20.810
  234BOLB   C4B 5604  19.090  18.520  21.220
  234BOLB   NC2 5605  19.610  18.510  23.490
  234BOLB   PO2 5606  19.450  18.840  23.620
  234BOLB   GL3 5607  19.340  18.750  23.150
  234BOLB   GL4 5608  19.020  18.840  22.970
  234BOLB   C1C 5609  19.460  18.960  22.670
  234BOLB   C2C 5610  19.300  18.910  22.280
  234BOLB   C3C 5611  19.260  18.960  21.880
  234BOLB   C4C 5612  19.220  19.030  21.390
  234BOLB   C1D 5613  19.030  18.650  22.620
  234BOLB   C2D 5614  18.870  18.640  22.100
  234BOLB   C3D 5615  18.870  18.810  21.680
  234BOLB   C4D 5616  18.590  18.880  21.430
  235BOLB   NC1 5617  15.910  14.480  19.740
  235BOLB   PO1 5618  16.190  14.810  19.880
  235BOLB   GL1 5619  15.920  14.760  20.310
  235BOLB   GL2 5620  16.120  14.870  20.520
  235BOLB   C1A 5621  15.840  14.380  20.600
  235BOLB   C2A 5622  15.480  14.420  20.890
  235BOLB   C3A 5623  15.250  14.400  21.150
  235BOLB   C4A 5624  15.150  14.640  21.400
  235BOLB   C1B 5625  15.760  14.810  20.840
  235BOLB   C2B 5626  15.660  14.740  21.300
  235BOLB   C3B 5627  15.480  14.640  21.720
  235BOLB   C4B 5628  15.590  14.460  22.060
  235BOLB   NC2 5629  15.040  15.280  23.950
  235BOLB   PO2 5630  14.940  15.030  23.730
  235BOLB   GL3 5631  14.780  14.830  23.400
  235BOLB   GL4 5632  15.080  14.820  23.150
  235BOLB   C1C 5633  14.700  14.500  23.050
  235BOLB   C2C 5634  14.880  14.450  22.570
  235BOLB   C3C 5635  14.960  14.310  22.060
  235BOLB   C4C 5636  14.920  14.650  21.800
  235BOLB   C1D 5637  15.190  14.440  23.070
  235BOLB   C2D 5638  15.240  14.150  22.760
  235BOLB   C3D 5639  15.330  14.240  22.380
  235BOLB   C4D 5640  15.390  13.970  22.040
  236BOLB   NC1 5641  17.510   9.630  20.190
  236BOLB   PO1 5642  17.440  10.110  20.330
  236BOLB   GL1 5643  17.350   9.780  20.630
  236BOLB   GL2 5644  17.100   9.620  20.450
  236BOLB   C1A 5645  17.450   9.520  20.980
  236BOLB   C2A 5646  17.190   9.220  21.360
  236BOLB   C3A 5647  16.910   9.200  21.640
  236BOLB   C4A 5648  16.710   9.300  22.090
  236BOLB   C1B 5649  16.960   9.540  20.790
  236BOLB   C2B 5650  16.820   9.480  21.170
  236BOLB   C3B 5651  16.680   9.770  21.520
  236BOLB   C4B 5652  16.690   9.780  22.010
  236BOLB   NC2 5653  16.780   8.590  24.130
  236BOLB   PO2 5654  16.580   8.820  24.280
  236BOLB   GL3 5655  16.780   9.060  23.990
  236BOLB   GL4 5656  16.770   9.330  23.980
  236BOLB   C1C 5657  16.680   9.170  23.480
  236BOLB   C2C 5658  16.540   8.990  23.090
  236BOLB   C3C 5659  16.530   9.060  22.710
  236BOLB   C4C 5660  16.430   9.310  22.360
  236BOLB   C1D 5661  17.050   9.510  23.700
  236BOLB   C2D 5662  17.120   9.490  23.250
  236BOLB   C3D 5663  16.970   9.370  22.920
  236BOLB   C4D 5664  16.900   9.440  22.510
  237BOLB   NC1 5665  17.790  17.650  19.660
  237BOLB   PO1 5666  17.750  17.910  19.330
  237BOLB   GL1 5667  17.560  18.120  19.700
  237BOLB   GL2 5668  17.780  18.310  19.800
  237BOLB   C1A 5669  17.450  18.220  20.150
  237BOLB   C2A 5670  17.430  18.580  20.450
  237BOLB   C3A 5671  17.140  18.610  20.890
  237BOLB   C4A 5672  17.090  18.740  21.210
  237BOLB   C1B 5673  17.860  18.600  20.190
  237BOLB   C2B 5674  17.840  18.830  20.610
  237BOLB   C3B 5675  17.620  19.200  20.950
  237BOLB   C4B 5676  17.670  19.470  21.340
  237BOLB   NC2 5677  16.520  18.120  23.660
  237BOLB   PO2 5678  16.870  18.230  23.570
  237BOLB   GL3 5679  16.700  18.190  23.180
  237BOLB   GL4 5680  16.370  18.360  23.040
  237BOLB   C1C 5681  16.840  18.210  22.760
  237BOLB   C2C 5682  16.850  18.570  22.460
  237BOLB   C3C 5683  17.010  18.810  22.200
  237BOLB   C4C 5684  17.100  18.680  21.750
  237BOLB   C1D 5685  16.360  18.080  22.720
  237BOLB   C2D 5686  16.710  17.910  22.400
  237BOLB   C3D 5687  16.600  17.960  21.920
  237BOLB   C4D 5688  16.410  17.920  21.470
  238BOLB   NC1 5689  16.180  20.810  18.070
  238BOLB   PO1 5690  16.090  20.450  17.950
  238BOLB   GL1 5691  16.030  20.580  18.500
  238BOLB   GL2 5692  16.150  20.550  18.810
  238BOLB   C1A 5693  15.900  21.030  18.640
  238BOLB   C2A 5694  15.760  21.480  18.730
  238BOLB   C3A 5695  15.690  21.930  18.850
  238BOLB   C4A 5696  15.290  22.350  18.920
  238BOLB   C1B 5697  16.100  20.830  19.190
  238BOLB   C2B 5698  16.060  21.180  19.430
  238BOLB   C3B 5699  16.210  21.330  19.760
  238BOLB   C4B 5700  16.340  21.620  20.110
  238BOLB   NC2 5701  13.450  23.990  19.450
  238BOLB   PO2 5702  13.720  24.070  19.680
  238BOLB   GL3 5703  13.930  23.920  19.180
  238BOLB   GL4 5704  14.230  24.170  18.930
  238BOLB   C1C 5705  14.200  23.660  18.950
  238BOLB   C2C 5706  14.420  23.280  18.860
  238BOLB   C3C 5707  14.710  22.990  18.890
  238BOLB   C4C 5708  15.120  22.760  18.980
  238BOLB   C1D 5709  14.310  23.950  18.570
  238BOLB   C2D 5710  14.440  23.880  18.180
  238BOLB   C3D 5711  14.810  23.660  17.900
  238BOLB   C4D 5712  15.070  23.550  17.440
  239BOLB   NC1 5713  19.040  21.510  17.820
  239BOLB   PO1 5714  19.080  21.960  17.520
  239BOLB   GL1 5715  18.950  22.400  17.700
  239BOLB   GL2 5716  19.070  22.660  17.680
  239BOLB   C1A 5717  18.580  22.670  17.840
  239BOLB   C2A 5718  18.410  23.060  17.980
  239BOLB   C3A 5719  18.400  23.310  18.410
  239BOLB   C4A 5720  18.580  23.390  18.830
  239BOLB   C1B 5721  19.450  22.640  17.790
  239BOLB   C2B 5722  19.550  22.990  18.030
  239BOLB   C3B 5723  19.880  23.380  18.160
  239BOLB   C4B 5724  20.070  23.760  18.340
  239BOLB   NC2 5725  18.820  25.600  19.260
  239BOLB   PO2 5726  18.520  25.480  19.450
  239BOLB   GL3 5727  18.670  25.050  19.430
  239BOLB   GL4 5728  18.980  25.030  19.480
  239BOLB   C1C 5729  18.780  24.730  19.130
  239BOLB   C2C 5730  18.670  24.310  19.180
  239BOLB   C3C 5731  18.610  23.920  19.190
  239BOLB   C4C 5732  18.620  23.550  19.190
  239BOLB   C1D 5733  19.090  24.520  19.450
  239BOLB   C2D 5734  19.130  24.120  19.330
  239BOLB   C3D 5735  19.080  23.730  19.190
  239BOLB   C4D 5736  19.130  23.400  19.070
  240BOLB   NC1 5737  26.850  13.030  17.810
  240BOLB   PO1 5738  26.890  13.310  17.620
  240BOLB   GL1 5739  27.330  13.160  17.760
  240BOLB   GL2 5740  27.550  13.340  17.770
  240BOLB   C1A 5741  27.710  12.960  17.980
  240BOLB   C2A 5742  28.050  12.820  18.160
  240BOLB   C3A 5743  28.420  12.900  18.340
  240BOLB   C4A 5744  28.820  12.810  18.610
  240BOLB   C1B 5745  27.810  13.450  18.000
  240BOLB   C2B 5746  27.980  13.390  18.360
  240BOLB   C3B 5747  28.300  13.760  18.470
  240BOLB   C4B 5748  28.650  13.790  18.650
  240BOLB   NC2 5749  30.390  13.520  20.290
  240BOLB   PO2 5750  30.670  13.600  19.890
  240BOLB   GL3 5751  30.300  13.690  19.670
  240BOLB   GL4 5752  30.090  13.520  19.910
  240BOLB   C1C 5753  30.210  13.490  19.340
  240BOLB   C2C 5754  30.030  13.280  18.970
  240BOLB   C3C 5755  29.640  13.100  18.860
  240BOLB   C4C 5756  29.240  12.950  18.740
  240BOLB   C1D 5757  29.780  13.400  19.720
  240BOLB   C2D 5758  29.670  13.560  19.340
  240BOLB   C3D 5759  29.530  13.660  18.910
  240BOLB   C4D 5760  29.290  13.480  18.740
  241BOLB   NC1 5761  26.810  14.490  18.020
  241BOLB   PO1 5762  26.450  14.200  18.300
  241BOLB   GL1 5763  26.840  14.290  18.420
  241BOLB   GL2 5764  26.730  14.580  18.520
  241BOLB   C1A 5765  27.190  14.440  18.630
  241BOLB   C2A 5766  27.360  14.770  18.980
  241BOLB   C3A 5767  27.560  15.220  19.100
  241BOLB   C4A 5768  27.930  15.270  19.270
  241BOLB   C1B 5769  27.000  14.910  18.600
  241BOLB   C2B 5770  27.090  15.320  18.870
  241BOLB   C3B 5771  27.320  15.610  18.880
  241BOLB   C4B 5772  27.490  15.860  19.140
  241BOLB   NC2 5773  29.400  15.690  21.280
  241BOLB   PO2 5774  29.700  15.630  21.010
  241BOLB   GL3 5775  29.350  15.750  20.720
  241BOLB   GL4 5776  29.260  15.960  20.520
  241BOLB   C1C 5777  29.100  15.490  20.470
  241BOLB   C2C 5778  28.930  15.410  20.140
  241BOLB   C3C 5779  28.680  15.500  19.790
  241BOLB   C4C 5780  28.300  15.400  19.500
  241BOLB   C1D 5781  28.960  15.990  20.110
  241BOLB   C2D 5782  28.800  16.010  19.650
  241BOLB   C3D 5783  28.570  15.830  19.360
  241BOLB   C4D 5784  28.400  15.590  19.070
  242BOLB   NC1 5785  23.070   9.230  19.780
  242BOLB   PO1 5786  23.330   9.580  19.940
  242BOLB   GL1 5787  23.430   9.650  20.380
  242BOLB   GL2 5788  23.570   9.910  20.440
  242BOLB   C1A 5789  23.650   9.470  20.740
  242BOLB   C2A 5790  23.870   9.110  20.970
  242BOLB   C3A 5791  24.190   8.950  21.180
  242BOLB   C4A 5792  24.300   9.020  21.650
  242BOLB   C1B 5793  23.600   9.890  20.910
  242BOLB   C2B 5794  23.830   9.600  21.170
  242BOLB   C3B 5795  23.760   9.280  21.410
  242BOLB   C4B 5796  23.850   8.930  21.570
  242BOLB   NC2 5797  25.930   9.650  23.730
  242BOLB   PO2 5798  25.660   9.880  23.380
  242BOLB   GL3 5799  25.390   9.710  23.110
  242BOLB   GL4 5800  25.590   9.580  22.840
  242BOLB   C1C 5801  24.990   9.720  22.970
  242BOLB   C2C 5802  24.720   9.470  22.620
  242BOLB   C3C 5803  24.760   9.430  22.180
  242BOLB   C4C 5804  24.570   9.170  21.950
  242BOLB   C1D 5805  25.710   9.710  22.300
  242BOLB   C2D 5806  25.560   9.770  21.840
  242BOLB   C3D 5807  25.250   9.580  21.570
  242BOLB   C4D 5808  24.890   9.530  21.680
  243BOLB   NC1 5809  25.270  10.070  18.890
  243BOLB   PO1 5810  25.680  10.300  18.810
  243BOLB   GL1 5811  25.830  10.090  19.040
  243BOLB   GL2 5812  26.120   9.790  18.970
  243BOLB   C1A 5813  26.110  10.260  19.370
  243BOLB   C2A 5814  26.360   9.990  19.670
  243BOLB   C3A 5815  26.710   9.910  19.900
  243BOLB   C4A 5816  27.000   9.760  20.140
  243BOLB   C1B 5817  26.030   9.670  19.320
  243BOLB   C2B 5818  26.370   9.510  19.730
  243BOLB   C3B 5819  26.370   9.480  20.260
  243BOLB   C4B 5820  26.690   9.640  20.480
  243BOLB   NC2 5821  28.420   9.620  21.730
  243BOLB   PO2 5822  28.050   9.460  22.060
  243BOLB   GL3 5823  27.700   9.750  21.990
  243BOLB   GL4 5824  27.960   9.830  21.630
  243BOLB   C1C 5825  27.450   9.920  21.600
  243BOLB   C2C 5826  27.190   9.810  21.270
  243BOLB   C3C 5827  27.190   9.950  20.920
  243BOLB   C4C 5828  27.130   9.880  20.550
  243BOLB   C1D 5829  27.780  10.010  21.250
  243BOLB   C2D 5830  27.740  10.120  20.800
  243BOLB   C3D 5831  27.870  10.160  20.420
  243BOLB   C4D 5832  27.930  10.390  20.080
  244BOLB   NC1 5833  21.470   6.820  18.180
  244BOLB   PO1 5834  21.330   6.760  18.530
  244BOLB   GL1 5835  21.470   6.510  18.810
  244BOLB   GL2 5836  21.760   6.490  18.600
  244BOLB   C1A 5837  21.560   6.090  18.740
  244BOLB   C2A 5838  21.790   5.910  19.060
  244BOLB   C3A 5839  21.700   5.730  19.380
  244BOLB   C4A 5840  21.540   5.550  19.660
  244BOLB   C1B 5841  22.020   6.520  18.930
  244BOLB   C2B 5842  21.920   6.260  19.330
  244BOLB   C3B 5843  22.010   6.000  19.720
  244BOLB   C4B 5844  22.000   5.540  19.780
  244BOLB   NC2 5845  21.140   3.070  21.240
  244BOLB   PO2 5846  21.050   3.180  20.790
  244BOLB   GL3 5847  20.920   3.500  20.540
  244BOLB   GL4 5848  20.780   3.490  20.200
  244BOLB   C1C 5849  21.070   4.030  20.600
  244BOLB   C2C 5850  21.290   4.370  20.310
  244BOLB   C3C 5851  21.440   4.720  20.060
  244BOLB   C4C 5852  21.620   5.100  19.750
  244BOLB   C1D 5853  20.710   3.740  19.820
  244BOLB   C2D 5854  20.580   4.080  19.630
  244BOLB   C3D 5855  20.750   4.170  19.170
  244BOLB   C4D 5856  21.120   3.940  19.030
  245BOLB   NC1 5857  25.960  15.660  17.680
  245BOLB   PO1 5858  26.280  15.920  17.700
  245BOLB   GL1 5859  26.520  15.980  18.080
  245BOLB   GL2 5860  26.350  16.230  18.360
  245BOLB   C1A 5861  26.820  15.860  18.420
  245BOLB   C2A 5862  27.200  16.150  18.580
  245BOLB   C3A 5863  27.320  16.370  18.930
  245BOLB   C4A 5864  27.650  16.660  18.960
  245BOLB   C1B 5865  26.650  16.430  18.670
  245BOLB   C2B 5866  26.890  16.670  19.010
  245BOLB   C3B 5867  27.230  16.770  19.260
  245BOLB   C4B 5868  27.580  17.060  19.290
  245BOLB   NC2 5869  29.350  16.720  21.190
  245BOLB   PO2 5870  29.350  16.420  20.760
  245BOLB   GL3 5871  29.240  16.420  20.240
  245BOLB   GL4 5872  29.520  16.290  20.040
  245BOLB   C1C 5873  28.910  16.520  19.870
  245BOLB   C2C 5874  28.670  16.610  19.530
  245BOLB   C3C 5875  28.420  16.870  19.330
  245BOLB   C4C 5876  28.050  16.780  19.160
  245BOLB   C1D 5877  29.260  16.120  19.740
  245BOLB   C2D 5878  29.250  15.810  19.470
  245BOLB   C3D 5879  28.980  15.550  19.190
  245BOLB   C4D 5880  29.110  15.470  18.810
  246BOLB   NC1 5881  13.090   9.350  17.520
  246BOLB   PO1 5882  12.900   9.580  17.730
  246BOLB   GL1 5883  12.530   9.360  17.860
  246BOLB   GL2 5884  12.360   9.100  17.690
  246BOLB   C1A 5885  12.360   9.280  18.270
  246BOLB   C2A 5886  12.240   9.230  18.690
  246BOLB   C3A 5887  11.900   8.990  18.900
  246BOLB   C4A 5888  11.960   8.670  19.230
  246BOLB   C1B 5889  11.920   9.060  18.000
  246BOLB   C2B 5890  11.550   8.980  18.250
  246BOLB   C3B 5891  11.150   8.860  18.490
  246BOLB   C4B 5892  10.780   8.890  18.420
  246BOLB   NC2 5893   9.860   8.500  20.790
  246BOLB   PO2 5894   9.750   8.430  20.360
  246BOLB   GL3 5895  10.010   8.580  20.010
  246BOLB   GL4 5896  10.090   8.410  19.740
  246BOLB   C1C 5897  10.460   8.760  19.910
  246BOLB   C2C 5898  10.960   8.860  20.020
  246BOLB   C3C 5899  11.390   8.790  19.820
  246BOLB   C4C 5900  11.840   8.680  19.630
  246BOLB   C1D 5901  10.050   8.530  19.230
  246BOLB   C2D 5902  10.060   8.790  18.870
  246BOLB   C3D 5903  10.240   9.000  18.570
  246BOLB   C4D 5904  10.410   9.440  18.550
  247BOLB   NC1 5905  13.930  15.790  18.840
  247BOLB   PO1 5906  14.120  16.260  18.750
  247BOLB   GL1 5907  14.270  16.220  19.090
  247BOLB   GL2 5908  14.420  16.390  19.130
  247BOLB   C1A 5909  14.030  16.050  19.430
  247BOLB   C2A 5910  13.570  15.820  19.460
  247BOLB   C3A 5911  13.330  15.890  19.760
  247BOLB   C4A 5912  13.140  15.730  20.130
  247BOLB   C1B 5913  14.200  16.640  19.520
  247BOLB   C2B 5914  13.770  16.820  19.730
  247BOLB   C3B 5915  13.520  17.110  20.030
  247BOLB   C4B 5916  13.210  17.400  20.210
  247BOLB   NC2 5917  11.960  17.070  22.380
  247BOLB   PO2 5918  12.180  16.780  22.090
  247BOLB   GL3 5919  12.340  16.830  21.670
  247BOLB   GL4 5920  12.480  17.130  21.730
  247BOLB   C1C 5921  12.330  16.490  21.430
  247BOLB   C2C 5922  12.570  16.230  21.040
  247BOLB   C3C 5923  12.650  15.870  20.750
  247BOLB   C4C 5924  12.890  15.640  20.490
  247BOLB   C1D 5925  12.740  17.270  21.570
  247BOLB   C2D 5926  13.220  17.330  21.530
  247BOLB   C3D 5927  13.470  17.060  21.280
  247BOLB   C4D 5928  13.580  16.980  20.750
  248BOLB   NC1 5929  21.830  21.200  18.200
  248BOLB   PO1 5930  21.470  21.280  18.010
  248BOLB   GL1 5931  21.370  21.500  18.280
  248BOLB   GL2 5932  21.600  21.650  18.400
  248BOLB   C1A 5933  21.120  21.910  18.480
  248BOLB   C2A 5934  21.200  22.200  18.900
  248BOLB   C3A 5935  21.120  22.290  19.360
  248BOLB   C4A 5936  20.690  22.310  19.380
  248BOLB   C1B 5937  21.750  22.060  18.510
  248BOLB   C2B 5938  21.740  22.350  18.770
  248BOLB   C3B 5939  22.020  22.690  18.730
  248BOLB   C4B 5940  22.400  22.990  18.660
  248BOLB   NC2 5941  19.320  23.510  21.410
  248BOLB   PO2 5942  19.720  23.690  21.220
  248BOLB   GL3 5943  19.930  23.640  20.820
  248BOLB   GL4 5944  19.820  23.830  20.620
  248BOLB   C1C 5945  20.100  23.450  20.420
  248BOLB   C2C 5946  20.120  23.250  20.040
  248BOLB   C3C 5947  20.190  22.930  19.710
  248BOLB   C4C 5948  20.290  22.520  19.630
  248BOLB   C1D 5949  19.690  23.740  20.210
  248BOLB   C2D 5950  19.550  23.260  20.140
  248BOLB   C3D 5951  19.700  23.030  19.700
  248BOLB   C4D 5952  19.840  22.780  19.380
  249BOLB   NC1 5953  20.790  22.870  10.960
  249BOLB   PO1 5954  21.100  23.140  11.140
  249BOLB   GL1 5955  21.120  23.500  11.230
  249BOLB   GL2 5956  20.790  23.620  11.390
  249BOLB   C1A 5957  21.280  23.970  11.120
  249BOLB   C2A 5958  21.160  24.290  11.030
  249BOLB   C3A 5959  20.960  24.620  10.760
  249BOLB   C4A 5960  21.040  25.000  10.510
  249BOLB   C1B 5961  20.720  24.060  11.470
  249BOLB   C2B 5962  21.010  24.400  11.510
  249BOLB   C3B 5963  21.270  24.720  11.360
  249BOLB   C4B 5964  21.430  25.170  11.310
  249BOLB   NC2 5965  20.270  26.900   9.410
  249BOLB   PO2 5966  20.160  27.110   9.830
  249BOLB   GL3 5967  20.080  26.790  10.100
  249BOLB   GL4 5968  19.780  26.680  10.090
  249BOLB   C1C 5969  20.110  26.380  10.220
  249BOLB   C2C 5970  20.430  26.070  10.280
  249BOLB   C3C 5971  20.710  25.800  10.480
  249BOLB   C4C 5972  20.900  25.410  10.490
  249BOLB   C1D 5973  19.640  26.300   9.820
  249BOLB   C2D 5974  19.230  26.070   9.650
  249BOLB   C3D 5975  19.070  25.570   9.500
  249BOLB   C4D 5976  19.090  25.140   9.410
  250BOLB   NC1 5977  22.510  17.910  19.400
  250BOLB   PO1 5978  22.220  18.220  19.570
  250BOLB   GL1 5979  22.310  18.480  19.840
  250BOLB   GL2 5980  22.190  18.860  19.770
  250BOLB   C1A 5981  22.270  18.470  20.270
  250BOLB   C2A 5982  22.310  18.450  20.760
  250BOLB   C3A 5983  22.370  18.420  21.130
  250BOLB   C4A 5984  22.230  18.740  21.310
  250BOLB   C1B 5985  22.270  19.270  19.960
  250BOLB   C2B 5986  22.440  19.640  20.210
  250BOLB   C3B 5987  22.590  19.490  20.660
  250BOLB   C4B 5988  22.540  19.770  21.040
  250BOLB   NC2 5989  21.640  20.810  22.770
  250BOLB   PO2 5990  21.200  20.720  22.710
  250BOLB   GL3 5991  21.210  20.230  22.550
  250BOLB   GL4 5992  21.070  20.060  22.580
  250BOLB   C1C 5993  21.270  19.980  22.100
  250BOLB   C2C 5994  21.620  19.750  21.960
  250BOLB   C3C 5995  22.040  19.560  21.780
  250BOLB   C4C 5996  22.190  19.240  21.390
  250BOLB   C1D 5997  20.980  19.710  22.420
  250BOLB   C2D 5998  21.160  19.420  22.080
  250BOLB   C3D 5999  21.260  19.260  21.720
  250BOLB   C4D 6000  21.590  19.500  21.510
  251BOLB   NC1 6001  17.640   7.520  18.980
  251BOLB   PO1 6002  17.760   7.800  19.400
  251BOLB   GL1 6003  17.640   7.650  19.850
  251BOLB   GL2 6004  17.490   7.790  20.030
  251BOLB   C1A 6005  17.790   7.370  20.100
  251BOLB   C2A 6006  17.570   7.220  20.380
  251BOLB   C3A 6007  17.490   7.210  20.790
  251BOLB   C4A 6008  17.280   7.110  21.100
  251BOLB   C1B 6009  17.220   7.540  20.320
  251BOLB   C2B 6010  16.970   7.250  20.470
  251BOLB   C3B 6011  16.770   7.020  20.770
  251BOLB   C4B 6012  16.450   7.170  21.060
  251BOLB   NC2 6013  16.270   6.650  23.060
  251BOLB   PO2 6014  16.620   6.820  23.230
  251BOLB   GL3 6015  16.570   6.960  22.850
  251BOLB   GL4 6016  16.670   7.190  22.930
  251BOLB   C1C 6017  16.630   6.820  22.420
  251BOLB   C2C 6018  16.800   6.750  22.070
  251BOLB   C3C 6019  16.670   6.980  21.620
  251BOLB   C4C 6020  16.960   7.260  21.320
  251BOLB   C1D 6021  16.840   7.290  22.490
  251BOLB   C2D 6022  16.980   7.190  22.060
  251BOLB   C3D 6023  17.260   7.010  21.690
  251BOLB   C4D 6024  17.700   7.020  21.440
  252BOLB   NC1 6025  20.300   5.700  15.220
  252BOLB   PO1 6026  20.230   5.290  15.380
  252BOLB   GL1 6027  20.280   4.750  15.440
  252BOLB   GL2 6028  20.600   4.650  15.630
  252BOLB   C1A 6029  20.340   4.290  15.590
  252BOLB   C2A 6030  20.480   3.860  15.780
  252BOLB   C3A 6031  20.610   3.520  16.060
  252BOLB   C4A 6032  20.740   3.150  16.180
  252BOLB   C1B 6033  20.940   4.380  15.530
  252BOLB   C2B 6034  20.960   4.030  15.600
  252BOLB   C3B 6035  20.840   3.670  15.550
  252BOLB   C4B 6036  20.620   3.300  15.620
  252BOLB   NC2 6037  20.630   1.320  17.440
  252BOLB   PO2 6038  20.750   1.360  16.980
  252BOLB   GL3 6039  20.690   1.770  17.080
  252BOLB   GL4 6040  20.490   1.840  17.370
  252BOLB   C1C 6041  20.740   2.150  16.990
  252BOLB   C2C 6042  21.040   2.360  16.750
  252BOLB   C3C 6043  21.140   2.600  16.450
  252BOLB   C4C 6044  21.060   2.960  16.350
  252BOLB   C1D 6045  20.670   2.240  17.520
  252BOLB   C2D 6046  20.940   2.430  17.700
  252BOLB   C3D 6047  21.030   2.840  17.780
  252BOLB   C4D 6048  21.370   3.020  17.830
  253BOLB   NC1 6049  17.830  18.450  18.960
  253BOLB   PO1 6050  17.630  18.420  19.330
  253BOLB   GL1 6051  17.400  18.560  19.560
  253BOLB   GL2 6052  17.480  18.930  19.650
  253BOLB   C1A 6053  17.130  18.700  19.900
  253BOLB   C2A 6054  16.990  18.860  20.120
  253BOLB   C3A 6055  16.800  18.960  20.530
  253BOLB   C4A 6056  16.650  18.790  20.890
  253BOLB   C1B 6057  17.510  19.060  20.070
  253BOLB   C2B 6058  17.270  19.080  20.500
  253BOLB   C3B 6059  17.120  19.160  20.820
  253BOLB   C4B 6060  16.700  19.310  20.920
  253BOLB   NC2 6061  16.220  20.140  23.060
  253BOLB   PO2 6062  16.420  19.710  23.150
  253BOLB   GL3 6063  16.340  19.540  22.750
  253BOLB   GL4 6064  16.560  19.560  22.570
  253BOLB   C1C 6065  16.070  19.370  22.390
  253BOLB   C2C 6066  16.120  19.250  21.930
  253BOLB   C3C 6067  16.120  19.010  21.490
  253BOLB   C4C 6068  16.320  18.900  21.140
  253BOLB   C1D 6069  16.830  19.850  22.340
  253BOLB   C2D 6070  17.010  19.770  21.950
  253BOLB   C3D 6071  17.070  19.820  21.550
  253BOLB   C4D 6072  16.830  19.730  21.200
  254BOLB   NC1 6073  19.540  22.210   9.070
  254BOLB   PO1 6074  19.930  22.000   9.140
  254BOLB   GL1 6075  19.960  22.460   8.950
  254BOLB   GL2 6076  19.730  22.650   9.000
  254BOLB   C1A 6077  20.120  22.720   8.650
  254BOLB   C2A 6078  20.240  22.870   8.160
  254BOLB   C3A 6079  20.160  23.160   7.860
  254BOLB   C4A 6080  20.170  23.150   7.430
  254BOLB   C1B 6081  19.580  22.700   8.660
  254BOLB   C2B 6082  19.740  22.850   8.330
  254BOLB   C3B 6083  19.770  22.870   7.780
  254BOLB   C4B 6084  19.610  23.080   7.510
  254BOLB   NC2 6085  20.560  25.110   6.420
  254BOLB   PO2 6086  20.270  24.990   6.010
  254BOLB   GL3 6087  20.150  24.820   6.380
  254BOLB   GL4 6088  19.850  24.830   6.460
  254BOLB   C1C 6089  20.160  24.420   6.560
  254BOLB   C2C 6090  20.160  24.220   6.910
  254BOLB   C3C 6091  20.300  23.790   6.960
  254BOLB   C4C 6092  20.290  23.370   7.110
  254BOLB   C1D 6093  19.650  24.470   6.790
  254BOLB   C2D 6094  19.630  24.260   7.160
  254BOLB   C3D 6095  19.800  23.940   7.140
  254BOLB   C4D 6096  19.830  23.430   7.180
  255BOLB   NC1 6097  28.370  11.900  15.860
  255BOLB   PO1 6098  28.360  11.550  16.120
  255BOLB   GL1 6099  28.700  11.600  16.280
  255BOLB   GL2 6100  28.740  11.270  16.170
  255BOLB   C1A 6101  29.230  11.600  16.410
  255BOLB   C2A 6102  29.630  11.600  16.450
  255BOLB   C3A 6103  30.010  11.700  16.300
  255BOLB   C4A 6104  30.410  11.900  16.220
  255BOLB   C1B 6105  29.080  10.970  16.170
  255BOLB   C2B 6106  29.440  10.740  16.200
  255BOLB   C3B 6107  29.760  10.480  16.350
  255BOLB   C4B 6108  29.750  10.040  16.360
  255BOLB   NC2 6109  32.720  12.330  17.060
  255BOLB   PO2 6110  32.520  11.980  17.010
  255BOLB   GL3 6111  32.160  11.650  16.890
  255BOLB   GL4 6112  32.140  11.340  16.900
  255BOLB   C1C 6113  31.700  11.610  16.860
  255BOLB   C2C 6114  31.240  11.660  16.930
  255BOLB   C3C 6115  30.960  11.950  16.820
  255BOLB   C4C 6116  30.550  11.890  16.600
  255BOLB   C1D 6117  31.830  11.180  16.640
  255BOLB   C2D 6118  31.460  11.330  16.550
  255BOLB   C3D 6119  31.260  11.730  16.470
  255BOLB   C4D 6120  30.950  11.860  16.190
  256BOLB   NC1 6121  15.180  15.570  19.610
  256BOLB   PO1 6122  15.580  15.610  19.620
  256BOLB   GL1 6123  15.400  15.840  19.970
  256BOLB   GL2 6124  15.330  16.270  19.820
  256BOLB   C1A 6125  15.410  15.670  20.330
  256BOLB   C2A 6126  15.720  15.730  20.680
  256BOLB   C3A 6127  15.790  15.660  21.070
  256BOLB   C4A 6128  15.600  15.450  21.440
  256BOLB   C1B 6129  15.260  16.210  20.320
  256BOLB   C2B 6130  15.270  16.070  20.740
  256BOLB   C3B 6131  15.340  15.960  21.170
  256BOLB   C4B 6132  15.500  16.020  21.590
  256BOLB   NC2 6133  15.560  15.910  23.830
  256BOLB   PO2 6134  15.260  16.150  23.510
  256BOLB   GL3 6135  15.380  16.320  23.130
  256BOLB   GL4 6136  15.510  16.600  23.280
  256BOLB   C1C 6137  15.270  16.410  22.730
  256BOLB   C2C 6138  15.400  16.230  22.400
  256BOLB   C3C 6139  15.440  15.880  22.070
  256BOLB   C4C 6140  15.470  15.560  21.830
  256BOLB   C1D 6141  15.580  16.870  22.880
  256BOLB   C2D 6142  15.290  17.040  22.550
  256BOLB   C3D 6143  15.360  17.090  22.050
  256BOLB   C4D 6144  15.500  16.990  21.620
  257BOLB   NC1 6145  15.330  17.680  18.740
  257BOLB   PO1 6146  15.440  17.340  18.980
  257BOLB   GL1 6147  15.180  17.420  19.230
  257BOLB   GL2 6148  14.940  17.270  19.250
  257BOLB   C1A 6149  15.120  17.540  19.620
  257BOLB   C2A 6150  14.960  17.670  20.000
  257BOLB   C3A 6151  14.690  17.850  20.230
  257BOLB   C4A 6152  14.390  18.000  20.660
  257BOLB   C1B 6153  14.580  17.500  19.410
  257BOLB   C2B 6154  14.360  17.720  19.770
  257BOLB   C3B 6155  14.190  17.860  20.190
  257BOLB   C4B 6156  13.940  17.790  20.470
  257BOLB   NC2 6157  12.420  19.300  21.890
  257BOLB   PO2 6158  12.870  19.200  21.990
  257BOLB   GL3 6159  13.030  18.910  21.730
  257BOLB   GL4 6160  12.930  18.900  21.430
  257BOLB   C1C 6161  13.370  18.630  21.380
  257BOLB   C2C 6162  13.700  18.880  21.170
  257BOLB   C3C 6163  14.170  18.740  21.100
  257BOLB   C4C 6164  14.360  18.370  20.970
  257BOLB   C1D 6165  12.910  18.500  21.210
  257BOLB   C2D 6166  13.090  18.080  20.980
  257BOLB   C3D 6167  13.640  17.750  20.860
  257BOLB   C4D 6168  13.820  17.340  21.010
  258BOLB   NC1 6169  28.390  13.360  16.510
  258BOLB   PO1 6170  28.280  12.980  16.590
  258BOLB   GL1 6171  28.540  12.910  16.920
  258BOLB   GL2 6172  28.720  13.200  16.900
  258BOLB   C1A 6173  28.860  12.810  17.250
  258BOLB   C2A 6174  29.170  12.710  17.580
  258BOLB   C3A 6175  29.170  12.570  17.970
  258BOLB   C4A 6176  29.220  12.540  18.370
  258BOLB   C1B 6177  29.010  13.430  17.020
  258BOLB   C2B 6178  29.100  13.730  17.340
  258BOLB   C3B 6179  29.440  13.740  17.510
  258BOLB   C4B 6180  29.820  13.560  17.840
  258BOLB   NC2 6181  30.230  12.290  20.560
  258BOLB   PO2 6182  30.350  11.930  20.520
  258BOLB   GL3 6183  30.290  12.120  20.090
  258BOLB   GL4 6184  30.450  12.350  19.980
  258BOLB   C1C 6185  30.130  12.220  19.630
  258BOLB   C2C 6186  30.060  12.490  19.310
  258BOLB   C3C 6187  29.790  12.620  18.960
  258BOLB   C4C 6188  29.650  12.580  18.550
  258BOLB   C1D 6189  30.140  12.720  19.940
  258BOLB   C2D 6190  29.720  12.700  19.670
  258BOLB   C3D 6191  29.430  12.590  19.330
  258BOLB   C4D 6192  29.260  12.540  18.940
  259BOLB   NC1 6193  25.440  19.590  10.580
  259BOLB   PO1 6194  25.030  19.840  10.600
  259BOLB   GL1 6195  25.260  20.040  10.350
  259BOLB   GL2 6196  25.640  20.070  10.360
  259BOLB   C1A 6197  25.360  20.280  10.000
  259BOLB   C2A 6198  25.650  20.560   9.940
  259BOLB   C3A 6199  26.080  20.640   9.790
  259BOLB   C4A 6200  26.470  20.910   9.810
  259BOLB   C1B 6201  25.850  20.040   9.930
  259BOLB   C2B 6202  26.150  20.100   9.620
  259BOLB   C3B 6203  26.390  19.850   9.260
  259BOLB   C4B 6204  26.590  19.540   9.050
  259BOLB   NC2 6205  28.160  23.080   9.540
  259BOLB   PO2 6206  28.190  22.750   9.200
  259BOLB   GL3 6207  27.870  22.400   9.280
  259BOLB   GL4 6208  27.960  22.210   9.560
  259BOLB   C1C 6209  27.420  22.120   9.250
  259BOLB   C2C 6210  27.170  21.800   9.410
  259BOLB   C3C 6211  26.770  21.700   9.460
  259BOLB   C4C 6212  26.620  21.350   9.660
  259BOLB   C1D 6213  27.690  21.840   9.610
  259BOLB   C2D 6214  27.370  21.680   9.830
  259BOLB   C3D 6215  27.020  21.500   9.910
  259BOLB   C4D 6216  26.600  21.290  10.140
  260BOLB   NC1 6217  19.270  12.090  20.320
  260BOLB   PO1 6218  18.910  11.880  20.630
  260BOLB   GL1 6219  18.890  11.930  21.010
  260BOLB   GL2 6220  18.860  11.580  21.020
  260BOLB   C1A 6221  18.900  12.040  21.490
  260BOLB   C2A 6222  18.790  11.850  21.880
  260BOLB   C3A 6223  18.800  11.540  22.230
  260BOLB   C4A 6224  19.000  11.200  22.340
  260BOLB   C1B 6225  18.930  11.490  21.330
  260BOLB   C2B 6226  18.860  11.350  21.780
  260BOLB   C3B 6227  18.600  11.140  22.060
  260BOLB   C4B 6228  18.510  11.180  22.460
  260BOLB   NC2 6229  19.410  11.390  24.640
  260BOLB   PO2 6230  19.050  11.060  24.670
  260BOLB   GL3 6231  19.120  11.020  24.270
  260BOLB   GL4 6232  19.260  10.720  24.300
  260BOLB   C1C 6233  19.190  11.040  23.870
  260BOLB   C2C 6234  19.400  10.890  23.480
  260BOLB   C3C 6235  19.390  10.820  23.030
  260BOLB   C4C 6236  19.270  11.070  22.690
  260BOLB   C1D 6237  19.080  10.500  23.970
  260BOLB   C2D 6238  18.940  10.540  23.570
  260BOLB   C3D 6239  18.670  10.550  23.180
  260BOLB   C4D 6240  18.550  10.820  22.860
  261BOLB   NC1 6241  21.000  22.530  15.950
  261BOLB   PO1 6242  20.800  22.460  16.270
  261BOLB   GL1 6243  20.760  22.830  16.590
  261BOLB   GL2 6244  20.730  22.670  16.770
  261BOLB   C1A 6245  20.600  23.280  16.700
  261BOLB   C2A 6246  20.700  23.690  16.790
  261BOLB   C3A 6247  20.730  24.010  16.970
  261BOLB   C4A 6248  20.860  24.150  17.480
  261BOLB   C1B 6249  20.720  22.950  17.050
  261BOLB   C2B 6250  20.510  23.400  17.210
  261BOLB   C3B 6251  20.440  23.820  17.420
  261BOLB   C4B 6252  20.390  24.160  17.700
  261BOLB   NC2 6253  19.700  25.580  19.490
  261BOLB   PO2 6254  20.120  25.290  19.490
  261BOLB   GL3 6255  20.170  25.070  19.180
  261BOLB   GL4 6256  20.040  24.820  19.300
  261BOLB   C1C 6257  20.400  25.010  18.820
  261BOLB   C2C 6258  20.630  24.680  18.580
  261BOLB   C3C 6259  20.860  24.500  18.280
  261BOLB   C4C 6260  20.970  24.300  17.960
  261BOLB   C1D 6261  19.770  24.510  18.990
  261BOLB   C2D 6262  19.860  24.070  18.920
  261BOLB   C3D 6263  20.160  23.690  18.880
  261BOLB   C4D 6264  20.400  23.500  18.530
  262BOLB   NC1 6265  12.410   8.630  13.970
  262BOLB   PO1 6266  12.450   8.330  14.290
  262BOLB   GL1 6267  12.000   8.390  14.150
  262BOLB   GL2 6268  12.190   8.240  13.790
  262BOLB   C1A 6269  11.580   8.370  14.000
  262BOLB   C2A 6270  11.190   8.260  13.900
  262BOLB   C3A 6271  11.310   8.070  13.440
  262BOLB   C4A 6272  11.050   7.790  13.180
  262BOLB   C1B 6273  12.010   7.890  14.040
  262BOLB   C2B 6274  11.730   8.010  14.320
  262BOLB   C3B 6275  11.240   7.990  14.310
  262BOLB   C4B 6276  10.990   7.820  14.030
  262BOLB   NC2 6277  10.130   5.440  11.940
  262BOLB   PO2 6278  10.370   5.690  12.150
  262BOLB   GL3 6279  10.470   5.950  12.510
  262BOLB   GL4 6280  10.370   5.700  12.700
  262BOLB   C1C 6281  10.760   6.280  12.590
  262BOLB   C2C 6282  10.900   6.700  12.730
  262BOLB   C3C 6283  10.850   6.990  12.990
  262BOLB   C4C 6284  10.910   7.400  13.130
  262BOLB   C1D 6285  10.610   5.960  13.040
  262BOLB   C2D 6286  10.980   6.180  13.020
  262BOLB   C3D 6287  11.340   6.480  12.910
  262BOLB   C4D 6288  11.710   6.610  12.810
  263BOLB   NC1 6289  24.220  15.950  19.470
  263BOLB   PO1 6290  23.680  15.860  19.650
  263BOLB   GL1 6291  23.720  15.840  20.180
  263BOLB   GL2 6292  23.890  16.120  20.260
  263BOLB   C1A 6293  23.610  15.780  20.690
  263BOLB   C2A 6294  23.770  15.930  21.060
  263BOLB   C3A 6295  23.920  15.780  21.430
  263BOLB   C4A 6296  24.030  15.880  21.890
  263BOLB   C1B 6297  24.020  16.130  20.670
  263BOLB   C2B 6298  24.290  16.070  20.930
  263BOLB   C3B 6299  24.350  15.950  21.400
  263BOLB   C4B 6300  24.400  15.600  21.670
  263BOLB   NC2 6301  23.670  16.630  24.240
  263BOLB   PO2 6302  23.830  17.030  24.100
  263BOLB   GL3 6303  23.780  16.700  23.690
  263BOLB   GL4 6304  23.620  16.710  23.630
  263BOLB   C1C 6305  23.870  16.520  23.280
  263BOLB   C2C 6306  23.910  16.100  23.050
  263BOLB   C3C 6307  23.880  15.880  22.740
  263BOLB   C4C 6308  24.060  15.860  22.340
  263BOLB   C1D 6309  23.440  16.970  23.370
  263BOLB   C2D 6310  23.250  17.030  22.970
  263BOLB   C3D 6311  22.940  17.010  22.650
  263BOLB   C4D 6312  22.440  16.810  22.610
  264BOLB   NC1 6313  24.820  17.980  18.380
  264BOLB   PO1 6314  25.320  18.110  18.300
  264BOLB   GL1 6315  25.660  18.250  18.550
  264BOLB   GL2 6316  25.920  18.080  18.360
  264BOLB   C1A 6317  25.720  18.460  19.000
  264BOLB   C2A 6318  25.870  18.340  19.440
  264BOLB   C3A 6319  26.200  18.640  19.720
  264BOLB   C4A 6320  26.330  18.960  19.880
  264BOLB   C1B 6321  26.260  17.910  18.660
  264BOLB   C2B 6322  26.270  18.080  19.130
  264BOLB   C3B 6323  26.310  18.150  19.610
  264BOLB   C4B 6324  26.510  18.140  20.030
  264BOLB   NC2 6325  27.720  20.970  19.970
  264BOLB   PO2 6326  27.430  20.950  20.320
  264BOLB   GL3 6327  27.300  20.760  20.030
  264BOLB   GL4 6328  27.000  20.820  20.030
  264BOLB   C1C 6329  27.130  20.270  19.760
  264BOLB   C2C 6330  26.730  20.010  19.850
  264BOLB   C3C 6331  26.320  19.790  19.720
  264BOLB   C4C 6332  26.220  19.350  19.760
  264BOLB   C1D 6333  26.620  20.510  20.070
  264BOLB   C2D 6334  26.350  20.280  19.850
  264BOLB   C3D 6335  25.960  20.100  19.580
  264BOLB   C4D 6336  25.830  19.640  19.520
  265BOLB   NC1 6337  20.860  14.550  19.750
  265BOLB   PO1 6338  20.750  14.870  20.000
  265BOLB   GL1 6339  20.850  14.820  20.420
  265BOLB   GL2 6340  20.740  15.020  20.590
  265BOLB   C1A 6341  20.730  14.570  20.770
  265BOLB   C2A 6342  20.710  14.640  21.250
  265BOLB   C3A 6343  20.740  14.930  21.500
  265BOLB   C4A 6344  20.480  14.990  21.900
  265BOLB   C1B 6345  20.560  15.060  20.960
  265BOLB   C2B 6346  20.310  15.030  21.280
  265BOLB   C3B 6347  20.290  14.670  21.570
  265BOLB   C4B 6348  20.210  14.520  21.970
  265BOLB   NC2 6349  21.440  14.510  24.460
  265BOLB   PO2 6350  21.360  14.900  24.420
  265BOLB   GL3 6351  21.150  15.000  24.020
  265BOLB   GL4 6352  20.830  15.200  23.900
  265BOLB   C1C 6353  21.120  15.100  23.520
  265BOLB   C2C 6354  20.710  15.180  23.250
  265BOLB   C3C 6355  20.530  15.240  22.940
  265BOLB   C4C 6356  20.450  15.150  22.360
  265BOLB   C1D 6357  20.690  14.850  23.630
  265BOLB   C2D 6358  20.570  14.600  23.180
  265BOLB   C3D 6359  20.600  14.470  22.790
  265BOLB   C4D 6360  20.890  14.210  22.720
  266BOLB   NC1 6361  25.600  17.470  17.780
  266BOLB   PO1 6362  25.680  17.440  18.250
  266BOLB   GL1 6363  25.830  17.590  18.680
  266BOLB   GL2 6364  25.770  17.800  18.810
  266BOLB   C1A 6365  26.130  17.470  19.000
  266BOLB   C2A 6366  26.400  17.670  19.370
  266BOLB   C3A 6367  26.430  17.680  19.840
  266BOLB   C4A 6368  26.600  17.400  20.080
  266BOLB   C1B 6369  25.820  17.850  19.240
  266BOLB   C2B 6370  25.900  17.820  19.640
  266BOLB   C3B 6371  25.970  18.010  20.010
  266BOLB   C4B 6372  26.220  17.770  20.320
  266BOLB   NC2 6373  29.010  17.950  21.250
  266BOLB   PO2 6374  28.780  17.660  21.090
  266BOLB   GL3 6375  28.610  17.350  20.780
  266BOLB   GL4 6376  28.480  16.980  20.850
  266BOLB   C1C 6377  28.360  17.240  20.350
  266BOLB   C2C 6378  27.950  17.260  20.190
  266BOLB   C3C 6379  27.490  17.320  20.150
  266BOLB   C4C 6380  27.030  17.330  20.030
  266BOLB   C1D 6381  28.290  16.730  20.400
  266BOLB   C2D 6382  27.930  16.650  20.260
  266BOLB   C3D 6383  27.750  16.610  19.890
  266BOLB   C4D 6384  27.650  16.580  19.500
  267BOLB   NC1 6385  14.410   9.120  18.680
  267BOLB   PO1 6386  14.570   9.120  19.130
  267BOLB   GL1 6387  14.320   8.920  19.360
  267BOLB   GL2 6388  14.090   8.780  19.190
  267BOLB   C1A 6389  14.130   9.010  19.690
  267BOLB   C2A 6390  13.940   8.750  20.010
  267BOLB   C3A 6391  14.240   8.580  20.280
  267BOLB   C4A 6392  14.350   8.450  20.710
  267BOLB   C1B 6393  13.860   8.610  19.540
  267BOLB   C2B 6394  13.760   8.280  19.750
  267BOLB   C3B 6395  13.610   8.010  19.990
  267BOLB   C4B 6396  13.280   8.130  20.330
  267BOLB   NC2 6397  13.100   7.750  23.160
  267BOLB   PO2 6398  13.390   8.010  23.050
  267BOLB   GL3 6399  13.640   8.010  22.680
  267BOLB   GL4 6400  13.560   8.340  22.530
  267BOLB   C1C 6401  13.720   7.890  22.210
  267BOLB   C2C 6402  13.980   7.980  21.780
  267BOLB   C3C 6403  14.300   8.110  21.440
  267BOLB   C4C 6404  14.420   8.280  21.140
  267BOLB   C1D 6405  13.670   8.650  22.260
  267BOLB   C2D 6406  13.850   8.950  22.100
  267BOLB   C3D 6407  14.170   9.070  21.800
  267BOLB   C4D 6408  14.450   8.900  21.610
  268BOLB   NC1 6409  16.670  13.020  20.230
  268BOLB   PO1 6410  17.090  12.720  20.310
  268BOLB   GL1 6411  17.010  12.730  20.700
  268BOLB   GL2 6412  16.790  13.000  20.770
  268BOLB   C1A 6413  16.950  12.560  21.170
  268BOLB   C2A 6414  16.750  12.320  21.440
  268BOLB   C3A 6415  16.630  12.180  21.750
  268BOLB   C4A 6416  16.720  12.260  22.190
  268BOLB   C1B 6417  16.760  13.040  21.210
  268BOLB   C2B 6418  16.840  12.890  21.600
  268BOLB   C3B 6419  16.850  12.720  21.960
  268BOLB   C4B 6420  16.900  12.720  22.410
  268BOLB   NC2 6421  15.730  12.820  24.670
  268BOLB   PO2 6422  16.100  13.010  24.530
  268BOLB   GL3 6423  16.150  12.840  24.070
  268BOLB   GL4 6424  16.450  12.620  23.980
  268BOLB   C1C 6425  15.990  12.590  23.720
  268BOLB   C2C 6426  16.260  12.490  23.260
  268BOLB   C3C 6427  16.380  12.160  22.960
  268BOLB   C4C 6428  16.520  12.380  22.540
  268BOLB   C1D 6429  16.640  12.530  23.640
  268BOLB   C2D 6430  16.790  12.560  23.230
  268BOLB   C3D 6431  16.630  12.750  22.880
  268BOLB   C4D 6432  16.590  13.070  22.620
  269BOLB   NC1 6433  23.020  13.360  20.080
  269BOLB   PO1 6434  23.500  13.230  20.010
  269BOLB   GL1 6435  23.350  13.200  20.450
  269BOLB   GL2 6436  22.990  13.340  20.640
  269BOLB   C1A 6437  23.600  13.420  20.770
  269BOLB   C2A 6438  23.410  13.540  21.200
  269BOLB   C3A 6439  23.530  13.510  21.660
  269BOLB   C4A 6440  23.650  13.180  22.020
  269BOLB   C1B 6441  22.930  13.590  21.010
  269BOLB   C2B 6442  22.990  13.590  21.470
  269BOLB   C3B 6443  23.140  13.720  21.870
  269BOLB   C4B 6444  23.540  13.760  22.120
  269BOLB   NC2 6445  24.160  11.720  24.250
  269BOLB   PO2 6446  24.290  12.140  24.270
  269BOLB   GL3 6447  24.300  12.170  23.840
  269BOLB   GL4 6448  24.210  11.990  23.550
  269BOLB   C1C 6449  24.120  12.520  23.540
  269BOLB   C2C 6450  23.900  12.650  23.280
  269BOLB   C3C 6451  23.960  12.880  22.810
  269BOLB   C4C 6452  23.830  13.010  22.470
  269BOLB   C1D 6453  24.510  11.920  23.270
  269BOLB   C2D 6454  24.840  12.180  23.090
  269BOLB   C3D 6455  24.990  12.100  22.710
  269BOLB   C4D 6456  24.830  11.980  22.300
  270BOLB   NC1 6457  27.270  16.150  16.020
  270BOLB   PO1 6458  27.600  16.410  15.820
  270BOLB   GL1 6459  27.950  16.750  15.940
  270BOLB   GL2 6460  27.990  17.050  16.080
  270BOLB   C1A 6461  28.400  16.710  15.950
  270BOLB   C2A 6462  28.800  16.780  15.700
  270BOLB   C3A 6463  29.160  17.030  15.610
  270BOLB   C4A 6464  29.660  17.130  15.400
  270BOLB   C1B 6465  28.400  17.230  16.050
  270BOLB   C2B 6466  28.780  17.540  16.140
  270BOLB   C3B 6467  29.180  17.470  16.150
  270BOLB   C4B 6468  29.410  17.070  16.020
  270BOLB   NC2 6469  30.910  19.320  16.870
  270BOLB   PO2 6470  30.970  19.190  16.460
  270BOLB   GL3 6471  30.710  18.720  16.440
  270BOLB   GL4 6472  30.450  18.780  16.700
  270BOLB   C1C 6473  30.490  18.600  16.180
  270BOLB   C2C 6474  30.460  18.350  15.820
  270BOLB   C3C 6475  30.320  17.930  15.640
  270BOLB   C4C 6476  30.060  17.490  15.580
  270BOLB   C1D 6477  30.340  18.390  16.640
  270BOLB   C2D 6478  30.100  18.230  16.280
  270BOLB   C3D 6479  29.890  18.100  15.820
  270BOLB   C4D 6480  29.880  18.180  15.430
  271BOLB   NC1 6481  17.040  20.480  18.420
  271BOLB   PO1 6482  16.920  20.070  18.530
  271BOLB   GL1 6483  16.670  20.340  18.840
  271BOLB   GL2 6484  16.890  20.520  18.930
  271BOLB   C1A 6485  16.420  20.430  19.210
  271BOLB   C2A 6486  16.290  20.750  19.630
  271BOLB   C3A 6487  16.560  21.020  19.890
  271BOLB   C4A 6488  16.470  21.080  20.290
  271BOLB   C1B 6489  16.950  20.160  19.270
  271BOLB   C2B 6490  16.530  19.930  19.550
  271BOLB   C3B 6491  16.270  20.270  19.850
  271BOLB   C4B 6492  16.370  20.600  20.190
  271BOLB   NC2 6493  15.560  22.030  21.900
  271BOLB   PO2 6494  15.270  21.700  21.900
  271BOLB   GL3 6495  15.160  21.300  21.750
  271BOLB   GL4 6496  14.900  21.040  21.850
  271BOLB   C1C 6497  15.530  21.000  21.710
  271BOLB   C2C 6498  15.750  20.970  21.300
  271BOLB   C3C 6499  15.960  20.970  21.020
  271BOLB   C4C 6500  16.210  20.860  20.630
  271BOLB   C1D 6501  15.020  20.780  21.570
  271BOLB   C2D 6502  15.270  20.610  21.220
  271BOLB   C3D 6503  15.370  20.210  21.190
  271BOLB   C4D 6504  15.230  19.800  21.400
  272BOLB   NC1 6505   9.940  23.530  14.280
  272BOLB   PO1 6506   9.880  23.260  14.510
  272BOLB   GL1 6507  10.160  23.070  14.650
  272BOLB   GL2 6508   9.960  22.810  14.720
  272BOLB   C1A 6509  10.560  22.790  14.780
  272BOLB   C2A 6510  10.990  22.640  14.920
  272BOLB   C3A 6511  11.140  22.250  14.970
  272BOLB   C4A 6512  11.230  21.950  15.240
  272BOLB   C1B 6513  10.190  22.500  15.050
  272BOLB   C2B 6514  10.210  22.160  15.440
  272BOLB   C3B 6515  10.290  21.830  15.460
  272BOLB   C4B 6516  10.470  21.430  15.380
  272BOLB   NC2 6517   9.270  22.600  15.770
  272BOLB   PO2 6518   9.460  22.860  15.950
  272BOLB   GL3 6519   9.790  22.820  15.870
  272BOLB   GL4 6520   9.870  22.910  15.400
  272BOLB   C1C 6521  10.020  22.370  15.920
  272BOLB   C2C 6522  10.150  21.880  15.960
  272BOLB   C3C 6523  10.600  21.570  15.840
  272BOLB   C4C 6524  10.990  21.750  15.650
  272BOLB   C1D 6525  10.240  22.620  15.560
  272BOLB   C2D 6526  10.660  22.470  15.340
  272BOLB   C3D 6527  11.010  22.270  15.560
  272BOLB   C4D 6528  11.390  22.100  15.780
  273BOLB   NC1 6529  26.690  15.760  17.420
  273BOLB   PO1 6530  27.010  15.600  17.450
  273BOLB   GL1 6531  26.920  15.840  17.810
  273BOLB   GL2 6532  27.080  16.080  17.980
  273BOLB   C1A 6533  27.030  15.570  18.070
  273BOLB   C2A 6534  27.270  15.650  18.410
  273BOLB   C3A 6535  27.720  15.600  18.590
  273BOLB   C4A 6536  27.930  15.650  18.960
  273BOLB   C1B 6537  27.270  16.400  18.160
  273BOLB   C2B 6538  27.610  16.570  18.440
  273BOLB   C3B 6539  27.990  16.600  18.630
  273BOLB   C4B 6540  28.380  16.650  18.840
  273BOLB   NC2 6541  29.300  15.090  21.640
  273BOLB   PO2 6542  29.040  15.390  21.340
  273BOLB   GL3 6543  28.880  15.630  20.960
  273BOLB   GL4 6544  28.800  15.390  20.860
  273BOLB   C1C 6545  28.780  15.840  20.600
  273BOLB   C2C 6546  28.440  15.800  20.260
  273BOLB   C3C 6547  28.240  15.820  19.780
  273BOLB   C4C 6548  28.080  15.830  19.370
  273BOLB   C1D 6549  28.630  15.280  20.520
  273BOLB   C2D 6550  28.360  15.340  20.150
  273BOLB   C3D 6551  28.030  15.260  19.890
  273BOLB   C4D 6552  27.580  15.080  19.650
  274BOLB   NC1 6553  12.210  11.970  17.390
  274BOLB   PO1 6554  12.530  12.130  17.690
  274BOLB   GL1 6555  12.110  12.040  17.910
  274BOLB   GL2 6556  12.070  11.720  17.930
  274BOLB   C1A 6557  11.840  12.230  18.140
  274BOLB   C2A 6558  11.410  12.160  18.350
  274BOLB   C3A 6559  11.140  12.040  18.660
  274BOLB   C4A 6560  10.670  11.980  18.750
  274BOLB   C1B 6561  11.650  11.770  18.020
  274BOLB   C2B 6562  11.310  11.690  18.270
  274BOLB   C3B 6563  11.090  11.520  18.550
  274BOLB   C4B 6564  10.660  11.440  18.780
  274BOLB   NC2 6565   9.050  12.270  20.650
  274BOLB   PO2 6566   9.280  12.590  20.530
  274BOLB   GL3 6567   9.530  12.590  20.200
  274BOLB   GL4 6568   9.800  12.450  20.400
  274BOLB   C1C 6569   9.600  12.630  19.760
  274BOLB   C2C 6570   9.990  12.450  19.530
  274BOLB   C3C 6571  10.120  12.210  19.190
  274BOLB   C4C 6572  10.370  12.170  18.820
  274BOLB   C1D 6573   9.920  12.280  20.070
  274BOLB   C2D 6574  10.180  12.100  19.820
  274BOLB   C3D 6575  10.410  12.120  19.580
  274BOLB   C4D 6576  10.600  11.930  19.360
  275BOLB   NC1 6577  21.730  13.580  20.150
  275BOLB   PO1 6578  22.170  13.450  20.020
  275BOLB   GL1 6579  22.120  13.440  20.500
  275BOLB   GL2 6580  21.960  13.700  20.570
  275BOLB   C1A 6581  22.450  13.430  20.870
  275BOLB   C2A 6582  22.580  13.340  21.350
  275BOLB   C3A 6583  22.780  13.320  21.840
  275BOLB   C4A 6584  23.150  13.300  22.120
  275BOLB   C1B 6585  21.920  13.680  21.040
  275BOLB   C2B 6586  21.920  13.780  21.480
  275BOLB   C3B 6587  22.090  13.650  21.960
  275BOLB   C4B 6588  22.410  13.550  22.260
  275BOLB   NC2 6589  23.940  14.000  24.390
  275BOLB   PO2 6590  24.120  13.620  24.340
  275BOLB   GL3 6591  24.070  13.780  23.780
  275BOLB   GL4 6592  23.810  13.510  23.620
  275BOLB   C1C 6593  23.730  13.990  23.550
  275BOLB   C2C 6594  23.500  13.990  23.120
  275BOLB   C3C 6595  23.500  13.680  22.840
  275BOLB   C4C 6596  23.330  13.400  22.540
  275BOLB   C1D 6597  24.020  13.220  23.230
  275BOLB   C2D 6598  23.800  13.300  22.910
  275BOLB   C3D 6599  23.810  13.530  22.490
  275BOLB   C4D 6600  24.040  13.570  22.080
  276BOLB   NC1 6601  20.070  12.510  20.540
  276BOLB   PO1 6602  19.920  12.890  20.760
  276BOLB   GL1 6603  20.020  13.270  20.850
  276BOLB   GL2 6604  20.110  13.170  21.150
  276BOLB   C1A 6605  19.750  13.540  21.140
  276BOLB   C2A 6606  19.700  13.610  21.610
  276BOLB   C3A 6607  19.710  13.610  22.010
  276BOLB   C4A 6608  19.620  13.730  22.420
  276BOLB   C1B 6609  20.040  13.270  21.500
  276BOLB   C2B 6610  19.990  13.160  21.970
  276BOLB   C3B 6611  19.810  13.220  22.430
  276BOLB   C4B 6612  19.690  13.500  22.900
  276BOLB   NC2 6613  20.280  15.230  24.530
  276BOLB   PO2 6614  20.120  14.830  24.380
  276BOLB   GL3 6615  20.100  14.540  24.090
  276BOLB   GL4 6616  20.160  14.240  24.120
  276BOLB   C1C 6617  19.810  14.540  23.800
  276BOLB   C2C 6618  19.840  14.460  23.330
  276BOLB   C3C 6619  19.950  14.230  22.980
  276BOLB   C4C 6620  19.800  14.020  22.670
  276BOLB   C1D 6621  19.940  14.070  23.820
  276BOLB   C2D 6622  19.670  14.030  23.470
  276BOLB   C3D 6623  19.520  13.900  23.130
  276BOLB   C4D 6624  19.240  13.770  22.730
  277BOLB   NC1 6625  19.570   3.780  21.620
  277BOLB   PO1 6626  19.610   3.340  21.470
  277BOLB   GL1 6627  19.520   3.540  21.170
  277BOLB   GL2 6628  19.800   3.610  20.870
  277BOLB   C1A 6629  19.260   3.820  20.970
  277BOLB   C2A 6630  18.970   4.040  20.670
  277BOLB   C3A 6631  18.990   3.960  20.230
  277BOLB   C4A 6632  19.040   4.110  19.870
  277BOLB   C1B 6633  19.740   4.100  20.840
  277BOLB   C2B 6634  19.690   4.400  20.490
  277BOLB   C3B 6635  19.580   4.750  20.400
  277BOLB   C4B 6636  19.460   5.210  20.400
  277BOLB   NC2 6637  18.890   2.260  18.590
  277BOLB   PO2 6638  18.640   2.190  18.910
  277BOLB   GL3 6639  18.500   2.620  18.870
  277BOLB   GL4 6640  18.520   2.610  18.590
  277BOLB   C1C 6641  18.770   3.020  18.760
  277BOLB   C2C 6642  18.670   3.510  19.050
  277BOLB   C3C 6643  18.650   3.850  19.300
  277BOLB   C4C 6644  18.950   4.060  19.450
  277BOLB   C1D 6645  18.840   2.790  18.230
  277BOLB   C2D 6646  18.940   3.060  17.860
  277BOLB   C3D 6647  19.220   3.290  17.420
  277BOLB   C4D 6648  19.350   3.320  16.920
  278BOLB   NC1 6649  24.400  20.630  12.470
  278BOLB   PO1 6650  24.570  20.940  12.260
  278BOLB   GL1 6651  24.810  21.340  12.080
  278BOLB   GL2 6652  25.080  21.270  11.950
  278BOLB   C1A 6653  25.010  21.830  12.020
  278BOLB   C2A 6654  25.040  22.340  12.060
  278BOLB   C3A 6655  25.280  22.690  12.020
  278BOLB   C4A 6656  25.370  23.120  11.930
  278BOLB   C1B 6657  25.240  21.510  11.760
  278BOLB   C2B 6658  25.430  21.620  11.390
  278BOLB   C3B 6659  25.680  22.020  11.320
  278BOLB   C4B 6660  25.930  22.380  11.410
  278BOLB   NC2 6661  26.590  24.980  11.500
  278BOLB   PO2 6662  26.750  24.730  11.240
  278BOLB   GL3 6663  26.440  24.390  11.150
  278BOLB   GL4 6664  26.600  24.120  11.040
  278BOLB   C1C 6665  26.150  24.130  11.130
  278BOLB   C2C 6666  25.880  23.970  11.220
  278BOLB   C3C 6667  25.650  23.660  11.430
  278BOLB   C4C 6668  25.640  23.450  11.770
  278BOLB   C1D 6669  26.720  23.810  11.260
  278BOLB   C2D 6670  26.550  23.440  11.230
  278BOLB   C3D 6671  26.430  23.250  10.870
  278BOLB   C4D 6672  26.550  23.180  10.440
  279BOLB   NC1 6673  25.860  12.570  18.780
  279BOLB   PO1 6674  25.990  13.070  18.920
  279BOLB   GL1 6675  26.260  12.870  19.150
  279BOLB   GL2 6676  26.120  12.590  19.230
  279BOLB   C1A 6677  26.600  12.900  19.410
  279BOLB   C2A 6678  26.800  12.860  19.800
  279BOLB   C3A 6679  27.070  12.810  20.130
  279BOLB   C4A 6680  27.070  12.650  20.510
  279BOLB   C1B 6681  26.440  12.430  19.370
  279BOLB   C2B 6682  26.580  12.370  19.800
  279BOLB   C3B 6683  26.690  12.370  20.200
  279BOLB   C4B 6684  26.770  12.310  20.640
  279BOLB   NC2 6685  28.230  12.220  22.550
  279BOLB   PO2 6686  28.040  11.850  22.490
  279BOLB   GL3 6687  27.720  12.140  22.210
  279BOLB   GL4 6688  27.900  12.530  22.330
  279BOLB   C1C 6689  27.500  12.440  21.930
  279BOLB   C2C 6690  27.460  12.480  21.540
  279BOLB   C3C 6691  27.190  12.680  21.260
  279BOLB   C4C 6692  27.220  12.720  20.880
  279BOLB   C1D 6693  27.960  12.910  22.100
  279BOLB   C2D 6694  28.100  13.050  21.710
  279BOLB   C3D 6695  28.190  13.050  21.310
  279BOLB   C4D 6696  28.320  12.800  21.020
  280BOLB   NC1 6697  24.740  21.310  14.670
  280BOLB   PO1 6698  24.690  21.380  14.170
  280BOLB   GL1 6699  24.820  21.750  14.370
  280BOLB   GL2 6700  24.690  21.950  14.340
  280BOLB   C1A 6701  25.080  22.150  14.540
  280BOLB   C2A 6702  25.140  22.450  14.660
  280BOLB   C3A 6703  25.540  22.580  14.910
  280BOLB   C4A 6704  25.960  22.650  14.850
  280BOLB   C1B 6705  24.610  22.400  14.510
  280BOLB   C2B 6706  24.650  22.690  14.790
  280BOLB   C3B 6707  24.680  22.800  15.140
  280BOLB   C4B 6708  24.890  23.110  15.370
  280BOLB   NC2 6709  27.940  24.000  15.170
  280BOLB   PO2 6710  27.980  23.500  15.270
  280BOLB   GL3 6711  27.710  23.260  15.330
  280BOLB   GL4 6712  27.300  23.340  15.420
  280BOLB   C1C 6713  27.360  23.150  14.950
  280BOLB   C2C 6714  27.030  22.970  14.740
  280BOLB   C3C 6715  26.640  22.810  14.560
  280BOLB   C4C 6716  26.230  22.850  14.690
  280BOLB   C1D 6717  27.000  22.980  15.400
  280BOLB   C2D 6718  26.790  22.680  15.090
  280BOLB   C3D 6719  26.550  22.480  14.900
  280BOLB   C4D 6720  26.280  22.370  14.620
  281BOLB   NC1 6721  11.660  12.910  16.590
  281BOLB   PO1 6722  11.740  13.060  17.050
  281BOLB   GL1 6723  11.570  13.140  17.380
  281BOLB   GL2 6724  11.200  13.070  17.370
  281BOLB   C1A 6725  11.430  13.090  17.790
  281BOLB   C2A 6726  11.200  13.230  18.170
  281BOLB   C3A 6727  11.000  13.200  18.590
  281BOLB   C4A 6728  11.100  13.420  18.920
  281BOLB   C1B 6729  10.800  13.030  17.430
  281BOLB   C2B 6730  10.450  12.860  17.510
  281BOLB   C3B 6731  10.370  12.770  17.900
  281BOLB   C4B 6732  10.250  12.720  18.300
  281BOLB   NC2 6733  10.560  13.720  21.490
  281BOLB   PO2 6734  10.300  13.400  21.270
  281BOLB   GL3 6735  10.520  13.450  20.900
  281BOLB   GL4 6736  10.570  13.220  20.780
  281BOLB   C1C 6737  10.470  13.640  20.500
  281BOLB   C2C 6738  10.440  13.670  19.990
  281BOLB   C3C 6739  10.700  13.880  19.610
  281BOLB   C4C 6740  11.010  13.760  19.270
  281BOLB   C1D 6741  10.870  13.110  20.540
  281BOLB   C2D 6742  11.010  13.270  20.190
  281BOLB   C3D 6743  11.190  13.150  19.740
  281BOLB   C4D 6744  10.930  12.820  19.410
  282BOLB   NC1 6745  21.400  13.140  19.890
  282BOLB   PO1 6746  21.260  13.380  20.260
  282BOLB   GL1 6747  21.500  13.400  20.620
  282BOLB   GL2 6748  21.220  13.710  20.700
  282BOLB   C1A 6749  21.610  13.320  21.020
  282BOLB   C2A 6750  21.740  13.280  21.440
  282BOLB   C3A 6751  22.130  13.280  21.620
  282BOLB   C4A 6752  22.270  13.050  22.060
  282BOLB   C1B 6753  21.390  13.810  21.100
  282BOLB   C2B 6754  21.400  13.900  21.550
  282BOLB   C3B 6755  21.230  13.930  21.840
  282BOLB   C4B 6756  20.990  14.120  22.130
  282BOLB   NC2 6757  23.400  11.930  24.440
  282BOLB   PO2 6758  22.980  11.870  24.210
  282BOLB   GL3 6759  22.810  11.770  23.810
  282BOLB   GL4 6760  23.050  11.960  23.590
  282BOLB   C1C 6761  22.620  11.960  23.370
  282BOLB   C2C 6762  22.660  12.280  23.070
  282BOLB   C3C 6763  22.430  12.630  22.860
  282BOLB   C4C 6764  22.280  12.810  22.540
  282BOLB   C1D 6765  22.820  12.390  23.520
  282BOLB   C2D 6766  22.530  12.740  23.320
  282BOLB   C3D 6767  22.600  13.040  23.000
  282BOLB   C4D 6768  22.340  13.270  22.700
  283BOLB   NC1 6769  25.080  11.060  19.440
  283BOLB   PO1 6770  24.980  10.650  19.410
  283BOLB   GL1 6771  25.290  10.650  19.700
  283BOLB   GL2 6772  25.170  10.880  19.940
  283BOLB   C1A 6773  25.500  10.410  19.970
  283BOLB   C2A 6774  25.450  10.070  20.210
  283BOLB   C3A 6775  25.710   9.940  20.620
  283BOLB   C4A 6776  26.030   9.960  20.910
  283BOLB   C1B 6777  25.710  10.840  19.980
  283BOLB   C2B 6778  25.980  10.760  20.270
  283BOLB   C3B 6779  26.180  10.900  20.520
  283BOLB   C4B 6780  26.120  10.810  20.950
  283BOLB   NC2 6781  26.880   9.720  22.810
  283BOLB   PO2 6782  27.050  10.120  22.990
  283BOLB   GL3 6783  27.060  10.120  22.550
  283BOLB   GL4 6784  27.270  10.080  22.390
  283BOLB   C1C 6785  26.790   9.970  22.180
  283BOLB   C2C 6786  26.520  10.170  21.970
  283BOLB   C3C 6787  26.280  10.250  21.600
  283BOLB   C4C 6788  26.060  10.060  21.250
  283BOLB   C1D 6789  27.160  10.190  21.950
  283BOLB   C2D 6790  26.910  10.220  21.600
  283BOLB   C3D 6791  26.770  10.280  21.100
  283BOLB   C4D 6792  26.400  10.390  21.080
  284BOLB   NC1 6793  19.660   8.090  19.820
  284BOLB   PO1 6794  19.810   7.810  20.030
  284BOLB   GL1 6795  19.870   7.480  20.340
  284BOLB   GL2 6796  19.960   7.800  20.640
  284BOLB   C1A 6797  19.670   7.270  20.640
  284BOLB   C2A 6798  19.730   7.370  21.090
  284BOLB   C3A 6799  19.440   7.470  21.460
  284BOLB   C4A 6800  19.280   7.510  21.840
  284BOLB   C1B 6801  19.790   8.010  20.920
  284BOLB   C2B 6802  19.620   7.960  21.330
  284BOLB   C3B 6803  19.870   7.700  21.670
  284BOLB   C4B 6804  19.790   7.310  21.910
  284BOLB   NC2 6805  19.510   5.860  23.830
  284BOLB   PO2 6806  19.830   6.240  23.710
  284BOLB   GL3 6807  19.530   6.520  23.440
  284BOLB   GL4 6808  19.510   6.860  23.360
  284BOLB   C1C 6809  19.180   6.570  23.140
  284BOLB   C2C 6810  19.020   6.950  22.920
  284BOLB   C3C 6811  19.080   7.180  22.560
  284BOLB   C4C 6812  19.310   7.540  22.300
  284BOLB   C1D 6813  19.520   6.920  22.900
  284BOLB   C2D 6814  19.370   6.840  22.520
  284BOLB   C3D 6815  19.540   6.950  22.150
  284BOLB   C4D 6816  19.400   6.990  21.690
  285BOLB   NC1 6817  28.140  12.250  15.450
  285BOLB   PO1 6818  28.570  12.300  15.400
  285BOLB   GL1 6819  28.910  12.270  15.590
  285BOLB   GL2 6820  29.110  12.250  15.340
  285BOLB   C1A 6821  29.250  12.510  15.810
  285BOLB   C2A 6822  29.500  12.510  16.120
  285BOLB   C3A 6823  29.900  12.620  16.330
  285BOLB   C4A 6824  30.210  12.810  16.310
  285BOLB   C1B 6825  29.500  12.000  15.390
  285BOLB   C2B 6826  29.880  11.860  15.320
  285BOLB   C3B 6827  30.150  11.830  15.660
  285BOLB   C4B 6828  30.610  11.630  15.810
  285BOLB   NC2 6829  32.160  12.070  17.670
  285BOLB   PO2 6830  32.080  12.580  17.860
  285BOLB   GL3 6831  31.860  12.520  17.470
  285BOLB   GL4 6832  31.630  12.380  17.470
  285BOLB   C1C 6833  31.780  12.760  17.090
  285BOLB   C2C 6834  31.420  12.750  16.850
  285BOLB   C3C 6835  31.110  12.800  16.490
  285BOLB   C4C 6836  30.650  12.790  16.440
  285BOLB   C1D 6837  31.170  12.240  17.570
  285BOLB   C2D 6838  30.750  12.060  17.770
  285BOLB   C3D 6839  30.460  12.100  17.990
  285BOLB   C4D 6840  30.180  12.190  18.140
  286BOLB   NC1 6841  20.120  21.210  18.030
  286BOLB   PO1 6842  20.500  21.060  18.010
  286BOLB   GL1 6843  20.570  21.290  18.450
  286BOLB   GL2 6844  20.360  21.170  18.520
  286BOLB   C1A 6845  20.720  21.610  18.750
  286BOLB   C2A 6846  20.900  21.880  19.100
  286BOLB   C3A 6847  21.190  21.720  19.470
  286BOLB   C4A 6848  21.400  21.820  19.860
  286BOLB   C1B 6849  20.340  21.380  18.930
  286BOLB   C2B 6850  20.110  21.550  19.250
  286BOLB   C3B 6851  20.220  21.770  19.810
  286BOLB   C4B 6852  20.050  22.040  19.990
  286BOLB   NC2 6853  22.280  23.200  21.820
  286BOLB   PO2 6854  22.600  23.350  21.500
  286BOLB   GL3 6855  22.630  22.980  21.230
  286BOLB   GL4 6856  22.520  23.010  20.870
  286BOLB   C1C 6857  22.350  22.580  21.220
  286BOLB   C2C 6858  22.080  22.440  20.920
  286BOLB   C3C 6859  21.950  22.380  20.520
  286BOLB   C4C 6860  21.600  22.120  20.200
  286BOLB   C1D 6861  22.430  22.700  20.650
  286BOLB   C2D 6862  22.230  22.480  20.150
  286BOLB   C3D 6863  22.050  22.060  20.040
  286BOLB   C4D 6864  21.840  21.650  19.890
  287BOLB   NC1 6865  26.030   9.430  18.690
  287BOLB   PO1 6866  25.950   9.000  18.480
  287BOLB   GL1 6867  26.200   8.760  18.680
  287BOLB   GL2 6868  26.410   8.920  18.880
  287BOLB   C1A 6869  26.360   8.400  18.940
  287BOLB   C2A 6870  26.610   8.020  19.030
  287BOLB   C3A 6871  26.700   7.630  19.140
  287BOLB   C4A 6872  26.700   7.310  19.000
  287BOLB   C1B 6873  26.760   8.840  19.130
  287BOLB   C2B 6874  26.910   8.440  19.300
  287BOLB   C3B 6875  27.120   8.020  19.270
  287BOLB   C4B 6876  27.610   8.030  19.210
  287BOLB   NC2 6877  28.070   5.690  20.330
  287BOLB   PO2 6878  28.280   6.090  20.390
  287BOLB   GL3 6879  28.220   6.480  20.170
  287BOLB   GL4 6880  28.110   6.720  20.120
  287BOLB   C1C 6881  27.830   6.390  19.970
  287BOLB   C2C 6882  27.420   6.510  19.830
  287BOLB   C3C 6883  27.210   6.840  19.560
  287BOLB   C4C 6884  27.050   6.980  19.230
  287BOLB   C1D 6885  28.120   6.670  19.660
  287BOLB   C2D 6886  28.180   6.570  19.200
  287BOLB   C3D 6887  27.960   6.460  18.900
  287BOLB   C4D 6888  27.600   6.300  18.940
  288BOLB   NC1 6889  22.880  14.390  20.130
  288BOLB   PO1 6890  22.700  14.330  20.490
  288BOLB   GL1 6891  22.610  14.340  20.910
  288BOLB   GL2 6892  22.400  14.570  20.940
  288BOLB   C1A 6893  22.510  14.270  21.410
  288BOLB   C2A 6894  22.220  14.170  21.630
  288BOLB   C3A 6895  22.010  14.160  21.990
  288BOLB   C4A 6896  22.150  14.070  22.380
  288BOLB   C1B 6897  22.660  14.750  21.240
  288BOLB   C2B 6898  22.640  14.870  21.690
  288BOLB   C3B 6899  22.560  15.050  22.100
  288BOLB   C4B 6900  22.520  15.120  22.490
  288BOLB   NC2 6901  20.950  14.610  24.440
  288BOLB   PO2 6902  20.940  14.180  24.540
  288BOLB   GL3 6903  21.140  14.160  24.140
  288BOLB   GL4 6904  21.260  14.500  24.020
  288BOLB   C1C 6905  21.150  13.890  23.840
  288BOLB   C2C 6906  21.350  13.800  23.470
  288BOLB   C3C 6907  21.700  13.860  23.100
  288BOLB   C4C 6908  21.980  13.830  22.780
  288BOLB   C1D 6909  21.160  14.410  23.530
  288BOLB   C2D 6910  21.050  14.590  23.130
  288BOLB   C3D 6911  21.270  14.670  22.740
  288BOLB   C4D 6912  21.120  14.640  22.290
  289BOLB   NC1 6913  27.270  16.850  16.790
  289BOLB   PO1 6914  27.370  16.370  16.840
  289BOLB   GL1 6915  27.760  16.600  16.790
  289BOLB   GL2 6916  27.680  16.800  17.050
  289BOLB   C1A 6917  28.150  16.670  17.000
  289BOLB   C2A 6918  28.620  16.790  17.140
  289BOLB   C3A 6919  28.940  17.010  16.950
  289BOLB   C4A 6920  29.300  16.910  17.070
  289BOLB   C1B 6921  27.780  16.780  17.460
  289BOLB   C2B 6922  28.170  16.790  17.650
  289BOLB   C3B 6923  28.550  16.950  17.640
  289BOLB   C4B 6924  28.960  17.040  17.460
  289BOLB   NC2 6925  30.080  18.340  19.270
  289BOLB   PO2 6926  30.110  17.860  19.350
  289BOLB   GL3 6927  29.980  17.690  18.960
  289BOLB   GL4 6928  29.840  17.370  19.000
  289BOLB   C1C 6929  29.810  17.650  18.570
  289BOLB   C2C 6930  29.610  17.350  18.240
  289BOLB   C3C 6931  29.650  17.060  17.910
  289BOLB   C4C 6932  29.500  16.990  17.550
  289BOLB   C1D 6933  29.660  17.150  18.690
  289BOLB   C2D 6934  29.250  16.930  18.610
  289BOLB   C3D 6935  29.090  16.710  18.260
  289BOLB   C4D 6936  28.820  16.580  17.920
  290BOLB   NC1 6937  18.120  18.010  19.610
  290BOLB   PO1 6938  18.240  17.620  19.840
  290BOLB   GL1 6939  18.420  17.610  20.240
  290BOLB   GL2 6940  18.160  17.500  20.390
  290BOLB   C1A 6941  18.450  18.050  20.430
  290BOLB   C2A 6942  18.310  18.250  20.780
  290BOLB   C3A 6943  18.260  18.470  21.190
  290BOLB   C4A 6944  18.020  18.310  21.420
  290BOLB   C1B 6945  18.000  17.820  20.760
  290BOLB   C2B 6946  17.860  17.990  21.100
  290BOLB   C3B 6947  17.690  17.990  21.570
  290BOLB   C4B 6948  17.630  18.250  21.960
  290BOLB   NC2 6949  18.220  19.400  23.350
  290BOLB   PO2 6950  17.900  19.400  23.590
  290BOLB   GL3 6951  17.700  19.280  23.200
  290BOLB   GL4 6952  17.830  19.370  23.010
  290BOLB   C1C 6953  17.710  18.960  22.870
  290BOLB   C2C 6954  17.800  18.740  22.460
  290BOLB   C3C 6955  17.490  18.740  22.070
  290BOLB   C4C 6956  17.650  18.610  21.610
  290BOLB   C1D 6957  17.560  19.500  22.690
  290BOLB   C2D 6958  17.430  19.800  22.360
  290BOLB   C3D 6959  17.420  20.080  22.030
  290BOLB   C4D 6960  17.040  20.340  21.810
  291BOLB   NC1 6961  17.340  19.900  18.340
  291BOLB   PO1 6962  17.700  19.900  18.770
  291BOLB   GL1 6963  17.830  20.180  19.090
  291BOLB   GL2 6964  18.150  20.030  19.120
  291BOLB   C1A 6965  17.860  20.350  19.480
  291BOLB   C2A 6966  18.010  20.500  19.830
  291BOLB   C3A 6967  18.450  20.550  20.100
  291BOLB   C4A 6968  18.730  20.890  20.250
  291BOLB   C1B 6969  18.400  20.150  19.510
  291BOLB   C2B 6970  18.590  20.170  19.880
  291BOLB   C3B 6971  18.320  20.080  20.230
  291BOLB   C4B 6972  18.160  19.690  20.420
  291BOLB   NC2 6973  19.710  22.540  22.030
  291BOLB   PO2 6974  19.230  22.510  21.990
  291BOLB   GL3 6975  19.300  22.140  21.810
  291BOLB   GL4 6976  19.110  21.910  21.750
  291BOLB   C1C 6977  19.500  21.930  21.400
  291BOLB   C2C 6978  19.490  21.750  21.010
  291BOLB   C3C 6979  19.420  21.340  20.800
  291BOLB   C4C 6980  19.130  21.050  20.570
  291BOLB   C1D 6981  19.000  21.930  21.260
  291BOLB   C2D 6982  18.930  21.790  20.900
  291BOLB   C3D 6983  18.950  21.510  20.650
  291BOLB   C4D 6984  18.930  21.360  20.200
  292BOLB   NC1 6985  23.410  11.940  19.860
  292BOLB   PO1 6986  23.480  12.300  20.010
  292BOLB   GL1 6987  23.300  12.170  20.310
  292BOLB   GL2 6988  23.090  12.450  20.320
  292BOLB   C1A 6989  23.310  12.300  20.730
  292BOLB   C2A 6990  23.180  12.490  21.120
  292BOLB   C3A 6991  23.090  12.520  21.550
  292BOLB   C4A 6992  22.980  12.360  21.960
  292BOLB   C1B 6993  23.110  12.820  20.610
  292BOLB   C2B 6994  23.380  13.040  20.970
  292BOLB   C3B 6995  23.610  13.040  21.320
  292BOLB   C4B 6996  24.060  13.200  21.520
  292BOLB   NC2 6997  24.290  11.290  23.870
  292BOLB   PO2 6998  23.890  11.340  24.040
  292BOLB   GL3 6999  23.910  11.500  23.650
  292BOLB   GL4 7000  23.880  11.120  23.530
  292BOLB   C1C 7001  23.990  11.690  23.180
  292BOLB   C2C 7002  23.820  11.900  22.800
  292BOLB   C3C 7003  23.580  12.040  22.460
  292BOLB   C4C 7004  23.270  12.260  22.190
  292BOLB   C1D 7005  23.710  11.230  23.180
  292BOLB   C2D 7006  23.700  11.330  22.770
  292BOLB   C3D 7007  23.810  11.520  22.510
  292BOLB   C4D 7008  24.080  11.780  22.320
  293BOLB   NC1 7009  23.810  10.780  19.800
  293BOLB   PO1 7010  23.490  10.570  19.970
  293BOLB   GL1 7011  23.650  10.390  20.400
  293BOLB   GL2 7012  23.930  10.220  20.480
  293BOLB   C1A 7013  23.690  10.450  20.850
  293BOLB   C2A 7014  23.750  10.290  21.170
  293BOLB   C3A 7015  23.670  10.110  21.530
  293BOLB   C4A 7016  23.770  10.320  21.900
  293BOLB   C1B 7017  24.230  10.450  20.760
  293BOLB   C2B 7018  24.100  10.640  21.100
  293BOLB   C3B 7019  24.270  10.930  21.310
  293BOLB   C4B 7020  24.070  11.160  21.650
  293BOLB   NC2 7021  23.600   8.900  24.480
  293BOLB   PO2 7022  23.720   9.170  24.090
  293BOLB   GL3 7023  23.730   9.300  23.690
  293BOLB   GL4 7024  23.510   9.020  23.540
  293BOLB   C1C 7025  23.690   9.440  23.320
  293BOLB   C2C 7026  23.890   9.670  23.140
  293BOLB   C3C 7027  23.930   9.950  22.700
  293BOLB   C4C 7028  23.830  10.130  22.360
  293BOLB   C1D 7029  23.500   8.800  23.030
  293BOLB   C2D 7030  23.280   8.720  22.690
  293BOLB   C3D 7031  23.180   8.540  22.410
  293BOLB   C4D 7032  23.080   8.390  22.090
  294BOLB   NC1 7033  27.100  17.890  14.780
  294BOLB   PO1 7034  27.370  17.520  14.930
  294BOLB   GL1 7035  27.750  17.830  15.010
  294BOLB   GL2 7036  27.920  17.710  14.780
  294BOLB   C1A 7037  28.180  17.980  15.150
  294BOLB   C2A 7038  28.540  17.920  15.440
  294BOLB   C3A 7039  28.810  17.970  15.790
  294BOLB   C4A 7040  28.930  18.440  16.020
  294BOLB   C1B 7041  28.280  17.970  14.610
  294BOLB   C2B 7042  28.710  18.090  14.780
  294BOLB   C3B 7043  29.120  18.160  14.640
  294BOLB   C4B 7044  29.330  18.370  14.860
  294BOLB   NC2 7045  30.930  20.110  16.620
  294BOLB   PO2 7046  30.830  19.690  16.500
  294BOLB   GL3 7047  30.490  19.390  16.460
  294BOLB   GL4 7048  30.180  19.480  16.540
  294BOLB   C1C 7049  30.270  19.020  16.290
  294BOLB   C2C 7050  29.850  18.870  16.490
  294BOLB   C3C 7051  29.520  18.870  16.410
  294BOLB   C4C 7052  29.130  18.600  16.340
  294BOLB   C1D 7053  29.830  19.230  16.160
  294BOLB   C2D 7054  29.700  19.050  15.870
  294BOLB   C3D 7055  29.730  18.670  15.590
  294BOLB   C4D 7056  29.490  18.520  15.330
  295BOLB   NC1 7057  12.670  13.300  17.960
  295BOLB   PO1 7058  12.380  13.300  17.650
  295BOLB   GL1 7059  12.210  12.960  18.000
  295BOLB   GL2 7060  12.030  13.150  18.110
  295BOLB   C1A 7061  12.040  12.680  18.400
  295BOLB   C2A 7062  11.580  12.650  18.560
  295BOLB   C3A 7063  11.430  12.450  18.780
  295BOLB   C4A 7064  11.030  12.380  19.010
  295BOLB   C1B 7065  11.650  13.060  18.260
  295BOLB   C2B 7066  11.460  13.090  18.640
  295BOLB   C3B 7067  11.180  12.870  18.980
  295BOLB   C4B 7068  11.390  12.690  19.330
  295BOLB   NC2 7069   9.690  13.310  21.590
  295BOLB   PO2 7070   9.880  12.960  21.240
  295BOLB   GL3 7071  10.210  12.890  20.840
  295BOLB   GL4 7072  10.560  12.720  20.810
  295BOLB   C1C 7073  10.130  12.830  20.320
  295BOLB   C2C 7074  10.290  12.660  20.010
  295BOLB   C3C 7075  10.510  12.590  19.660
  295BOLB   C4C 7076  10.580  12.530  19.240
  295BOLB   C1D 7077  11.020  12.620  20.630
  295BOLB   C2D 7078  11.320  12.840  20.400
  295BOLB   C3D 7079  11.540  13.000  20.130
  295BOLB   C4D 7080  12.020  12.940  20.010
  296BOLB   NC1 7081  28.660   4.520  14.000
  296BOLB   PO1 7082  28.900   4.750  14.310
  296BOLB   GL1 7083  28.630   5.040  14.060
  296BOLB   GL2 7084  28.640   5.210  14.330
  296BOLB   C1A 7085  28.330   5.150  13.860
  296BOLB   C2A 7086  27.990   5.450  13.860
  296BOLB   C3A 7087  27.830   5.800  13.640
  296BOLB   C4A 7088  28.080   6.170  13.830
  296BOLB   C1B 7089  28.440   5.550  14.140
  296BOLB   C2B 7090  28.140   5.880  14.180
  296BOLB   C3B 7091  28.070   6.260  14.430
  296BOLB   C4B 7092  28.230   6.520  14.730
  296BOLB   NC2 7093  30.040   5.810  14.340
  296BOLB   PO2 7094  29.690   5.510  14.420
  296BOLB   GL3 7095  29.560   5.890  14.170
  296BOLB   GL4 7096  29.700   6.160  14.230
  296BOLB   C1C 7097  29.200   6.110  14.040
  296BOLB   C2C 7098  28.840   6.430  13.950
  296BOLB   C3C 7099  28.560   6.590  13.980
  296BOLB   C4C 7100  28.300   6.390  14.060
  296BOLB   C1D 7101  29.460   6.360  14.600
  296BOLB   C2D 7102  29.350   6.200  15.050
  296BOLB   C3D 7103  29.400   6.410  15.450
  296BOLB   C4D 7104  29.180   6.500  15.820
  297BOLB   NC1 7105  10.430  16.890  14.550
  297BOLB   PO1 7106  10.180  16.550  14.290
  297BOLB   GL1 7107   9.660  16.420  14.390
  297BOLB   GL2 7108   9.520  16.550  14.690
  297BOLB   C1A 7109   9.130  16.550  14.390
  297BOLB   C2A 7110   8.740  16.680  14.170
  297BOLB   C3A 7111   8.710  17.070  13.830
  297BOLB   C4A 7112   8.640  17.340  13.430
  297BOLB   C1B 7113   9.030  16.700  14.960
  297BOLB   C2B 7114   8.930  17.180  15.120
  297BOLB   C3B 7115   8.570  17.260  15.340
  297BOLB   C4B 7116   8.500  17.630  15.330
  297BOLB   NC2 7117   7.260  19.410  12.440
  297BOLB   PO2 7118   7.020  19.100  12.400
  297BOLB   GL3 7119   7.260  18.730  12.550
  297BOLB   GL4 7120   7.380  18.370  12.390
  297BOLB   C1C 7121   7.670  18.490  12.740
  297BOLB   C2C 7122   7.840  18.110  13.020
  297BOLB   C3C 7123   8.220  17.880  12.840
  297BOLB   C4C 7124   8.550  17.720  13.180
  297BOLB   C1D 7125   7.870  18.180  12.430
  297BOLB   C2D 7126   8.310  18.220  12.560
  297BOLB   C3D 7127   8.690  18.040  12.840
  297BOLB   C4D 7128   9.130  18.150  13.000
  298BOLB   NC1 7129  17.030  12.320  20.030
  298BOLB   PO1 7130  16.650  12.520  20.170
  298BOLB   GL1 7131  16.530  12.630  20.580
  298BOLB   GL2 7132  16.230  12.630  20.380
  298BOLB   C1A 7133  16.460  12.730  21.040
  298BOLB   C2A 7134  16.380  12.760  21.390
  298BOLB   C3A 7135  16.340  12.540  21.720
  298BOLB   C4A 7136  16.240  12.710  22.140
  298BOLB   C1B 7137  16.090  12.420  20.660
  298BOLB   C2B 7138  15.810  12.250  21.070
  298BOLB   C3B 7139  15.540  11.910  21.110
  298BOLB   C4B 7140  15.360  11.640  21.530
  298BOLB   NC2 7141  16.260  13.510  24.610
  298BOLB   PO2 7142  16.340  13.850  24.370
  298BOLB   GL3 7143  16.350  13.820  23.900
  298BOLB   GL4 7144  16.200  14.250  23.860
  298BOLB   C1C 7145  16.460  13.640  23.560
  298BOLB   C2C 7146  16.330  13.550  23.110
  298BOLB   C3C 7147  16.180  13.430  22.580
  298BOLB   C4C 7148  16.090  13.200  22.220
  298BOLB   C1D 7149  16.220  14.090  23.380
  298BOLB   C2D 7150  16.160  13.950  22.910
  298BOLB   C3D 7151  16.410  13.920  22.660
  298BOLB   C4D 7152  16.610  14.060  22.380
  299BOLB   NC1 7153  14.390  10.440  19.100
  299BOLB   PO1 7154  14.370  10.850  19.310
  299BOLB   GL1 7155  14.190  10.640  19.630
  299BOLB   GL2 7156  14.370  10.400  19.660
  299BOLB   C1A 7157  13.910  10.400  19.930
  299BOLB   C2A 7158  13.520  10.130  20.210
  299BOLB   C3A 7159  13.190   9.990  20.560
  299BOLB   C4A 7160  12.760  10.160  20.490
  299BOLB   C1B 7161  14.320  10.490  20.180
  299BOLB   C2B 7162  14.180  10.430  20.550
  299BOLB   C3B 7163  13.920  10.240  20.980
  299BOLB   C4B 7164  13.540  10.530  21.100
  299BOLB   NC2 7165  12.140   9.690  22.260
  299BOLB   PO2 7166  11.830   9.330  22.260
  299BOLB   GL3 7167  12.140   9.320  21.920
  299BOLB   GL4 7168  11.910   9.580  21.810
  299BOLB   C1C 7169  12.380   9.020  21.630
  299BOLB   C2C 7170  12.420   9.210  21.130
  299BOLB   C3C 7171  12.310   9.570  20.870
  299BOLB   C4C 7172  12.340   9.960  20.580
  299BOLB   C1D 7173  11.840   9.820  21.560
  299BOLB   C2D 7174  12.080   9.980  21.060
  299BOLB   C3D 7175  11.950  10.280  20.700
  299BOLB   C4D 7176  11.610  10.420  20.350
  300BOLB   NC1 7177  19.840  11.620  20.780
  300BOLB   PO1 7178  19.870  12.060  20.500
  300BOLB   GL1 7179  20.010  12.080  20.880
  300BOLB   GL2 7180  20.220  11.930  21.010
  300BOLB   C1A 7181  19.840  12.170  21.360
  300BOLB   C2A 7182  19.780  12.190  21.850
  300BOLB   C3A 7183  19.560  12.220  22.280
  300BOLB   C4A 7184  19.290  12.260  22.630
  300BOLB   C1B 7185  20.310  11.910  21.460
  300BOLB   C2B 7186  20.260  11.920  21.840
  300BOLB   C3B 7187  20.110  12.140  22.220
  300BOLB   C4B 7188  19.940  12.260  22.600
  300BOLB   NC2 7189  18.600  11.040  24.880
  300BOLB   PO2 7190  18.380  11.000  24.480
  300BOLB   GL3 7191  18.550  11.110  24.200
  300BOLB   GL4 7192  18.490  10.890  23.970
  300BOLB   C1C 7193  18.730  11.370  23.950
  300BOLB   C2C 7194  18.790  11.530  23.550
  300BOLB   C3C 7195  18.770  11.730  23.150
  300BOLB   C4C 7196  18.910  12.140  22.950
  300BOLB   C1D 7197  18.660  10.960  23.590
  300BOLB   C2D 7198  18.930  10.970  23.250
  300BOLB   C3D 7199  19.240  11.300  23.210
  300BOLB   C4D 7200  19.240  11.830  23.170
  301BOLB   NC1 7201  19.300  23.200  11.260
  301BOLB   PO1 7202  19.560  23.460  11.190
  301BOLB   GL1 7203  19.750  23.840  11.010
  301BOLB   GL2 7204  19.970  24.120  11.130
  301BOLB   C1A 7205  19.860  24.090  10.630
  301BOLB   C2A 7206  20.060  24.300  10.410
  301BOLB   C3A 7207  20.490  24.480  10.370
  301BOLB   C4A 7208  20.810  24.660  10.250
  301BOLB   C1B 7209  20.080  24.460  10.920
  301BOLB   C2B 7210  20.120  24.880  10.900
  301BOLB   C3B 7211  20.190  25.470  10.860
  301BOLB   C4B 7212  19.840  25.840  11.020
  301BOLB   NC2 7213  21.480  26.800   9.810
  301BOLB   PO2 7214  21.780  26.920   9.930
  301BOLB   GL3 7215  21.750  26.580  10.160
  301BOLB   GL4 7216  22.090  26.360  10.160
  301BOLB   C1C 7217  21.480  26.160  10.160
  301BOLB   C2C 7218  21.240  25.810  10.220
  301BOLB   C3C 7219  21.210  25.370  10.060
  301BOLB   C4C 7220  21.000  24.960  10.040
  301BOLB   C1D 7221  21.980  26.080  10.290
  301BOLB   C2D 7222  22.120  25.680  10.390
  301BOLB   C3D 7223  22.100  25.220  10.350
  301BOLB   C4D 7224  22.280  24.790  10.400
  302BOLB   NC1 7225  18.200  18.760  19.140
  302BOLB   PO1 7226  18.190  18.390  19.280
  302BOLB   GL1 7227  18.430  18.550  19.590
  302BOLB   GL2 7228  18.670  18.330  19.670
  302BOLB   C1A 7229  18.330  18.720  20.030
  302BOLB   C2A 7230  18.300  18.700  20.450
  302BOLB   C3A 7231  18.220  18.860  20.900
  302BOLB   C4A 7232  17.900  18.820  21.140
  302BOLB   C1B 7233  18.950  18.550  19.770
  302BOLB   C2B 7234  19.200  18.620  20.110
  302BOLB   C3B 7235  19.400  18.770  20.470
  302BOLB   C4B 7236  19.440  18.970  20.860
  302BOLB   NC2 7237  18.220  20.300  23.280
  302BOLB   PO2 7238  18.530  20.300  23.030
  302BOLB   GL3 7239  18.520  19.940  22.860
  302BOLB   GL4 7240  18.330  19.770  22.990
  302BOLB   C1C 7241  18.650  19.690  22.470
  302BOLB   C2C 7242  18.380  19.420  22.200
  302BOLB   C3C 7243  18.300  19.170  21.730
  302BOLB   C4C 7244  18.070  18.980  21.400
  302BOLB   C1D 7245  18.080  19.760  22.640
  302BOLB   C2D 7246  17.900  19.740  22.190
  302BOLB   C3D 7247  18.000  19.590  21.800
  302BOLB   C4D 7248  18.150  19.590  21.460
  303BOLB   NC1 7249  20.500  22.630  15.810
  303BOLB   PO1 7250  20.200  22.960  15.890
  303BOLB   GL1 7251  20.530  23.170  15.930
  303BOLB   GL2 7252  20.730  22.960  16.140
  303BOLB   C1A 7253  20.670  23.560  15.920
  303BOLB   C2A 7254  20.830  23.890  16.200
  303BOLB   C3A 7255  20.830  24.350  16.310
  303BOLB   C4A 7256  20.550  24.700  16.350
  303BOLB   C1B 7257  20.950  23.290  16.320
  303BOLB   C2B 7258  21.180  23.580  16.510
  303BOLB   C3B 7259  21.590  23.550  16.730
  303BOLB   C4B 7260  22.010  23.390  16.550
  303BOLB   NC2 7261  20.930  26.750  17.300
  303BOLB   PO2 7262  21.100  26.470  17.640
  303BOLB   GL3 7263  21.330  26.230  17.720
  303BOLB   GL4 7264  21.540  26.120  18.030
  303BOLB   C1C 7265  21.190  25.840  17.470
  303BOLB   C2C 7266  21.080  25.480  17.190
  303BOLB   C3C 7267  20.880  25.390  16.800
  303BOLB   C4C 7268  20.670  25.110  16.600
  303BOLB   C1D 7269  21.200  25.800  18.060
  303BOLB   C2D 7270  21.130  25.490  17.760
  303BOLB   C3D 7271  21.100  25.110  17.540
  303BOLB   C4D 7272  21.030  24.650  17.510
  304BOLB   NC1 7273  15.830  16.960  19.280
  304BOLB   PO1 7274  16.040  17.230  19.420
  304BOLB   GL1 7275  15.890  17.440  19.750
  304BOLB   GL2 7276  15.610  17.470  19.490
  304BOLB   C1A 7277  15.630  17.720  20.020
  304BOLB   C2A 7278  15.420  17.910  20.270
  304BOLB   C3A 7279  15.600  18.260  20.560
  304BOLB   C4A 7280  15.730  18.300  20.980
  304BOLB   C1B 7281  15.510  17.850  19.500
  304BOLB   C2B 7282  15.730  18.270  19.560
  304BOLB   C3B 7283  16.050  18.480  19.640
  304BOLB   C4B 7284  16.160  18.930  19.760
  304BOLB   NC2 7285  14.660  17.860  23.360
  304BOLB   PO2 7286  14.980  18.120  23.320
  304BOLB   GL3 7287  15.180  18.150  22.980
  304BOLB   GL4 7288  15.520  18.040  22.890
  304BOLB   C1C 7289  15.280  18.410  22.520
  304BOLB   C2C 7290  15.540  18.520  22.190
  304BOLB   C3C 7291  15.660  18.530  21.720
  304BOLB   C4C 7292  15.670  18.500  21.300
  304BOLB   C1D 7293  15.470  18.010  22.420
  304BOLB   C2D 7294  15.400  17.620  22.050
  304BOLB   C3D 7295  15.440  17.460  21.700
  304BOLB   C4D 7296  15.530  17.350  21.230
  305BOLB   NC1 7297  25.220  14.940  18.370
  305BOLB   PO1 7298  25.600  15.110  18.710
  305BOLB   GL1 7299  25.880  15.120  19.140
  305BOLB   GL2 7300  25.780  14.930  19.390
  305BOLB   C1A 7301  26.080  15.260  19.570
  305BOLB   C2A 7302  26.480  15.270  19.880
  305BOLB   C3A 7303  26.920  15.340  19.790
  305BOLB   C4A 7304  27.220  15.530  19.910
  305BOLB   C1B 7305  26.040  14.630  19.690
  305BOLB   C2B 7306  26.390  14.590  19.990
  305BOLB   C3B 7307  26.490  14.510  20.360
  305BOLB   C4B 7308  26.480  14.140  20.380
  305BOLB   NC2 7309  28.720  17.160  21.570
  305BOLB   PO2 7310  28.890  16.780  21.380
  305BOLB   GL3 7311  28.590  16.510  21.170
  305BOLB   GL4 7312  28.660  16.260  21.240
  305BOLB   C1C 7313  28.240  16.390  20.840
  305BOLB   C2C 7314  27.980  16.060  20.500
  305BOLB   C3C 7315  27.740  16.030  20.150
  305BOLB   C4C 7316  27.550  15.740  19.980
  305BOLB   C1D 7317  28.500  15.950  21.040
  305BOLB   C2D 7318  28.370  15.680  20.850
  305BOLB   C3D 7319  28.170  15.500  20.620
  305BOLB   C4D 7320  27.850  15.560  20.320
  306BOLB   NC1 7321  27.870  16.630  15.420
  306BOLB   PO1 7322  27.880  17.110  15.580
  306BOLB   GL1 7323  28.140  17.020  15.330
  306BOLB   GL2 7324  28.350  16.740  15.320
  306BOLB   C1A 7325  28.600  17.160  15.240
  306BOLB   C2A 7326  28.930  17.230  15.190
  306BOLB   C3A 7327  29.300  17.480  15.260
  306BOLB   C4A 7328  29.780  17.700  15.200
  306BOLB   C1B 7329  28.740  16.720  15.110
  306BOLB   C2B 7330  29.120  16.590  15.310
  306BOLB   C3B 7331  29.500  16.660  15.480
  306BOLB   C4B 7332  29.750  16.730  15.780
  306BOLB   NC2 7333  32.130  16.990  14.550
  306BOLB   PO2 7334  32.070  17.380  14.730
  306BOLB   GL3 7335  31.730  17.490  14.860
  306BOLB   GL4 7336  31.540  17.170  15.110
  306BOLB   C1C 7337  31.320  17.580  14.760
  306BOLB   C2C 7338  30.940  17.650  15.000
  306BOLB   C3C 7339  30.580  17.760  15.200
  306BOLB   C4C 7340  30.160  17.650  15.080
  306BOLB   C1D 7341  31.220  16.890  15.170
  306BOLB   C2D 7342  30.830  17.140  15.080
  306BOLB   C3D 7343  30.530  17.310  14.920
  306BOLB   C4D 7344  30.100  17.290  14.610
  307BOLB   NC1 7345  15.590  19.000  17.970
  307BOLB   PO1 7346  15.110  18.900  18.150
  307BOLB   GL1 7347  14.940  19.060  18.490
  307BOLB   GL2 7348  14.640  18.840  18.590
  307BOLB   C1A 7349  14.700  19.330  18.740
  307BOLB   C2A 7350  14.500  19.620  19.120
  307BOLB   C3A 7351  14.300  19.810  19.450
  307BOLB   C4A 7352  14.130  19.990  19.800
  307BOLB   C1B 7353  14.490  18.790  19.030
  307BOLB   C2B 7354  14.010  18.690  19.200
  307BOLB   C3B 7355  13.880  18.510  19.560
  307BOLB   C4B 7356  13.670  18.670  19.970
  307BOLB   NC2 7357  13.420  22.230  20.640
  307BOLB   PO2 7358  13.210  21.950  20.820
  307BOLB   GL3 7359  13.390  21.500  20.790
  307BOLB   GL4 7360  13.860  21.330  20.850
  307BOLB   C1C 7361  13.400  21.160  20.450
  307BOLB   C2C 7362  13.550  20.950  20.100
  307BOLB   C3C 7363  13.680  20.690  19.720
  307BOLB   C4C 7364  14.110  20.410  19.670
  307BOLB   C1D 7365  14.180  21.200  20.840
  307BOLB   C2D 7366  14.410  20.930  20.660
  307BOLB   C3D 7367  14.510  20.870  20.130
  307BOLB   C4D 7368  14.600  20.750  19.820
  308BOLB   NC1 7369  22.630   5.890  17.320
  308BOLB   PO1 7370  22.690   6.290  17.530
  308BOLB   GL1 7371  22.780   6.080  17.890
  308BOLB   GL2 7372  22.870   5.700  17.710
  308BOLB   C1A 7373  23.050   5.920  18.180
  308BOLB   C2A 7374  23.240   5.640  18.340
  308BOLB   C3A 7375  23.120   5.390  18.680
  308BOLB   C4A 7376  22.800   5.230  19.010
  308BOLB   C1B 7377  22.700   5.610  18.020
  308BOLB   C2B 7378  22.710   5.460  18.390
  308BOLB   C3B 7379  22.630   5.070  18.570
  308BOLB   C4B 7380  22.680   4.670  18.410
  308BOLB   NC2 7381  22.950   3.730  20.710
  308BOLB   PO2 7382  23.420   3.650  20.790
  308BOLB   GL3 7383  23.350   3.930  20.520
  308BOLB   GL4 7384  23.510   4.120  20.300
  308BOLB   C1C 7385  23.060   4.110  20.080
  308BOLB   C2C 7386  22.960   4.300  19.730
  308BOLB   C3C 7387  22.770   4.620  19.460
  308BOLB   C4C 7388  22.710   4.800  19.050
  308BOLB   C1D 7389  23.310   4.500  20.320
  308BOLB   C2D 7390  23.430   4.970  20.280
  308BOLB   C3D 7391  23.130   5.150  20.580
  308BOLB   C4D 7392  22.900   5.300  20.880
  309BOLB   NC1 7393  25.430  19.210  14.930
  309BOLB   PO1 7394  25.740  19.410  15.120
  309BOLB   GL1 7395  25.950  19.690  15.380
  309BOLB   GL2 7396  26.070  19.640  15.720
  309BOLB   C1A 7397  26.330  19.900  15.420
  309BOLB   C2A 7398  26.720  19.990  15.660
  309BOLB   C3A 7399  27.030  20.310  15.760
  309BOLB   C4A 7400  27.370  20.700  15.610
  309BOLB   C1B 7401  26.260  19.920  15.940
  309BOLB   C2B 7402  26.390  20.310  15.840
  309BOLB   C3B 7403  26.680  20.660  15.840
  309BOLB   C4B 7404  27.090  20.730  16.030
  309BOLB   NC2 7405  29.030  22.190  16.250
  309BOLB   PO2 7406  28.800  22.260  16.590
  309BOLB   GL3 7407  28.470  21.930  16.440
  309BOLB   GL4 7408  28.330  21.680  16.740
  309BOLB   C1C 7409  28.290  21.560  16.100
  309BOLB   C2C 7410  28.260  21.430  15.650
  309BOLB   C3C 7411  28.000  21.280  15.330
  309BOLB   C4C 7412  27.780  20.930  15.310
  309BOLB   C1D 7413  27.920  21.520  16.570
  309BOLB   C2D 7414  27.470  21.530  16.400
  309BOLB   C3D 7415  27.270  21.830  16.260
  309BOLB   C4D 7416  27.520  22.090  16.030
  310BOLB   NC1 7417  15.380  18.970  18.620
  310BOLB   PO1 7418  15.770  19.210  18.770
  310BOLB   GL1 7419  15.580  19.370  19.080
  310BOLB   GL2 7420  15.280  19.440  18.900
  310BOLB   C1A 7421  15.490  19.570  19.510
  310BOLB   C2A 7422  15.480  19.800  19.900
  310BOLB   C3A 7423  15.770  19.680  20.250
  310BOLB   C4A 7424  15.980  19.630  20.660
  310BOLB   C1B 7425  15.030  19.530  19.280
  310BOLB   C2B 7426  14.730  19.630  19.590
  310BOLB   C3B 7427  14.530  19.730  20.010
  310BOLB   C4B 7428  14.320  19.910  20.270
  310BOLB   NC2 7429  16.670  20.720  22.620
  310BOLB   PO2 7430  16.280  20.590  22.790
  310BOLB   GL3 7431  15.940  20.280  22.560
  310BOLB   GL4 7432  16.000  19.910  22.700
  310BOLB   C1C 7433  15.910  20.160  22.100
  310BOLB   C2C 7434  16.050  19.850  21.840
  310BOLB   C3C 7435  16.090  19.640  21.500
  310BOLB   C4C 7436  16.100  19.540  21.080
  310BOLB   C1D 7437  16.150  19.850  22.400
  310BOLB   C2D 7438  16.420  19.640  22.110
  310BOLB   C3D 7439  16.580  19.480  21.800
  310BOLB   C4D 7440  16.540  19.370  21.380
  311BOLB   NC1 7441  21.190  20.640  18.620
  311BOLB   PO1 7442  20.830  20.580  18.940
  311BOLB   GL1 7443  21.070  20.670  19.100
  311BOLB   GL2 7444  21.220  20.980  19.000
  311BOLB   C1A 7445  21.300  20.750  19.510
  311BOLB   C2A 7446  21.240  20.900  19.970
  311BOLB   C3A 7447  21.460  21.000  20.190
  311BOLB   C4A 7448  21.550  21.030  20.580
  311BOLB   C1B 7449  21.340  21.290  19.230
  311BOLB   C2B 7450  21.670  21.600  19.250
  311BOLB   C3B 7451  21.980  21.720  19.390
  311BOLB   C4B 7452  22.260  21.760  19.670
  311BOLB   NC2 7453  23.300  21.520  22.070
  311BOLB   PO2 7454  23.240  21.230  22.370
  311BOLB   GL3 7455  22.900  21.260  21.980
  311BOLB   GL4 7456  22.530  21.000  21.910
  311BOLB   C1C 7457  22.800  21.240  21.580
  311BOLB   C2C 7458  22.620  20.910  21.250
  311BOLB   C3C 7459  22.280  20.820  21.030
  311BOLB   C4C 7460  21.880  20.930  20.920
  311BOLB   C1D 7461  22.580  20.660  21.690
  311BOLB   C2D 7462  22.380  20.370  21.380
  311BOLB   C3D 7463  22.230  20.210  21.020
  311BOLB   C4D 7464  22.080  20.330  20.750
  312BOLB   NC1 7465  19.060  22.790  16.650
  312BOLB   PO1 7466  19.540  22.740  16.690
  312BOLB   GL1 7467  19.620  23.060  16.890
  312BOLB   GL2 7468  19.790  23.260  16.710
  312BOLB   C1A 7469  19.420  23.290  17.240
  312BOLB   C2A 7470  19.270  23.220  17.680
  312BOLB   C3A 7471  19.340  23.450  17.920
  312BOLB   C4A 7472  19.420  23.700  18.280
  312BOLB   C1B 7473  20.160  23.570  16.770
  312BOLB   C2B 7474  20.160  23.910  16.990
  312BOLB   C3B 7475  20.190  24.300  17.190
  312BOLB   C4B 7476  20.540  24.530  17.430
  312BOLB   NC2 7477  19.030  26.430  19.140
  312BOLB   PO2 7478  19.140  26.040  18.860
  312BOLB   GL3 7479  19.100  25.710  18.600
  312BOLB   GL4 7480  18.830  25.520  18.390
  312BOLB   C1C 7481  19.360  25.370  18.610
  312BOLB   C2C 7482  19.380  24.890  18.600
  312BOLB   C3C 7483  19.640  24.520  18.500
  312BOLB   C4C 7484  19.610  24.040  18.470
  312BOLB   C1D 7485  18.850  25.120  18.500
  312BOLB   C2D 7486  18.970  24.640  18.630
  312BOLB   C3D 7487  18.830  24.180  18.650
  312BOLB   C4D 7488  18.930  23.770  18.750
  313BOLB   NC1 7489  23.220  21.580  16.700
  313BOLB   PO1 7490  23.370  21.250  16.970
  313BOLB   GL1 7491  23.520  21.650  17.110
  313BOLB   GL2 7492  23.360  21.950  16.970
  313BOLB   C1A 7493  23.450  21.890  17.460
  313BOLB   C2A 7494  23.470  22.230  17.740
  313BOLB   C3A 7495  23.210  22.440  17.990
  313BOLB   C4A 7496  23.070  22.450  18.450
  313BOLB   C1B 7497  23.680  22.250  17.100
  313BOLB   C2B 7498  23.750  22.680  17.180
  313BOLB   C3B 7499  23.780  23.200  17.190
  313BOLB   C4B 7500  23.650  23.570  17.320
  313BOLB   NC2 7501  23.460  23.970  20.580
  313BOLB   PO2 7502  23.030  23.710  20.560
  313BOLB   GL3 7503  23.260  23.460  20.260
  313BOLB   GL4 7504  23.060  23.210  20.210
  313BOLB   C1C 7505  23.520  23.050  19.970
  313BOLB   C2C 7506  23.390  22.770  19.600
  313BOLB   C3C 7507  23.280  22.810  19.110
  313BOLB   C4C 7508  23.070  22.510  18.920
  313BOLB   C1D 7509  23.030  22.960  19.910
  313BOLB   C2D 7510  22.890  22.820  19.500
  313BOLB   C3D 7511  22.860  22.400  19.350
  313BOLB   C4D 7512  23.020  22.090  19.130
  314BOLB   NC1 7513  10.280  12.240  14.620
  314BOLB   PO1 7514  10.490  12.040  14.960
  314BOLB   GL1 7515  10.060  11.910  15.130
  314BOLB   GL2 7516  10.010  12.090  15.300
  314BOLB   C1A 7517   9.770  11.600  15.140
  314BOLB   C2A 7518   9.470  11.200  15.110
  314BOLB   C3A 7519   9.210  10.770  15.180
  314BOLB   C4A 7520   8.920  10.680  14.980
  314BOLB   C1B 7521   9.540  12.020  15.420
  314BOLB   C2B 7522   9.320  11.500  15.470
  314BOLB   C3B 7523   9.030  11.220  15.210
  314BOLB   C4B 7524   9.080  11.030  14.700
  314BOLB   NC2 7525   6.710  10.420  13.480
  314BOLB   PO2 7526   7.090  10.280  13.710
  314BOLB   GL3 7527   7.470  10.130  13.800
  314BOLB   GL4 7528   7.570   9.860  13.960
  314BOLB   C1C 7529   7.920  10.180  13.850
  314BOLB   C2C 7530   8.070  10.560  14.050
  314BOLB   C3C 7531   8.430  10.620  14.080
  314BOLB   C4C 7532   8.650  10.660  14.540
  314BOLB   C1D 7533   7.420  10.090  14.330
  314BOLB   C2D 7534   7.560  10.180  14.760
  314BOLB   C3D 7535   7.940  10.230  14.840
  314BOLB   C4D 7536   8.340  10.260  14.510
  315BOLB   NC1 7537  16.450  18.900  18.120
  315BOLB   PO1 7538  16.420  19.100  18.620
  315BOLB   GL1 7539  16.330  19.210  19.010
  315BOLB   GL2 7540  16.140  19.540  18.940
  315BOLB   C1A 7541  16.480  19.300  19.430
  315BOLB   C2A 7542  16.360  19.450  19.860
  315BOLB   C3A 7543  16.220  19.820  20.070
  315BOLB   C4A 7544  16.210  20.170  20.340
  315BOLB   C1B 7545  16.090  19.680  19.330
  315BOLB   C2B 7546  16.010  19.940  19.660
  315BOLB   C3B 7547  15.820  20.150  20.020
  315BOLB   C4B 7548  15.610  20.130  20.420
  315BOLB   NC2 7549  14.390  20.780  22.480
  315BOLB   PO2 7550  14.730  20.800  22.230
  315BOLB   GL3 7551  14.920  20.550  21.950
  315BOLB   GL4 7552  14.730  20.270  21.790
  315BOLB   C1C 7553  15.220  20.340  21.670
  315BOLB   C2C 7554  15.650  20.490  21.510
  315BOLB   C3C 7555  15.800  20.470  21.030
  315BOLB   C4C 7556  15.990  20.380  20.630
  315BOLB   C1D 7557  14.800  20.280  21.350
  315BOLB   C2D 7558  14.830  20.410  20.950
  315BOLB   C3D 7559  14.630  20.460  20.570
  315BOLB   C4D 7560  14.640  20.330  20.220
  316BOLB   NC1 7561  25.720  19.250  16.510
  316BOLB   PO1 7562  25.630  18.990  16.860
  316BOLB   GL1 7563  25.620  19.480  16.950
  316BOLB   GL2 7564  25.540  19.710  16.760
  316BOLB   C1A 7565  25.940  19.620  17.370
  316BOLB   C2A 7566  26.040  20.040  17.320
  316BOLB   C3A 7567  26.330  20.280  17.460
  316BOLB   C4A 7568  26.710  20.510  17.370
  316BOLB   C1B 7569  26.010  19.790  16.890
  316BOLB   C2B 7570  26.480  20.150  16.970
  316BOLB   C3B 7571  26.860  20.320  16.790
  316BOLB   C4B 7572  27.060  19.950  16.590
  316BOLB   NC2 7573  28.550  21.800  17.810
  316BOLB   PO2 7574  28.940  21.550  17.830
  316BOLB   GL3 7575  28.580  21.320  17.650
  316BOLB   GL4 7576  28.290  21.240  17.790
  316BOLB   C1C 7577  28.340  21.230  17.320
  316BOLB   C2C 7578  27.910  21.090  17.160
  316BOLB   C3C 7579  27.520  20.850  17.160
  316BOLB   C4C 7580  27.020  20.740  17.190
  316BOLB   C1D 7581  27.850  21.060  17.630
  316BOLB   C2D 7582  27.700  20.580  17.510
  316BOLB   C3D 7583  27.870  20.250  17.540
  316BOLB   C4D 7584  27.840  19.980  17.930
  317BOLB   NC1 7585  26.390  13.200  18.700
  317BOLB   PO1 7586  26.240  12.810  18.570
  317BOLB   GL1 7587  26.580  12.650  18.890
  317BOLB   GL2 7588  26.630  12.310  18.910
  317BOLB   C1A 7589  26.950  12.790  19.050
  317BOLB   C2A 7590  27.300  12.740  19.230
  317BOLB   C3A 7591  27.540  12.640  19.520
  317BOLB   C4A 7592  27.590  12.650  19.970
  317BOLB   C1B 7593  26.900  12.320  19.300
  317BOLB   C2B 7594  27.090  12.450  19.750
  317BOLB   C3B 7595  27.200  12.240  20.170
  317BOLB   C4B 7596  27.370  11.900  20.260
  317BOLB   NC2 7597  28.960  12.920  22.460
  317BOLB   PO2 7598  28.540  12.640  22.430
  317BOLB   GL3 7599  28.360  12.540  22.050
  317BOLB   GL4 7600  28.520  12.690  21.760
  317BOLB   C1C 7601  27.990  12.510  21.760
  317BOLB   C2C 7602  27.900  12.620  21.350
  317BOLB   C3C 7603  27.760  12.580  20.910
  317BOLB   C4C 7604  27.580  12.600  20.480
  317BOLB   C1D 7605  28.380  12.430  21.360
  317BOLB   C2D 7606  28.150  12.270  21.010
  317BOLB   C3D 7607  27.810  12.160  20.730
  317BOLB   C4D 7608  27.890  12.190  20.290
  318BOLB   NC1 7609  16.770  17.800  18.550
  318BOLB   PO1 7610  16.930  17.770  19.020
  318BOLB   GL1 7611  16.870  18.000  19.450
  318BOLB   GL2 7612  17.080  18.190  19.710
  318BOLB   C1A 7613  16.680  17.920  19.830
  318BOLB   C2A 7614  16.430  18.040  20.230
  318BOLB   C3A 7615  16.110  18.350  20.460
  318BOLB   C4A 7616  15.890  18.700  20.750
  318BOLB   C1B 7617  16.900  18.300  20.080
  318BOLB   C2B 7618  16.680  18.530  20.410
  318BOLB   C3B 7619  16.280  18.810  20.520
  318BOLB   C4B 7620  16.240  19.160  20.750
  318BOLB   NC2 7621  15.600  19.500  23.470
  318BOLB   PO2 7622  15.870  19.560  23.050
  318BOLB   GL3 7623  15.720  19.380  22.730
  318BOLB   GL4 7624  15.810  18.970  22.790
  318BOLB   C1C 7625  15.610  19.180  22.290
  318BOLB   C2C 7626  15.580  18.970  21.970
  318BOLB   C3C 7627  15.540  19.080  21.450
  318BOLB   C4C 7628  15.750  18.940  21.110
  318BOLB   C1D 7629  15.950  18.820  22.390
  318BOLB   C2D 7630  16.080  18.650  21.960
  318BOLB   C3D 7631  16.280  18.520  21.570
  318BOLB   C4D 7632  16.190  18.350  21.140
  319BOLB   NC1 7633  22.890   7.510  18.980
  319BOLB   PO1 7634  23.120   7.750  18.570
  319BOLB   GL1 7635  23.400   7.450  18.910
  319BOLB   GL2 7636  23.720   7.320  18.770
  319BOLB   C1A 7637  23.400   7.200  19.300
  319BOLB   C2A 7638  23.120   6.960  19.510
  319BOLB   C3A 7639  23.280   6.630  19.760
  319BOLB   C4A 7640  23.440   6.190  19.950
  319BOLB   C1B 7641  23.710   6.870  18.890
  319BOLB   C2B 7642  23.730   6.380  18.930
  319BOLB   C3B 7643  23.800   5.950  18.920
  319BOLB   C4B 7644  23.860   5.750  19.260
  319BOLB   NC2 7645  24.420   3.780  20.090
  319BOLB   PO2 7646  24.890   3.870  20.200
  319BOLB   GL3 7647  24.700   4.260  20.230
  319BOLB   GL4 7648  24.520   4.260  19.970
  319BOLB   C1C 7649  24.440   4.620  20.350
  319BOLB   C2C 7650  24.160   5.020  20.290
  319BOLB   C3C 7651  23.930   5.420  20.070
  319BOLB   C4C 7652  23.740   5.900  20.130
  319BOLB   C1D 7653  24.690   4.490  19.660
  319BOLB   C2D 7654  24.570   4.850  19.430
  319BOLB   C3D 7655  24.450   5.200  19.250
  319BOLB   C4D 7656  24.290   5.560  19.020
  320BOLB   NC1 7657  20.790  23.170  13.620
  320BOLB   PO1 7658  21.190  23.080  13.710
  320BOLB   GL1 7659  21.450  23.490  13.580
  320BOLB   GL2 7660  21.480  23.700  13.310
  320BOLB   C1A 7661  21.750  23.780  13.750
  320BOLB   C2A 7662  21.980  24.140  13.630
  320BOLB   C3A 7663  21.850  24.510  13.590
  320BOLB   C4A 7664  21.870  24.890  13.790
  320BOLB   C1B 7665  21.550  24.130  13.270
  320BOLB   C2B 7666  21.470  24.570  13.290
  320BOLB   C3B 7667  21.400  24.820  13.610
  320BOLB   C4B 7668  21.260  25.100  13.520
  320BOLB   NC2 7669  22.750  27.240  13.650
  320BOLB   PO2 7670  23.030  26.880  13.810
  320BOLB   GL3 7671  22.690  26.710  13.860
  320BOLB   GL4 7672  22.520  26.890  13.910
  320BOLB   C1C 7673  22.620  26.270  13.930
  320BOLB   C2C 7674  22.660  25.830  13.930
  320BOLB   C3C 7675  22.440  25.520  14.100
  320BOLB   C4C 7676  22.130  25.220  13.960
  320BOLB   C1D 7677  22.150  26.500  13.940
  320BOLB   C2D 7678  22.180  26.030  13.850
  320BOLB   C3D 7679  22.020  25.680  14.110
  320BOLB   C4D 7680  22.130  25.310  14.510
  321BOLB   NC1 7681  12.090  19.540  15.960
  321BOLB   PO1 7682  11.890  19.670  16.270
  321BOLB   GL1 7683  11.700  19.700  16.630
  321BOLB   GL2 7684  12.000  19.880  16.950
  321BOLB   C1A 7685  11.330  19.490  16.840
  321BOLB   C2A 7686  10.980  19.560  17.080
  321BOLB   C3A 7687  10.550  19.440  17.170
  321BOLB   C4A 7688  10.260  19.610  17.520
  321BOLB   C1B 7689  11.600  19.980  17.040
  321BOLB   C2B 7690  11.390  20.090  17.340
  321BOLB   C3B 7691  11.090  20.160  17.670
  321BOLB   C4B 7692  10.950  20.410  17.900
  321BOLB   NC2 7693   9.040  21.240  18.420
  321BOLB   PO2 7694   9.260  21.620  18.360
  321BOLB   GL3 7695   9.540  21.300  18.230
  321BOLB   GL4 7696   9.960  21.250  18.110
  321BOLB   C1C 7697   9.500  20.960  17.970
  321BOLB   C2C 7698   9.610  20.500  18.110
  321BOLB   C3C 7699   9.840  20.110  18.060
  321BOLB   C4C 7700  10.130  19.870  17.830
  321BOLB   C1D 7701  10.240  21.120  17.800
  321BOLB   C2D 7702  10.630  20.840  17.860
  321BOLB   C3D 7703  10.910  20.840  18.150
  321BOLB   C4D 7704  11.300  20.750  18.040
  322BOLB   NC1 7705  19.600   6.310  19.120
  322BOLB   PO1 7706  19.540   6.670  19.350
  322BOLB   GL1 7707  19.520   6.420  19.700
  322BOLB   GL2 7708  19.810   6.560  19.830
  322BOLB   C1A 7709  19.530   6.070  19.910
  322BOLB   C2A 7710  19.570   5.710  20.260
  322BOLB   C3A 7711  19.310   5.680  20.610
  322BOLB   C4A 7712  18.860   5.830  20.710
  322BOLB   C1B 7713  20.050   6.210  19.860
  322BOLB   C2B 7714  19.880   5.800  19.840
  322BOLB   C3B 7715  19.660   5.410  19.840
  322BOLB   C4B 7716  19.830   5.110  20.120
  322BOLB   NC2 7717  17.560   4.890  22.350
  322BOLB   PO2 7718  17.350   5.370  22.560
  322BOLB   GL3 7719  17.480   5.380  22.190
  322BOLB   GL4 7720  17.290   5.520  21.960
  322BOLB   C1C 7721  17.720   5.210  21.820
  322BOLB   C2C 7722  18.000   5.110  21.480
  322BOLB   C3C 7723  18.320   5.230  21.200
  322BOLB   C4C 7724  18.570   5.530  20.960
  322BOLB   C1D 7725  17.520   5.570  21.480
  322BOLB   C2D 7726  17.780   5.360  21.170
  322BOLB   C3D 7727  17.990   5.320  20.840
  322BOLB   C4D 7728  18.080   5.340  20.380
  323BOLB   NC1 7729  17.820   8.170  19.710
  323BOLB   PO1 7730  18.000   8.740  19.900
  323BOLB   GL1 7731  17.940   8.880  20.340
  323BOLB   GL2 7732  18.100   9.010  20.480
  323BOLB   C1A 7733  17.800   8.950  20.810
  323BOLB   C2A 7734  17.720   8.720  21.120
  323BOLB   C3A 7735  17.660   8.500  21.510
  323BOLB   C4A 7736  17.790   8.660  21.960
  323BOLB   C1B 7737  18.250   9.090  20.950
  323BOLB   C2B 7738  18.340   9.150  21.380
  323BOLB   C3B 7739  18.530   9.340  21.790
  323BOLB   C4B 7740  18.180   9.550  22.080
  323BOLB   NC2 7741  17.410   8.000  24.340
  323BOLB   PO2 7742  17.550   7.820  24.030
  323BOLB   GL3 7743  17.690   7.680  23.640
  323BOLB   GL4 7744  17.980   7.580  23.650
  323BOLB   C1C 7745  17.850   7.880  23.250
  323BOLB   C2C 7746  17.730   8.340  23.030
  323BOLB   C3C 7747  17.550   8.690  22.750
  323BOLB   C4C 7748  17.670   8.790  22.360
  323BOLB   C1D 7749  18.220   7.480  23.270
  323BOLB   C2D 7750  18.130   7.590  22.860
  323BOLB   C3D 7751  18.030   7.990  22.710
  323BOLB   C4D 7752  18.160   8.280  22.450
  324BOLB   NC1 7753  19.080   7.790   9.950
  324BOLB   PO1 7754  18.760   7.560   9.950
  324BOLB   GL1 7755  18.720   7.180   9.610
  324BOLB   GL2 7756  19.000   7.000   9.540
  324BOLB   C1A 7757  18.360   6.860   9.490
  324BOLB   C2A 7758  18.250   6.480   9.480
  324BOLB   C3A 7759  18.250   6.310   9.100
  324BOLB   C4A 7760  18.100   6.260   8.660
  324BOLB   C1B 7761  19.170   6.700   9.260
  324BOLB   C2B 7762  19.120   6.430   8.930
  324BOLB   C3B 7763  19.050   6.010   8.730
  324BOLB   C4B 7764  18.850   5.700   8.550
  324BOLB   NC2 7765  17.480   4.550   6.790
  324BOLB   PO2 7766  17.880   4.800   6.810
  324BOLB   GL3 7767  17.810   4.880   7.250
  324BOLB   GL4 7768  17.850   4.800   7.490
  324BOLB   C1C 7769  17.700   5.300   7.490
  324BOLB   C2C 7770  17.690   5.390   7.930
  324BOLB   C3C 7771  17.750   5.620   8.260
  324BOLB   C4C 7772  17.950   6.020   8.440
  324BOLB   C1D 7773  18.100   5.110   7.770
  324BOLB   C2D 7774  18.160   5.570   8.010
  324BOLB   C3D 7775  18.380   5.760   8.410
  324BOLB   C4D 7776  18.460   5.930   8.810
  325BOLB   NC1 7777  14.070  11.610  18.510
  325BOLB   PO1 7778  14.210  11.830  18.840
  325BOLB   GL1 7779  13.910  11.630  19.150
  325BOLB   GL2 7780  13.700  11.820  19.200
  325BOLB   C1A 7781  13.590  11.400  19.440
  325BOLB   C2A 7782  13.360  11.270  19.760
  325BOLB   C3A 7783  13.140  11.280  20.080
  325BOLB   C4A 7784  12.860  11.140  20.350
  325BOLB   C1B 7785  13.620  11.870  19.650
  325BOLB   C2B 7786  13.340  11.710  20.040
  325BOLB   C3B 7787  13.580  11.670  20.440
  325BOLB   C4B 7788  13.720  11.460  20.830
  325BOLB   NC2 7789  10.980   9.780  22.150
  325BOLB   PO2 7790  11.240  10.120  21.900
  325BOLB   GL3 7791  11.380  10.110  21.490
  325BOLB   GL4 7792  11.100  10.170  21.240
  325BOLB   C1C 7793  11.770  10.280  21.300
  325BOLB   C2C 7794  12.030  10.590  21.110
  325BOLB   C3C 7795  12.350  10.520  20.890
  325BOLB   C4C 7796  12.630  10.830  20.640
  325BOLB   C1D 7797  11.490  10.090  20.930
  325BOLB   C2D 7798  11.850   9.810  20.650
  325BOLB   C3D 7799  11.900   9.980  20.280
  325BOLB   C4D 7800  12.380   9.840  20.080
  326BOLB   NC1 7801  17.450  15.370  20.320
  326BOLB   PO1 7802  17.360  15.750  20.170
  326BOLB   GL1 7803  17.200  15.980  20.390
  326BOLB   GL2 7804  17.390  16.090  20.580
  326BOLB   C1A 7805  16.910  16.020  20.640
  326BOLB   C2A 7806  16.790  16.200  21.040
  326BOLB   C3A 7807  16.620  16.250  21.430
  326BOLB   C4A 7808  16.210  16.340  21.770
  326BOLB   C1B 7809  17.380  16.000  21.010
  326BOLB   C2B 7810  17.300  15.920  21.420
  326BOLB   C3B 7811  17.520  15.970  21.890
  326BOLB   C4B 7812  17.720  16.280  22.240
  326BOLB   NC2 7813  16.050  17.930  23.910
  326BOLB   PO2 7814  16.360  17.660  23.720
  326BOLB   GL3 7815  16.560  17.370  23.350
  326BOLB   GL4 7816  16.670  17.150  23.480
  326BOLB   C1C 7817  16.500  17.240  23.030
  326BOLB   C2C 7818  16.570  17.040  22.680
  326BOLB   C3C 7819  16.360  16.930  22.280
  326BOLB   C4C 7820  16.180  16.620  22.090
  326BOLB   C1D 7821  16.320  16.920  23.370
  326BOLB   C2D 7822  16.160  16.830  22.930
  326BOLB   C3D 7823  15.910  16.890  22.510
  326BOLB   C4D 7824  15.660  16.650  22.190
  327BOLB   NC1 7825  17.640  19.460  18.930
  327BOLB   PO1 7826  17.290  19.160  19.130
  327BOLB   GL1 7827  17.590  19.430  19.410
  327BOLB   GL2 7828  17.750  19.650  19.360
  327BOLB   C1A 7829  17.560  19.490  19.830
  327BOLB   C2A 7830  17.540  19.500  20.240
  327BOLB   C3A 7831  17.670  19.690  20.630
  327BOLB   C4A 7832  17.760  20.040  20.880
  327BOLB   C1B 7833  17.950  19.880  19.600
  327BOLB   C2B 7834  17.830  19.860  19.980
  327BOLB   C3B 7835  17.820  20.130  20.290
  327BOLB   C4B 7836  18.000  20.480  20.310
  327BOLB   NC2 7837  17.790  22.410  21.700
  327BOLB   PO2 7838  17.750  21.980  21.830
  327BOLB   GL3 7839  18.040  21.730  22.000
  327BOLB   GL4 7840  18.200  21.810  21.680
  327BOLB   C1C 7841  18.240  21.270  21.890
  327BOLB   C2C 7842  18.200  21.040  21.570
  327BOLB   C3C 7843  18.070  20.760  21.250
  327BOLB   C4C 7844  17.940  20.430  20.960
  327BOLB   C1D 7845  17.960  21.490  21.550
  327BOLB   C2D 7846  17.920  21.200  21.210
  327BOLB   C3D 7847  17.590  21.270  20.870
  327BOLB   C4D 7848  17.420  20.960  20.520
  328BOLB   NC1 7849  23.720  14.520  20.230
  328BOLB   PO1 7850  24.120  14.410  20.080
  328BOLB   GL1 7851  24.190  14.610  20.510
  328BOLB   GL2 7852  24.190  14.940  20.560
  328BOLB   C1A 7853  24.410  14.580  20.950
  328BOLB   C2A 7854  24.720  14.500  21.200
  328BOLB   C3A 7855  24.760  14.520  21.690
  328BOLB   C4A 7856  24.590  14.570  22.120
  328BOLB   C1B 7857  23.960  14.880  20.930
  328BOLB   C2B 7858  24.010  14.540  21.210
  328BOLB   C3B 7859  24.240  14.370  21.550
  328BOLB   C4B 7860  24.370  14.020  22.010
  328BOLB   NC2 7861  24.560  14.480  24.760
  328BOLB   PO2 7862  24.270  14.360  24.500
  328BOLB   GL3 7863  24.080  14.380  24.070
  328BOLB   GL4 7864  23.920  14.610  24.050
  328BOLB   C1C 7865  24.140  14.290  23.650
  328BOLB   C2C 7866  24.300  14.510  23.340
  328BOLB   C3C 7867  24.210  14.500  22.970
  328BOLB   C4C 7868  24.440  14.750  22.710
  328BOLB   C1D 7869  23.570  14.490  23.780
  328BOLB   C2D 7870  23.300  14.300  23.420
  328BOLB   C3D 7871  23.230  14.360  22.930
  328BOLB   C4D 7872  23.280  14.570  22.510
  329BOLB   NC1 7873  13.060  16.160  17.760
  329BOLB   PO1 7874  12.640  16.220  17.500
  329BOLB   GL1 7875  12.180  16.250  17.700
  329BOLB   GL2 7876  12.140  15.960  17.920
  329BOLB   C1A 7877  11.870  16.490  17.870
  329BOLB   C2A 7878  11.650  16.560  18.120
  329BOLB   C3A 7879  11.550  16.770  18.520
  329BOLB   C4A 7880  11.470  16.750  18.840
  329BOLB   C1B 7881  11.750  16.020  18.090
  329BOLB   C2B 7882  11.250  15.900  18.250
  329BOLB   C3B 7883  11.060  15.930  18.630
  329BOLB   C4B 7884  11.360  16.000  19.010
  329BOLB   NC2 7885   9.410  17.980  19.620
  329BOLB   PO2 7886   9.210  17.570  19.600
  329BOLB   GL3 7887   9.390  17.320  19.260
  329BOLB   GL4 7888   9.150  17.100  19.370
  329BOLB   C1C 7889   9.730  17.050  19.270
  329BOLB   C2C 7890  10.220  17.040  19.360
  329BOLB   C3C 7891  10.600  16.900  19.110
  329BOLB   C4C 7892  11.060  16.880  19.030
  329BOLB   C1D 7893   9.390  16.650  19.270
  329BOLB   C2D 7894   9.660  16.630  18.940
  329BOLB   C3D 7895   9.730  16.680  18.510
  329BOLB   C4D 7896   9.520  16.830  18.190
  330BOLB   NC1 7897  24.980  18.310  17.370
  330BOLB   PO1 7898  25.080  18.700  17.720
  330BOLB   GL1 7899  25.340  18.840  18.040
  330BOLB   GL2 7900  25.300  18.600  18.220
  330BOLB   C1A 7901  25.640  18.990  18.280
  330BOLB   C2A 7902  26.040  19.050  18.390
  330BOLB   C3A 7903  26.520  18.990  18.330
  330BOLB   C4A 7904  26.890  18.860  18.580
  330BOLB   C1B 7905  25.390  18.650  18.600
  330BOLB   C2B 7906  25.670  18.990  18.890
  330BOLB   C3B 7907  26.110  19.100  18.870
  330BOLB   C4B 7908  26.520  19.010  18.820
  330BOLB   NC2 7909  29.730  20.270  18.630
  330BOLB   PO2 7910  29.300  19.920  18.730
  330BOLB   GL3 7911  28.900  19.650  18.800
  330BOLB   GL4 7912  28.890  19.740  18.430
  330BOLB   C1C 7913  28.580  19.300  18.760
  330BOLB   C2C 7914  28.120  19.100  18.750
  330BOLB   C3C 7915  27.770  19.170  18.660
  330BOLB   C4C 7916  27.410  19.020  18.520
  330BOLB   C1D 7917  28.400  19.560  18.160
  330BOLB   C2D 7918  28.110  19.550  17.890
  330BOLB   C3D 7919  27.640  19.530  17.710
  330BOLB   C4D 7920  27.320  19.630  17.480
  331BOLB   NC1 7921  12.200  10.530  13.360
  331BOLB   PO1 7922  11.990  10.100  13.420
  331BOLB   GL1 7923  11.530   9.910  13.270
  331BOLB   GL2 7924  11.310   9.780  13.550
  331BOLB   C1A 7925  11.270   9.630  13.110
  331BOLB   C2A 7926  10.870   9.480  13.000
  331BOLB   C3A 7927  10.510   9.550  12.750
  331BOLB   C4A 7928  10.140   9.310  12.590
  331BOLB   C1B 7929  10.980   9.690  13.530
  331BOLB   C2B 7930  10.580   9.320  13.370
  331BOLB   C3B 7931  10.300   9.180  13.070
  331BOLB   C4B 7932  10.140   8.740  13.160
  331BOLB   NC2 7933   8.760   7.380  12.930
  331BOLB   PO2 7934   8.360   7.700  12.960
  331BOLB   GL3 7935   8.620   8.120  12.820
  331BOLB   GL4 7936   8.700   8.340  13.130
  331BOLB   C1C 7937   9.030   8.210  12.610
  331BOLB   C2C 7938   9.420   8.330  12.740
  331BOLB   C3C 7939   9.590   8.670  12.860
  331BOLB   C4C 7940  10.010   8.840  12.670
  331BOLB   C1D 7941   9.060   8.610  13.060
  331BOLB   C2D 7942   9.470   8.770  13.390
  331BOLB   C3D 7943   9.400   9.210  13.650
  331BOLB   C4D 7944   9.210   9.500  13.900
  332BOLB   NC1 7945  18.270  19.390  18.270
  332BOLB   PO1 7946  18.020  19.550  18.610
  332BOLB   GL1 7947  18.200  19.550  19.070
  332BOLB   GL2 7948  18.080  19.270  19.280
  332BOLB   C1A 7949  18.380  19.670  19.490
  332BOLB   C2A 7950  18.520  19.610  19.860
  332BOLB   C3A 7951  18.660  19.760  20.310
  332BOLB   C4A 7952  18.580  19.710  20.860
  332BOLB   C1B 7953  18.090  19.220  19.720
  332BOLB   C2B 7954  18.000  19.200  20.240
  332BOLB   C3B 7955  18.050  19.300  20.710
  332BOLB   C4B 7956  18.040  19.650  20.990
  332BOLB   NC2 7957  18.920  21.010  23.180
  332BOLB   PO2 7958  18.960  20.550  23.050
  332BOLB   GL3 7959  18.970  20.340  22.780
  332BOLB   GL4 7960  19.030  19.950  22.770
  332BOLB   C1C 7961  18.960  20.140  22.300
  332BOLB   C2C 7962  18.870  19.750  22.080
  332BOLB   C3C 7963  18.590  19.680  21.800
  332BOLB   C4C 7964  18.570  19.730  21.290
  332BOLB   C1D 7965  19.230  19.760  22.440
  332BOLB   C2D 7966  19.370  19.420  22.090
  332BOLB   C3D 7967  19.270  19.430  21.740
  332BOLB   C4D 7968  19.020  19.700  21.580
  333BOLB   NC1 7969  18.440  23.160  11.880
  333BOLB   PO1 7970  18.380  23.360  11.520
  333BOLB   GL1 7971  18.210  23.820  11.490
  333BOLB   GL2 7972  17.960  24.000  11.370
  333BOLB   C1A 7973  18.330  24.260  11.350
  333BOLB   C2A 7974  18.320  24.660  11.100
  333BOLB   C3A 7975  18.170  25.160  11.190
  333BOLB   C4A 7976  17.920  25.600  11.260
  333BOLB   C1B 7977  17.870  24.400  11.270
  333BOLB   C2B 7978  18.070  24.740  11.570
  333BOLB   C3B 7979  18.400  25.010  11.680
  333BOLB   C4B 7980  18.920  25.090  11.700
  333BOLB   NC2 7981  16.730  27.710  11.500
  333BOLB   PO2 7982  16.710  27.580  11.030
  333BOLB   GL3 7983  17.020  27.250  11.010
  333BOLB   GL4 7984  16.950  27.080  10.760
  333BOLB   C1C 7985  17.000  26.780  11.140
  333BOLB   C2C 7986  17.370  26.560  11.210
  333BOLB   C3C 7987  17.560  26.100  11.230
  333BOLB   C4C 7988  17.550  25.710  11.370
  333BOLB   C1D 7989  17.020  26.620  10.660
  333BOLB   C2D 7990  17.060  26.470  10.280
  333BOLB   C3D 7991  17.280  26.200  10.080
  333BOLB   C4D 7992  17.330  25.820   9.980
  334BOLB   NC1 7993  28.640  13.830  15.790
  334BOLB   PO1 7994  28.290  13.580  15.990
  334BOLB   GL1 7995  28.590  13.750  16.260
  334BOLB   GL2 7996  28.650  14.120  16.320
  334BOLB   C1A 7997  28.900  13.740  16.640
  334BOLB   C2A 7998  29.200  13.830  16.890
  334BOLB   C3A 7999  29.600  14.040  17.110
  334BOLB   C4A 8000  29.990  13.800  17.210
  334BOLB   C1B 8001  29.070  14.070  16.250
  334BOLB   C2B 8002  29.440  13.920  16.430
  334BOLB   C3B 8003  29.740  13.730  16.630
  334BOLB   C4B 8004  30.000  13.480  16.820
  334BOLB   NC2 8005  31.900  13.010  18.010
  334BOLB   PO2 8006  31.580  12.950  18.330
  334BOLB   GL3 8007  31.430  13.120  17.970
  334BOLB   GL4 8008  31.570  13.460  17.900
  334BOLB   C1C 8009  31.010  13.150  18.050
  334BOLB   C2C 8010  30.690  13.020  17.900
  334BOLB   C3C 8011  30.560  13.480  17.640
  334BOLB   C4C 8012  30.180  13.660  17.470
  334BOLB   C1D 8013  31.140  13.600  18.130
  334BOLB   C2D 8014  30.910  13.920  18.180
  334BOLB   C3D 8015  30.650  13.980  17.890
  334BOLB   C4D 8016  30.470  14.080  17.540
  335BOLB   NC1 8017  18.120  23.530  12.740
  335BOLB   PO1 8018  17.980  23.900  12.770
  335BOLB   GL1 8019  18.110  24.270  12.850
  335BOLB   GL2 8020  18.470  24.350  12.980
  335BOLB   C1A 8021  17.920  24.630  12.940
  335BOLB   C2A 8022  18.130  25.050  12.890
  335BOLB   C3A 8023  18.090  25.550  12.660
  335BOLB   C4A 8024  18.170  25.810  12.410
  335BOLB   C1B 8025  18.610  24.780  13.020
  335BOLB   C2B 8026  18.690  25.080  12.840
  335BOLB   C3B 8027  18.530  25.350  12.640
  335BOLB   C4B 8028  18.650  25.690  12.380
  335BOLB   NC2 8029  17.750  27.480  11.410
  335BOLB   PO2 8030  18.160  27.390  11.290
  335BOLB   GL3 8031  18.000  26.990  11.330
  335BOLB   GL4 8032  17.890  26.900  11.160
  335BOLB   C1C 8033  17.860  26.440  11.390
  335BOLB   C2C 8034  18.090  26.110  11.410
  335BOLB   C3C 8035  18.160  25.740  11.650
  335BOLB   C4C 8036  18.180  25.880  12.010
  335BOLB   C1D 8037  17.880  26.680  10.860
  335BOLB   C2D 8038  17.910  26.310  10.940
  335BOLB   C3D 8039  17.960  25.860  10.810
  335BOLB   C4D 8040  18.090  25.380  10.770
  336BOLB   NC1 8041  22.940  22.150  12.210
  336BOLB   PO1 8042  23.310  22.210  12.470
  336BOLB   GL1 8043  23.490  22.580  12.280
  336BOLB   GL2 8044  23.720  22.520  12.570
  336BOLB   C1A 8045  23.790  22.960  12.230
  336BOLB   C2A 8046  24.000  23.220  11.850
  336BOLB   C3A 8047  24.380  23.360  11.890
  336BOLB   C4A 8048  24.590  23.730  11.840
  336BOLB   C1B 8049  23.910  22.870  12.750
  336BOLB   C2B 8050  24.280  23.110  12.910
  336BOLB   C3B 8051  24.300  23.410  13.050
  336BOLB   C4B 8052  24.130  23.720  13.370
  336BOLB   NC2 8053  26.260  25.090  13.580
  336BOLB   PO2 8054  26.250  25.050  13.120
  336BOLB   GL3 8055  26.160  24.710  13.020
  336BOLB   GL4 8056  26.380  24.490  12.830
  336BOLB   C1C 8057  25.830  24.480  12.760
  336BOLB   C2C 8058  25.530  24.360  12.440
  336BOLB   C3C 8059  25.140  24.180  12.190
  336BOLB   C4C 8060  24.840  24.100  11.900
  336BOLB   C1D 8061  26.280  24.350  12.380
  336BOLB   C2D 8062  26.220  23.990  12.130
  336BOLB   C3D 8063  26.100  23.580  12.080
  336BOLB   C4D 8064  25.710  23.410  12.230
  337BOLB   NC1 8065  13.510  12.580  18.750
  337BOLB   PO1 8066  13.750  12.310  18.990
  337BOLB   GL1 8067  13.330  12.310  19.240
  337BOLB   GL2 8068  13.290  12.610  19.180
  337BOLB   C1A 8069  12.960  12.230  19.400
  337BOLB   C2A 8070  12.470  12.300  19.540
  337BOLB   C3A 8071  12.320  12.550  19.980
  337BOLB   C4A 8072  12.050  12.510  20.380
  337BOLB   C1B 8073  13.070  12.670  19.610
  337BOLB   C2B 8074  12.610  12.770  19.690
  337BOLB   C3B 8075  12.240  12.890  19.590
  337BOLB   C4B 8076  11.770  12.990  19.520
  337BOLB   NC2 8077  10.750  12.500  22.140
  337BOLB   PO2 8078  11.190  12.730  22.280
  337BOLB   GL3 8079  11.280  12.440  22.050
  337BOLB   GL4 8080  11.100  12.210  21.810
  337BOLB   C1C 8081  11.670  12.240  21.820
  337BOLB   C2C 8082  11.990  12.150  21.550
  337BOLB   C3C 8083  12.030  12.290  21.140
  337BOLB   C4C 8084  11.970  12.340  20.780
  337BOLB   C1D 8085  11.390  12.300  21.420
  337BOLB   C2D 8086  11.480  12.320  20.990
  337BOLB   C3D 8087  11.490  12.350  20.590
  337BOLB   C4D 8088  11.580  12.450  20.150
  338BOLB   NC1 8089  13.330   7.110  14.190
  338BOLB   PO1 8090  13.130   7.540  14.240
  338BOLB   GL1 8091  12.730   7.230  14.340
  338BOLB   GL2 8092  12.830   6.990  14.220
  338BOLB   C1A 8093  12.330   7.010  14.460
  338BOLB   C2A 8094  11.930   6.740  14.460
  338BOLB   C3A 8095  11.650   6.570  14.190
  338BOLB   C4A 8096  11.520   6.290  13.830
  338BOLB   C1B 8097  12.690   6.730  14.140
  338BOLB   C2B 8098  12.410   6.650  13.940
  338BOLB   C3B 8099  11.940   6.630  13.780
  338BOLB   C4B 8100  11.500   6.780  13.690
  338BOLB   NC2 8101  10.200   4.710  13.330
  338BOLB   PO2 8102   9.810   4.940  13.520
  338BOLB   GL3 8103  10.020   5.280  13.370
  338BOLB   GL4 8104   9.930   5.640  13.320
  338BOLB   C1C 8105  10.340   5.460  13.100
  338BOLB   C2C 8106  10.780   5.430  13.170
  338BOLB   C3C 8107  11.070   5.520  13.360
  338BOLB   C4C 8108  11.340   5.790  13.610
  338BOLB   C1D 8109  10.340   5.770  13.490
  338BOLB   C2D 8110  10.650   5.450  13.660
  338BOLB   C3D 8111  10.930   5.200  13.880
  338BOLB   C4D 8112  11.160   4.880  14.080
  339BOLB   NC1 8113  17.760  21.090  17.720
  339BOLB   PO1 8114  17.500  21.280  17.520
  339BOLB   GL1 8115  17.450  21.300  17.990
  339BOLB   GL2 8116  17.620  21.390  18.190
  339BOLB   C1A 8117  17.200  21.710  18.200
  339BOLB   C2A 8118  16.940  22.080  18.280
  339BOLB   C3A 8119  17.070  22.530  18.470
  339BOLB   C4A 8120  17.010  22.750  18.870
  339BOLB   C1B 8121  17.500  21.670  18.610
  339BOLB   C2B 8122  17.160  21.900  18.670
  339BOLB   C3B 8123  16.920  22.170  18.890
  339BOLB   C4B 8124  16.630  22.410  18.820
  339BOLB   NC2 8125  16.460  24.050  20.400
  339BOLB   PO2 8126  16.820  23.930  20.570
  339BOLB   GL3 8127  16.840  23.490  20.510
  339BOLB   GL4 8128  16.810  23.110  20.650
  339BOLB   C1C 8129  17.200  23.140  20.330
  339BOLB   C2C 8130  17.350  23.160  20.000
  339BOLB   C3C 8131  17.290  23.280  19.520
  339BOLB   C4C 8132  17.180  23.150  19.120
  339BOLB   C1D 8133  16.890  22.710  20.430
  339BOLB   C2D 8134  16.900  22.410  20.090
  339BOLB   C3D 8135  16.660  22.330  19.680
  339BOLB   C4D 8136  16.310  22.300  19.380
  340BOLB   NC1 8137  15.810  15.160  19.630
  340BOLB   PO1 8138  15.410  15.130  19.430
  340BOLB   GL1 8139  15.340  15.270  19.930
  340BOLB   GL2 8140  15.610  15.310  20.050
  340BOLB   C1A 8141  15.170  15.140  20.240
  340BOLB   C2A 8142  14.980  15.160  20.600
  340BOLB   C3A 8143  14.680  15.040  21.000
  340BOLB   C4A 8144  14.600  15.310  21.290
  340BOLB   C1B 8145  15.640  15.160  20.390
  340BOLB   C2B 8146  15.450  15.270  20.770
  340BOLB   C3B 8147  15.310  15.590  20.830
  340BOLB   C4B 8148  15.000  15.480  21.000
  340BOLB   NC2 8149  13.990  17.440  22.790
  340BOLB   PO2 8150  13.790  17.170  22.660
  340BOLB   GL3 8151  13.990  16.970  22.420
  340BOLB   GL4 8152  13.990  17.110  22.170
  340BOLB   C1C 8153  14.380  16.760  22.230
  340BOLB   C2C 8154  14.290  16.300  22.110
  340BOLB   C3C 8155  14.400  16.040  21.760
  340BOLB   C4C 8156  14.470  15.620  21.660
  340BOLB   C1D 8157  14.050  16.740  21.910
  340BOLB   C2D 8158  14.190  16.460  21.570
  340BOLB   C3D 8159  14.310  16.210  21.210
  340BOLB   C4D 8160  14.350  15.980  20.790
  341BOLB   NC1 8161  15.380  27.140  11.860
  341BOLB   PO1 8162  14.900  27.020  11.920
  341BOLB   GL1 8163  15.080  26.830  12.250
  341BOLB   GL2 8164  15.370  26.730  12.160
  341BOLB   C1A 8165  15.220  26.470  12.560
  341BOLB   C2A 8166  15.140  26.040  12.400
  341BOLB   C3A 8167  15.210  25.550  12.320
  341BOLB   C4A 8168  15.300  25.140  12.090
  341BOLB   C1B 8169  15.420  26.360  12.070
  341BOLB   C2B 8170  15.610  26.010  12.280
  341BOLB   C3B 8171  15.750  25.650  12.390
  341BOLB   C4B 8172  15.850  25.270  12.010
  341BOLB   NC2 8173  15.120  27.250  10.560
  341BOLB   PO2 8174  14.890  26.800  10.560
  341BOLB   GL3 8175  14.790  26.340  10.570
  341BOLB   GL4 8176  14.860  26.210  10.330
  341BOLB   C1C 8177  14.810  25.880  10.680
  341BOLB   C2C 8178  15.010  25.500  10.850
  341BOLB   C3C 8179  15.200  25.200  11.210
  341BOLB   C4C 8180  15.140  25.000  11.600
  341BOLB   C1D 8181  15.210  25.910  10.370
  341BOLB   C2D 8182  15.340  25.440  10.420
  341BOLB   C3D 8183  15.500  24.930  10.320
  341BOLB   C4D 8184  15.680  24.450  10.560
  342BOLB   NC1 8185  25.590  20.200  11.790
  342BOLB   PO1 8186  25.640  20.600  12.150
  342BOLB   GL1 8187  26.000  20.910  12.300
  342BOLB   GL2 8188  26.180  20.680  12.180
  342BOLB   C1A 8189  26.310  21.220  12.340
  342BOLB   C2A 8190  26.610  21.310  12.530
  342BOLB   C3A 8191  27.050  21.240  12.450
  342BOLB   C4A 8192  27.410  21.060  12.480
  342BOLB   C1B 8193  26.540  20.840  11.990
  342BOLB   C2B 8194  26.760  21.260  12.030
  342BOLB   C3B 8195  26.780  21.700  12.250
  342BOLB   C4B 8196  26.820  21.720  12.720
  342BOLB   NC2 8197  29.190  23.000  12.840
  342BOLB   PO2 8198  29.220  22.570  12.950
  342BOLB   GL3 8199  29.010  22.230  12.590
  342BOLB   GL4 8200  29.170  21.960  12.530
  342BOLB   C1C 8201  28.620  22.080  12.470
  342BOLB   C2C 8202  28.400  21.780  12.600
  342BOLB   C3C 8203  28.120  21.470  12.770
  342BOLB   C4C 8204  27.750  21.210  12.700
  342BOLB   C1D 8205  28.830  21.830  12.870
  342BOLB   C2D 8206  28.700  21.440  13.020
  342BOLB   C3D 8207  28.360  21.100  12.960
  342BOLB   C4D 8208  28.070  20.890  12.840
  343BOLB   NC1 8209  27.450  14.310  16.240
  343BOLB   PO1 8210  27.800  14.350  16.560
  343BOLB   GL1 8211  28.080  14.200  16.890
  343BOLB   GL2 8212  28.390  14.080  16.770
  343BOLB   C1A 8213  28.370  14.360  17.170
  343BOLB   C2A 8214  28.710  14.560  17.450
  343BOLB   C3A 8215  29.080  14.620  17.870
  343BOLB   C4A 8216  29.350  14.890  18.040
  343BOLB   C1B 8217  28.770  14.180  16.770
  343BOLB   C2B 8218  29.070  14.450  16.890
  343BOLB   C3B 8219  29.140  14.900  17.100
  343BOLB   C4B 8220  29.530  14.950  17.460
  343BOLB   NC2 8221  29.640  15.830  20.220
  343BOLB   PO2 8222  29.990  16.010  20.070
  343BOLB   GL3 8223  29.750  15.890  19.690
  343BOLB   GL4 8224  29.670  15.550  19.690
  343BOLB   C1C 8225  29.900  15.790  19.290
  343BOLB   C2C 8226  29.770  15.560  18.920
  343BOLB   C3C 8227  29.650  15.380  18.620
  343BOLB   C4C 8228  29.360  15.220  18.340
  343BOLB   C1D 8229  29.240  15.320  19.630
  343BOLB   C2D 8230  28.870  15.110  19.500
  343BOLB   C3D 8231  28.660  15.130  19.080
  343BOLB   C4D 8232  28.320  15.040  18.980
  344BOLB   NC1 8233  27.750  15.790  12.910
  344BOLB   PO1 8234  28.070  16.040  12.740
  344BOLB   GL1 8235  28.490  16.060  12.620
  344BOLB   GL2 8236  28.290  16.370  12.410
  344BOLB   C1A 8237  28.850  15.860  12.430
  344BOLB   C2A 8238  29.200  16.030  12.260
  344BOLB   C3A 8239  29.630  16.180  12.020
  344BOLB   C4A 8240  30.080  16.360  12.150
  344BOLB   C1B 8241  28.660  16.230  12.100
  344BOLB   C2B 8242  28.790  16.320  11.820
  344BOLB   C3B 8243  29.140  16.290  11.740
  344BOLB   C4B 8244  29.430  16.420  11.390
  344BOLB   NC2 8245  32.320  16.440  12.260
  344BOLB   PO2 8246  32.350  16.180  11.920
  344BOLB   GL3 8247  31.900  16.290  12.020
  344BOLB   GL4 8248  31.790  16.070  12.000
  344BOLB   C1C 8249  31.560  16.420  12.260
  344BOLB   C2C 8250  31.130  16.570  12.150
  344BOLB   C3C 8251  30.720  16.630  12.120
  344BOLB   C4C 8252  30.270  16.660  12.110
  344BOLB   C1D 8253  31.460  15.770  11.740
  344BOLB   C2D 8254  31.080  15.550  11.610
  344BOLB   C3D 8255  30.660  15.420  11.430
  344BOLB   C4D 8256  30.290  15.610  11.380
  345BOLB   NC1 8257  27.880  15.340  14.300
  345BOLB   PO1 8258  28.120  15.240  14.640
  345BOLB   GL1 8259  28.570  15.420  14.520
  345BOLB   GL2 8260  28.870  15.410  14.360
  345BOLB   C1A 8261  28.740  15.840  14.670
  345BOLB   C2A 8262  29.170  15.890  14.720
  345BOLB   C3A 8263  29.610  16.010  14.880
  345BOLB   C4A 8264  30.010  16.240  14.920
  345BOLB   C1B 8265  29.180  15.020  14.340
  345BOLB   C2B 8266  29.640  15.000  14.250
  345BOLB   C3B 8267  30.050  15.160  14.260
  345BOLB   C4B 8268  30.400  15.000  14.550
  345BOLB   NC2 8269  32.080  17.280  13.790
  345BOLB   PO2 8270  32.100  16.920  14.030
  345BOLB   GL3 8271  31.720  16.960  14.230
  345BOLB   GL4 8272  31.620  17.050  14.570
  345BOLB   C1C 8273  31.440  16.610  14.350
  345BOLB   C2C 8274  31.000  16.500  14.440
  345BOLB   C3C 8275  30.810  16.270  14.630
  345BOLB   C4C 8276  30.400  16.340  14.780
  345BOLB   C1D 8277  31.170  16.930  14.630
  345BOLB   C2D 8278  30.730  16.910  14.620
  345BOLB   C3D 8279  30.310  16.840  14.710
  345BOLB   C4D 8280  29.810  16.900  14.720
  346BOLB   NC1 8281  21.930   7.360  10.180
  346BOLB   PO1 8282  21.690   7.040  10.010
  346BOLB   GL1 8283  21.880   6.960   9.740
  346BOLB   GL2 8284  22.060   7.250   9.570
  346BOLB   C1A 8285  21.860   6.650   9.480
  346BOLB   C2A 8286  21.860   6.340   9.180
  346BOLB   C3A 8287  22.180   6.110   8.980
  346BOLB   C4A 8288  22.460   5.830   8.810
  346BOLB   C1B 8289  22.340   6.860   9.580
  346BOLB   C2B 8290  22.490   6.480   9.320
  346BOLB   C3B 8291  22.770   6.220   9.060
  346BOLB   C4B 8292  22.980   5.830   9.140
  346BOLB   NC2 8293  23.990   3.610   8.590
  346BOLB   PO2 8294  23.530   3.610   8.510
  346BOLB   GL3 8295  23.650   4.040   8.540
  346BOLB   GL4 8296  23.770   4.040   8.840
  346BOLB   C1C 8297  23.300   4.330   8.610
  346BOLB   C2C 8298  23.100   4.740   8.780
  346BOLB   C3C 8299  22.900   5.140   8.850
  346BOLB   C4C 8300  22.610   5.490   8.700
  346BOLB   C1D 8301  23.750   4.470   8.810
  346BOLB   C2D 8302  23.610   4.940   8.790
  346BOLB   C3D 8303  23.420   5.190   9.100
  346BOLB   C4D 8304  23.450   5.630   9.210
  347BOLB   NC1 8305  20.210  23.440  12.340
  347BOLB   PO1 8306  20.550  23.470  11.990
  347BOLB   GL1 8307  20.900  23.780  11.860
  347BOLB   GL2 8308  21.180  23.650  11.740
  347BOLB   C1A 8309  20.840  24.140  12.160
  347BOLB   C2A 8310  20.960  24.580  12.110
  347BOLB   C3A 8311  20.980  24.940  11.840
  347BOLB   C4A 8312  20.940  25.110  11.480
  347BOLB   C1B 8313  21.370  24.070  11.850
  347BOLB   C2B 8314  21.430  24.540  11.850
  347BOLB   C3B 8315  21.560  24.860  11.840
  347BOLB   C4B 8316  21.460  25.080  12.060
  347BOLB   NC2 8317  20.620  27.250  11.330
  347BOLB   PO2 8318  20.400  27.470  11.030
  347BOLB   GL3 8319  20.480  27.030  10.950
  347BOLB   GL4 8320  20.450  26.780  10.620
  347BOLB   C1C 8321  20.680  26.610  11.120
  347BOLB   C2C 8322  20.730  26.080  11.030
  347BOLB   C3C 8323  20.650  25.600  10.920
  347BOLB   C4C 8324  20.960  25.270  11.120
  347BOLB   C1D 8325  20.530  26.360  10.650
  347BOLB   C2D 8326  20.330  26.000  10.750
  347BOLB   C3D 8327  20.050  25.770  10.480
  347BOLB   C4D 8328  19.850  25.910  10.060
  348BOLB   NC1 8329  15.730  20.230  17.690
  348BOLB   PO1 8330  15.820  20.730  17.650
  348BOLB   GL1 8331  15.680  20.990  17.960
  348BOLB   GL2 8332  15.710  20.880  18.240
  348BOLB   C1A 8333  15.720  21.390  18.260
  348BOLB   C2A 8334  15.460  21.650  18.400
  348BOLB   C3A 8335  15.220  21.950  18.590
  348BOLB   C4A 8336  14.860  22.210  18.650
  348BOLB   C1B 8337  15.420  21.020  18.460
  348BOLB   C2B 8338  15.060  21.440  18.650
  348BOLB   C3B 8339  14.830  21.710  18.750
  348BOLB   C4B 8340  14.360  21.970  18.660
  348BOLB   NC2 8341  12.910  23.450  19.640
  348BOLB   PO2 8342  13.390  23.560  19.650
  348BOLB   GL3 8343  13.580  23.120  19.600
  348BOLB   GL4 8344  13.490  22.790  19.770
  348BOLB   C1C 8345  13.900  22.900  19.470
  348BOLB   C2C 8346  14.270  22.630  19.530
  348BOLB   C3C 8347  14.620  22.520  19.320
  348BOLB   C4C 8348  14.750  22.410  18.910
  348BOLB   C1D 8349  13.490  22.650  19.370
  348BOLB   C2D 8350  13.340  22.690  18.870
  348BOLB   C3D 8351  13.470  22.670  18.460
  348BOLB   C4D 8352  13.810  22.680  18.170
  349BOLB   NC1 8353  29.620   5.890  17.290
  349BOLB   PO1 8354  29.320   5.490  17.540
  349BOLB   GL1 8355  28.930   5.640  17.450
  349BOLB   GL2 8356  28.660   5.620  17.660
  349BOLB   C1A 8357  28.790   6.100  17.450
  349BOLB   C2A 8358  29.110   6.440  17.200
  349BOLB   C3A 8359  28.800   6.780  17.000
  349BOLB   C4A 8360  28.610   7.160  17.210
  349BOLB   C1B 8361  28.380   5.820  17.500
  349BOLB   C2B 8362  28.090   6.100  17.500
  349BOLB   C3B 8363  28.040   6.520  17.480
  349BOLB   C4B 8364  27.780   6.860  17.240
  349BOLB   NC2 8365  26.460   8.160  16.790
  349BOLB   PO2 8366  26.620   8.500  16.720
  349BOLB   GL3 8367  26.970   8.250  16.700
  349BOLB   GL4 8368  26.870   7.900  16.490
  349BOLB   C1C 8369  27.340   8.100  16.720
  349BOLB   C2C 8370  27.730   8.070  16.920
  349BOLB   C3C 8371  28.160   7.990  17.030
  349BOLB   C4C 8372  28.410   7.580  17.110
  349BOLB   C1D 8373  27.130   7.540  16.560
  349BOLB   C2D 8374  27.460   7.580  16.910
  349BOLB   C3D 8375  27.900   7.590  17.000
  349BOLB   C4D 8376  28.160   7.210  17.280
  350BOLB   NC1 8377  25.630  12.730  19.380
  350BOLB   PO1 8378  25.370  13.020  19.490
  350BOLB   GL1 8379  25.620  13.060  19.780
  350BOLB   GL2 8380  25.650  13.320  19.860
  350BOLB   C1A 8381  25.820  12.960  20.110
  350BOLB   C2A 8382  26.120  13.020  20.390
  350BOLB   C3A 8383  26.150  13.200  20.680
  350BOLB   C4A 8384  26.310  13.450  21.070
  350BOLB   C1B 8385  26.050  13.430  20.060
  350BOLB   C2B 8386  26.350  13.630  20.300
  350BOLB   C3B 8387  26.630  13.560  20.570
  350BOLB   C4B 8388  26.780  13.320  20.910
  350BOLB   NC2 8389  28.030  13.660  22.660
  350BOLB   PO2 8390  27.680  13.870  22.780
  350BOLB   GL3 8391  27.690  13.960  22.350
  350BOLB   GL4 8392  27.950  13.890  22.180
  350BOLB   C1C 8393  27.480  13.650  22.110
  350BOLB   C2C 8394  27.210  13.580  21.830
  350BOLB   C3C 8395  27.080  13.720  21.420
  350BOLB   C4C 8396  26.590  13.650  21.260
  350BOLB   C1D 8397  27.860  14.230  21.950
  350BOLB   C2D 8398  27.760  14.430  21.610
  350BOLB   C3D 8399  27.850  14.810  21.380
  350BOLB   C4D 8400  28.150  15.110  21.310
  351BOLB   NC1 8401  23.840  13.570  20.020
  351BOLB   PO1 8402  24.130  13.730  19.750
  351BOLB   GL1 8403  24.380  13.580  20.120
  351BOLB   GL2 8404  24.530  13.280  20.200
  351BOLB   C1A 8405  24.540  13.730  20.480
  351BOLB   C2A 8406  24.660  13.720  20.900
  351BOLB   C3A 8407  25.020  13.970  21.070
  351BOLB   C4A 8408  25.390  14.000  21.290
  351BOLB   C1B 8409  24.770  13.140  20.460
  351BOLB   C2B 8410  25.110  12.980  20.710
  351BOLB   C3B 8411  25.410  12.940  21.070
  351BOLB   C4B 8412  25.490  13.040  21.450
  351BOLB   NC2 8413  26.970  13.750  22.970
  351BOLB   PO2 8414  26.860  13.380  22.900
  351BOLB   GL3 8415  26.620  13.150  22.650
  351BOLB   GL4 8416  26.730  12.920  22.410
  351BOLB   C1C 8417  26.290  13.240  22.400
  351BOLB   C2C 8418  26.110  13.320  21.960
  351BOLB   C3C 8419  25.860  13.750  21.930
  351BOLB   C4C 8420  25.640  14.030  21.620
  351BOLB   C1D 8421  26.410  12.660  22.420
  351BOLB   C2D 8422  26.250  12.240  22.400
  351BOLB   C3D 8423  25.900  11.970  22.630
  351BOLB   C4D 8424  25.870  11.490  22.580
  352BOLB   NC1 8425  26.750   8.950  14.990
  352BOLB   PO1 8426  27.210   8.990  15.110
  352BOLB   GL1 8427  27.580   8.880  15.180
  352BOLB   GL2 8428  27.480   8.600  15.410
  352BOLB   C1A 8429  28.000   8.730  15.410
  352BOLB   C2A 8430  28.220   8.460  15.670
  352BOLB   C3A 8431  28.390   8.080  15.850
  352BOLB   C4A 8432  28.350   7.790  16.200
  352BOLB   C1B 8433  27.760   8.240  15.390
  352BOLB   C2B 8434  27.990   7.940  15.560
  352BOLB   C3B 8435  28.300   7.540  15.760
  352BOLB   C4B 8436  28.750   7.330  15.730
  352BOLB   NC2 8437  30.190   5.930  16.440
  352BOLB   PO2 8438  30.470   6.240  16.110
  352BOLB   GL3 8439  30.020   6.440  16.220
  352BOLB   GL4 8440  29.870   6.750  16.450
  352BOLB   C1C 8441  29.490   6.470  16.240
  352BOLB   C2C 8442  29.110   6.760  16.250
  352BOLB   C3C 8443  28.800   7.080  16.180
  352BOLB   C4C 8444  28.530   7.300  16.240
  352BOLB   C1D 8445  29.580   7.150  16.280
  352BOLB   C2D 8446  29.220   7.330  16.170
  352BOLB   C3D 8447  28.910   7.600  16.210
  352BOLB   C4D 8448  28.680   7.620  16.640
  353BOLB   NC1 8449  27.350  15.870  17.130
  353BOLB   PO1 8450  27.530  15.440  17.200
  353BOLB   GL1 8451  27.540  15.580  17.620
  353BOLB   GL2 8452  27.760  15.500  17.700
  353BOLB   C1A 8453  27.540  15.830  17.960
  353BOLB   C2A 8454  27.740  16.010  18.330
  353BOLB   C3A 8455  27.780  16.140  18.790
  353BOLB   C4A 8456  27.920  16.300  19.190
  353BOLB   C1B 8457  27.990  15.850  17.630
  353BOLB   C2B 8458  28.450  15.900  17.790
  353BOLB   C3B 8459  28.750  15.900  18.050
  353BOLB   C4B 8460  28.960  15.810  18.420
  353BOLB   NC2 8461  30.000  17.020  20.870
  353BOLB   PO2 8462  29.480  16.930  20.790
  353BOLB   GL3 8463  28.990  16.720  20.890
  353BOLB   GL4 8464  28.960  16.920  20.660
  353BOLB   C1C 8465  28.690  16.480  20.680
  353BOLB   C2C 8466  28.600  16.300  20.270
  353BOLB   C3C 8467  28.190  16.310  20.010
  353BOLB   C4C 8468  28.180  16.320  19.550
  353BOLB   C1D 8469  28.760  16.870  20.280
  353BOLB   C2D 8470  28.500  16.850  19.960
  353BOLB   C3D 8471  28.100  16.900  19.830
  353BOLB   C4D 8472  27.710  17.120  19.720
  354BOLB   NC1 8473  28.000  13.180  15.800
  354BOLB   PO1 8474  28.350  13.080  16.070
  354BOLB   GL1 8475  28.690  13.190  16.180
  354BOLB   GL2 8476  28.900  13.450  16.020
  354BOLB   C1A 8477  28.950  13.070  16.480
  354BOLB   C2A 8478  29.140  12.930  16.850
  354BOLB   C3A 8479  29.200  12.540  17.070
  354BOLB   C4A 8480  29.530  12.500  17.330
  354BOLB   C1B 8481  29.260  13.410  16.310
  354BOLB   C2B 8482  29.340  13.350  16.670
  354BOLB   C3B 8483  29.520  13.400  17.060
  354BOLB   C4B 8484  29.770  13.390  17.350
  354BOLB   NC2 8485  31.280  12.940  19.340
  354BOLB   PO2 8486  31.390  13.080  18.940
  354BOLB   GL3 8487  31.150  13.030  18.550
  354BOLB   GL4 8488  31.160  12.740  18.310
  354BOLB   C1C 8489  30.720  12.980  18.430
  354BOLB   C2C 8490  30.350  12.870  18.220
  354BOLB   C3C 8491  30.120  12.660  17.800
  354BOLB   C4C 8492  29.670  12.580  17.610
  354BOLB   C1D 8493  30.810  12.510  18.130
  354BOLB   C2D 8494  30.590  12.560  17.800
  354BOLB   C3D 8495  30.340  12.280  17.510
  354BOLB   C4D 8496  29.870  12.140  17.220
  355BOLB   NC1 8497  13.210  10.790  18.760
  355BOLB   PO1 8498  12.870  10.910  18.510
  355BOLB   GL1 8499  12.460  10.970  18.410
  355BOLB   GL2 8500  12.440  11.010  18.720
  355BOLB   C1A 8501  11.990  11.090  18.480
  355BOLB   C2A 8502  11.720  11.160  18.770
  355BOLB   C3A 8503  11.320  11.230  19.010
  355BOLB   C4A 8504  11.160  11.250  19.380
  355BOLB   C1B 8505  12.140  10.980  19.090
  355BOLB   C2B 8506  11.740  11.140  19.270
  355BOLB   C3B 8507  11.610  11.300  19.660
  355BOLB   C4B 8508  11.460  11.510  20.020
  355BOLB   NC2 8509   9.110  11.500  20.460
  355BOLB   PO2 8510   9.220  11.820  20.680
  355BOLB   GL3 8511   9.480  12.010  20.360
  355BOLB   GL4 8512   9.370  12.130  20.130
  355BOLB   C1C 8513   9.720  11.800  20.200
  355BOLB   C2C 8514  10.220  11.710  20.140
  355BOLB   C3C 8515  10.590  11.550  19.900
  355BOLB   C4C 8516  11.000  11.410  19.850
  355BOLB   C1D 8517   9.520  12.140  19.740
  355BOLB   C2D 8518   9.410  12.270  19.340
  355BOLB   C3D 8519   9.600  12.410  19.180
  355BOLB   C4D 8520   9.840  12.390  18.760
  356BOLB   NC1 8521  15.130  12.260  18.960
  356BOLB   PO1 8522  15.090  12.350  19.330
  356BOLB   GL1 8523  14.870  12.070  19.650
  356BOLB   GL2 8524  14.510  12.050  19.610
  356BOLB   C1A 8525  14.570  11.680  19.910
  356BOLB   C2A 8526  14.560  11.380  20.330
  356BOLB   C3A 8527  14.520  11.520  20.730
  356BOLB   C4A 8528  14.340  11.580  21.200
  356BOLB   C1B 8529  14.160  12.060  19.850
  356BOLB   C2B 8530  13.870  11.910  20.130
  356BOLB   C3B 8531  13.560  12.170  20.450
  356BOLB   C4B 8532  13.220  12.310  20.330
  356BOLB   NC2 8533  12.970  11.150  23.320
  356BOLB   PO2 8534  13.410  11.430  23.340
  356BOLB   GL3 8535  13.740  11.410  23.130
  356BOLB   GL4 8536  13.780  11.210  22.900
  356BOLB   C1C 8537  13.750  11.570  22.580
  356BOLB   C2C 8538  13.860  11.650  22.230
  356BOLB   C3C 8539  13.850  11.750  21.830
  356BOLB   C4C 8540  14.150  11.750  21.580
  356BOLB   C1D 8541  14.170  11.130  22.790
  356BOLB   C2D 8542  14.560  10.890  22.700
  356BOLB   C3D 8543  15.040  10.900  22.630
  356BOLB   C4D 8544  15.510  10.830  22.770
  357BOLB   NC1 8545  27.070  11.240  18.050
  357BOLB   PO1 8546  26.930  11.110  18.450
  357BOLB   GL1 8547  27.380  11.200  18.590
  357BOLB   GL2 8548  27.380  10.890  18.670
  357BOLB   C1A 8549  27.700  11.230  18.760
  357BOLB   C2A 8550  28.000  11.510  18.970
  357BOLB   C3A 8551  28.350  11.660  19.100
  357BOLB   C4A 8552  28.680  11.890  19.190
  357BOLB   C1B 8553  27.380  10.670  18.920
  357BOLB   C2B 8554  27.710  10.560  19.260
  357BOLB   C3B 8555  27.710  10.210  19.610
  357BOLB   C4B 8556  27.710   9.790  19.440
  357BOLB   NC2 8557  30.520  11.540  20.350
  357BOLB   PO2 8558  30.360  11.140  20.480
  357BOLB   GL3 8559  30.330  11.260  20.020
  357BOLB   GL4 8560  30.090  11.610  20.070
  357BOLB   C1C 8561  30.140  11.390  19.630
  357BOLB   C2C 8562  29.850  11.570  19.530
  357BOLB   C3C 8563  29.470  11.790  19.330
  357BOLB   C4C 8564  29.160  12.050  19.120
  357BOLB   C1D 8565  29.710  11.840  19.950
  357BOLB   C2D 8566  29.270  11.950  19.900
  357BOLB   C3D 8567  28.900  12.320  19.990
  357BOLB   C4D 8568  28.640  12.540  19.770
  358BOLB   NC1 8569  28.280   9.990  13.020
  358BOLB   PO1 8570  28.040   9.820  12.750
  358BOLB   GL1 8571  28.200   9.450  12.460
  358BOLB   GL2 8572  28.180   9.090  12.500
  358BOLB   C1A 8573  28.540   9.360  12.180
  358BOLB   C2A 8574  28.800   9.410  11.850
  358BOLB   C3A 8575  28.760   9.630  11.500
  358BOLB   C4A 8576  28.820   9.720  11.040
  358BOLB   C1B 8577  28.530   8.830  12.570
  358BOLB   C2B 8578  28.840   9.010  12.400
  358BOLB   C3B 8579  29.080   9.280  12.210
  358BOLB   C4B 8580  29.280   9.320  11.770
  358BOLB   NC2 8581  30.680   9.000  10.400
  358BOLB   PO2 8582  31.030   9.380  10.380
  358BOLB   GL3 8583  30.610   9.460  10.590
  358BOLB   GL4 8584  30.550   9.400  10.810
  358BOLB   C1C 8585  30.200   9.680  10.410
  358BOLB   C2C 8586  29.810   9.480  10.390
  358BOLB   C3C 8587  29.410   9.360  10.570
  358BOLB   C4C 8588  29.160   9.630  10.780
  358BOLB   C1D 8589  30.300   9.680  11.010
  358BOLB   C2D 8590  30.080  10.030  10.860
  358BOLB   C3D 8591  29.880  10.040  10.490
  358BOLB   C4D 8592  29.490   9.850  10.410
  359BOLB   NC1 8593  13.010   8.530  17.010
  359BOLB   PO1 8594  12.910   8.470  17.360
  359BOLB   GL1 8595  12.680   8.290  17.690
  359BOLB   GL2 8596  12.640   8.440  17.890
  359BOLB   C1A 8597  12.440   8.030  17.840
  359BOLB   C2A 8598  12.180   7.640  17.940
  359BOLB   C3A 8599  11.750   7.570  18.070
  359BOLB   C4A 8600  11.350   7.470  17.980
  359BOLB   C1B 8601  12.190   8.540  17.870
  359BOLB   C2B 8602  11.820   8.540  18.070
  359BOLB   C3B 8603  11.450   8.430  18.240
  359BOLB   C4B 8604  10.980   8.440  18.260
  359BOLB   NC2 8605   9.490   6.290  17.760
  359BOLB   PO2 8606   9.800   6.250  18.030
  359BOLB   GL3 8607   9.900   6.650  17.800
  359BOLB   GL4 8608  10.210   6.680  17.680
  359BOLB   C1C 8609  10.130   6.910  18.040
  359BOLB   C2C 8610  10.140   7.350  18.030
  359BOLB   C3C 8611  10.460   7.640  17.990
  359BOLB   C4C 8612  10.890   7.560  17.970
  359BOLB   C1D 8613  10.560   7.060  17.650
  359BOLB   C2D 8614  10.760   7.380  17.550
  359BOLB   C3D 8615  10.930   7.830  17.510
  359BOLB   C4D 8616  11.150   8.250  17.310
  360BOLB   NC1 8617  24.620  19.860  10.930
  360BOLB   PO1 8618  24.900  20.190  11.150
  360BOLB   GL1 8619  25.110  20.570  11.280
  360BOLB   GL2 8620  25.220  20.740  10.970
  360BOLB   C1A 8621  25.520  20.900  11.310
  360BOLB   C2A 8622  25.730  21.280  11.090
  360BOLB   C3A 8623  25.960  21.690  11.090
  360BOLB   C4A 8624  25.990  22.030  10.880
  360BOLB   C1B 8625  25.520  20.950  10.770
  360BOLB   C2B 8626  25.840  21.250  10.560
  360BOLB   C3B 8627  26.170  21.620  10.630
  360BOLB   C4B 8628  26.620  21.710  10.460
  360BOLB   NC2 8629  27.410  24.070  10.720
  360BOLB   PO2 8630  27.140  23.870  10.460
  360BOLB   GL3 8631  27.000  23.410  10.490
  360BOLB   GL4 8632  27.070  23.080  10.210
  360BOLB   C1C 8633  26.910  23.270  10.820
  360BOLB   C2C 8634  26.840  22.880  10.860
  360BOLB   C3C 8635  26.520  22.690  10.910
  360BOLB   C4C 8636  26.160  22.420  10.990
  360BOLB   C1D 8637  26.780  22.740  10.410
  360BOLB   C2D 8638  26.370  22.550  10.470
  360BOLB   C3D 8639  26.190  22.150  10.490
  360BOLB   C4D 8640  26.220  21.780  10.130
  361BOLB   NC1 8641  20.290   9.340  20.230
  361BOLB   PO1 8642  19.850   9.390  20.330
  361BOLB   GL1 8643  19.710   9.240  20.770
  361BOLB   GL2 8644  19.240   9.230  20.750
  361BOLB   C1A 8645  19.950   9.040  21.040
  361BOLB   C2A 8646  19.860   8.910  21.520
  361BOLB   C3A 8647  19.810   9.110  21.880
  361BOLB   C4A 8648  19.730   8.930  22.200
  361BOLB   C1B 8649  19.390   9.400  21.160
  361BOLB   C2B 8650  19.500   9.640  21.520
  361BOLB   C3B 8651  19.840   9.700  21.820
  361BOLB   C4B 8652  19.870   9.760  22.220
  361BOLB   NC2 8653  20.300   7.550  24.240
  361BOLB   PO2 8654  20.160   7.940  24.270
  361BOLB   GL3 8655  20.130   7.990  23.900
  361BOLB   GL4 8656  19.900   7.710  23.750
  361BOLB   C1C 8657  20.050   8.390  23.610
  361BOLB   C2C 8658  20.160   8.630  23.350
  361BOLB   C3C 8659  20.110   8.700  22.960
  361BOLB   C4C 8660  19.770   8.650  22.570
  361BOLB   C1D 8661  19.890   8.000  23.390
  361BOLB   C2D 8662  20.020   8.200  23.040
  361BOLB   C3D 8663  19.930   8.180  22.730
  361BOLB   C4D 8664  20.030   8.280  22.300
  362BOLB   NC1 8665  17.980  12.790  20.500
  362BOLB   PO1 8666  17.490  12.930  20.460
  362BOLB   GL1 8667  17.320  13.120  20.820
  362BOLB   GL2 8668  17.500  12.830  20.920
  362BOLB   C1A 8669  17.240  13.010  21.350
  362BOLB   C2A 8670  17.230  13.150  21.690
  362BOLB   C3A 8671  17.100  13.490  21.970
  362BOLB   C4A 8672  17.000  13.680  22.320
  362BOLB   C1B 8673  17.560  12.580  21.350
  362BOLB   C2B 8674  17.190  12.510  21.710
  362BOLB   C3B 8675  17.100  12.100  21.790
  362BOLB   C4B 8676  17.380  11.830  21.750
  362BOLB   NC2 8677  15.520  13.780  24.400
  362BOLB   PO2 8678  15.940  13.650  24.220
  362BOLB   GL3 8679  16.240  13.360  24.050
  362BOLB   GL4 8680  15.980  13.390  23.790
  362BOLB   C1C 8681  16.450  13.150  23.770
  362BOLB   C2C 8682  16.500  13.140  23.310
  362BOLB   C3C 8683  16.770  13.420  23.010
  362BOLB   C4C 8684  16.760  13.580  22.590
  362BOLB   C1D 8685  16.020  13.160  23.460
  362BOLB   C2D 8686  16.010  13.080  22.970
  362BOLB   C3D 8687  16.040  12.920  22.590
  362BOLB   C4D 8688  15.640  12.710  22.410
  363BOLB   NC1 8689  23.350   5.680  15.830
  363BOLB   PO1 8690  23.150   5.470  15.590
  363BOLB   GL1 8691  23.220   5.060  15.540
  363BOLB   GL2 8692  23.260   4.910  15.310
  363BOLB   C1A 8693  23.250   4.530  15.570
  363BOLB   C2A 8694  23.110   4.300  15.830
  363BOLB   C3A 8695  23.130   3.920  15.870
  363BOLB   C4A 8696  22.810   3.560  16.020
  363BOLB   C1B 8697  23.690   4.600  15.330
  363BOLB   C2B 8698  24.030   4.400  15.120
  363BOLB   C3B 8699  24.170   4.090  14.880
  363BOLB   C4B 8700  23.820   3.730  14.820
  363BOLB   NC2 8701  22.090   1.050  15.230
  363BOLB   PO2 8702  22.490   1.140  15.250
  363BOLB   GL3 8703  22.630   1.640  15.290
  363BOLB   GL4 8704  22.260   1.570  15.380
  363BOLB   C1C 8705  22.680   2.050  15.460
  363BOLB   C2C 8706  22.680   2.510  15.560
  363BOLB   C3C 8707  22.760   2.960  15.520
  363BOLB   C4C 8708  22.650   3.230  15.780
  363BOLB   C1D 8709  22.100   1.940  15.100
  363BOLB   C2D 8710  22.380   2.330  15.160
  363BOLB   C3D 8711  22.440   2.760  15.110
  363BOLB   C4D 8712  22.660   2.890  14.730
  364BOLB   NC1 8713  26.810  11.970  17.680
  364BOLB   PO1 8714  26.910  11.640  17.750
  364BOLB   GL1 8715  27.190  11.740  18.130
  364BOLB   GL2 8716  27.480  11.510  18.140
  364BOLB   C1A 8717  27.390  11.700  18.610
  364BOLB   C2A 8718  27.500  11.670  19.110
  364BOLB   C3A 8719  27.730  11.470  19.450
  364BOLB   C4A 8720  28.060  11.160  19.400
  364BOLB   C1B 8721  27.810  11.510  18.380
  364BOLB   C2B 8722  28.280  11.480  18.440
  364BOLB   C3B 8723  28.590  11.320  18.670
  364BOLB   C4B 8724  29.000  11.270  18.770
  364BOLB   NC2 8725  29.730  10.660  20.730
  364BOLB   PO2 8726  29.510  10.950  20.890
  364BOLB   GL3 8727  29.340  11.050  20.500
  364BOLB   GL4 8728  29.130  11.260  20.550
  364BOLB   C1C 8729  29.320  11.020  20.070
  364BOLB   C2C 8730  28.990  10.740  19.850
  364BOLB   C3C 8731  28.610  10.780  19.730
  364BOLB   C4C 8732  28.440  10.990  19.490
  364BOLB   C1D 8733  28.720  11.370  20.410
  364BOLB   C2D 8734  28.380  11.610  20.430
  364BOLB   C3D 8735  28.300  12.040  20.560
  364BOLB   C4D 8736  28.100  12.530  20.560
  365BOLB   NC1 8737  27.860  15.590  15.490
  365BOLB   PO1 8738  28.230  15.820  15.650
  365BOLB   GL1 8739  28.550  15.990  15.480
  365BOLB   GL2 8740  28.470  16.010  15.180
  365BOLB   C1A 8741  28.810  16.270  15.570
  365BOLB   C2A 8742  29.180  16.410  15.820
  365BOLB   C3A 8743  29.450  16.500  16.170
  365BOLB   C4A 8744  29.660  16.860  16.360
  365BOLB   C1B 8745  28.880  16.200  15.000
  365BOLB   C2B 8746  29.180  16.330  14.920
  365BOLB   C3B 8747  29.570  16.470  15.050
  365BOLB   C4B 8748  29.930  16.650  15.170
  365BOLB   NC2 8749  30.910  17.520  18.270
  365BOLB   PO2 8750  31.130  17.630  17.940
  365BOLB   GL3 8751  30.680  17.510  17.810
  365BOLB   GL4 8752  30.620  17.830  17.690
  365BOLB   C1C 8753  30.390  17.350  17.650
  365BOLB   C2C 8754  29.990  17.380  17.490
  365BOLB   C3C 8755  29.700  17.190  17.140
  365BOLB   C4C 8756  29.800  16.950  16.770
  365BOLB   C1D 8757  30.200  18.000  17.620
  365BOLB   C2D 8758  29.800  17.840  17.420
  365BOLB   C3D 8759  29.410  17.520  17.510
  365BOLB   C4D 8760  29.190  17.310  17.900
  366BOLB   NC1 8761  14.300   6.550  15.370
  366BOLB   PO1 8762  14.610   6.230  15.510
  366BOLB   GL1 8763  14.400   5.840  15.580
  366BOLB   GL2 8764  14.080   5.750  15.420
  366BOLB   C1A 8765  14.370   5.580  16.000
  366BOLB   C2A 8766  14.150   5.330  16.090
  366BOLB   C3A 8767  13.870   5.300  16.490
  366BOLB   C4A 8768  13.520   5.060  16.600
  366BOLB   C1B 8769  13.930   5.440  15.690
  366BOLB   C2B 8770  13.630   5.310  16.050
  366BOLB   C3B 8771  13.300   5.140  16.160
  366BOLB   C4B 8772  12.840   4.830  16.230
  366BOLB   NC2 8773  12.220   3.160  16.090
  366BOLB   PO2 8774  12.570   2.870  16.200
  366BOLB   GL3 8775  12.840   3.260  16.190
  366BOLB   GL4 8776  12.980   3.380  15.840
  366BOLB   C1C 8777  13.080   3.480  16.480
  366BOLB   C2C 8778  13.180   3.850  16.600
  366BOLB   C3C 8779  13.290   4.210  16.680
  366BOLB   C4C 8780  13.260   4.690  16.690
  366BOLB   C1D 8781  13.160   3.800  15.730
  366BOLB   C2D 8782  13.490   4.120  15.720
  366BOLB   C3D 8783  13.540   4.600  15.520
  366BOLB   C4D 8784  13.890   4.860  15.180
  367BOLB   NC1 8785  24.370  17.230  18.410
  367BOLB   PO1 8786  24.430  16.960  18.810
  367BOLB   GL1 8787  24.700  17.160  19.210
  367BOLB   GL2 8788  24.880  17.450  19.090
  367BOLB   C1A 8789  24.870  17.190  19.610
  367BOLB   C2A 8790  25.180  17.310  19.920
  367BOLB   C3A 8791  25.120  17.570  20.300
  367BOLB   C4A 8792  25.380  17.580  20.770
  367BOLB   C1B 8793  25.200  17.640  19.220
  367BOLB   C2B 8794  25.460  17.560  19.620
  367BOLB   C3B 8795  25.590  17.730  20.000
  367BOLB   C4B 8796  25.680  17.880  20.410
  367BOLB   NC2 8797  26.110  17.490  22.940
  367BOLB   PO2 8798  26.510  17.610  22.710
  367BOLB   GL3 8799  26.560  17.490  22.360
  367BOLB   GL4 8800  26.950  17.500  22.400
  367BOLB   C1C 8801  26.400  17.280  22.080
  367BOLB   C2C 8802  26.060  17.360  21.880
  367BOLB   C3C 8803  25.830  17.640  21.470
  367BOLB   C4C 8804  25.680  17.600  21.090
  367BOLB   C1D 8805  26.830  17.590  21.860
  367BOLB   C2D 8806  26.820  17.360  21.540
  367BOLB   C3D 8807  26.660  17.220  21.120
  367BOLB   C4D 8808  26.380  17.120  20.770
  368BOLB   NC1 8809  12.700  21.500  14.280
  368BOLB   PO1 8810  13.080  21.740  14.330
  368BOLB   GL1 8811  12.730  22.000  14.450
  368BOLB   GL2 8812  12.420  22.040  14.310
  368BOLB   C1A 8813  12.760  22.450  14.470
  368BOLB   C2A 8814  12.520  22.780  14.550
  368BOLB   C3A 8815  12.160  22.990  14.450
  368BOLB   C4A 8816  11.650  23.020  14.380
  368BOLB   C1B 8817  12.230  22.430  14.370
  368BOLB   C2B 8818  12.060  22.710  14.060
  368BOLB   C3B 8819  12.010  23.200  14.010
  368BOLB   C4B 8820  12.030  23.650  14.250
  368BOLB   NC2 8821  10.410  24.890  14.470
  368BOLB   PO2 8822  10.230  24.460  14.400
  368BOLB   GL3 8823  10.320  24.180  14.070
  368BOLB   GL4 8824  10.320  23.840  14.100
  368BOLB   C1C 8825  10.700  24.110  13.940
  368BOLB   C2C 8826  11.070  23.900  13.850
  368BOLB   C3C 8827  11.280  23.510  13.820
  368BOLB   C4C 8828  11.330  23.150  14.090
  368BOLB   C1D 8829  10.700  23.640  14.120
  368BOLB   C2D 8830  11.040  23.610  14.320
  368BOLB   C3D 8831  11.170  23.370  14.590
  368BOLB   C4D 8832  10.880  23.140  14.910
  369BOLB   NC1 8833  22.430  15.270  19.830
  369BOLB   PO1 8834  22.180  15.480  20.120
  369BOLB   GL1 8835  22.020  15.580  20.530
  369BOLB   GL2 8836  21.780  15.770  20.750
  369BOLB   C1A 8837  22.250  15.560  20.960
  369BOLB   C2A 8838  22.320  15.570  21.400
  369BOLB   C3A 8839  22.350  15.510  21.830
  369BOLB   C4A 8840  22.150  15.610  22.190
  369BOLB   C1B 8841  21.590  15.850  21.160
  369BOLB   C2B 8842  21.460  15.770  21.490
  369BOLB   C3B 8843  21.630  15.940  21.790
  369BOLB   C4B 8844  21.930  16.000  22.110
  369BOLB   NC2 8845  21.130  16.440  24.250
  369BOLB   PO2 8846  21.280  16.040  24.350
  369BOLB   GL3 8847  21.080  15.780  24.030
  369BOLB   GL4 8848  20.840  15.750  23.980
  369BOLB   C1C 8849  21.370  15.470  23.840
  369BOLB   C2C 8850  21.690  15.410  23.610
  369BOLB   C3C 8851  21.740  15.500  23.100
  369BOLB   C4C 8852  21.900  15.600  22.650
  369BOLB   C1D 8853  20.990  15.620  23.560
  369BOLB   C2D 8854  21.230  15.440  23.240
  369BOLB   C3D 8855  21.020  15.130  22.890
  369BOLB   C4D 8856  20.760  14.900  22.670
  370BOLB   NC1 8857  16.350   7.140  18.300
  370BOLB   PO1 8858  15.960   6.870  18.480
  370BOLB   GL1 8859  15.600   6.590  18.580
  370BOLB   GL2 8860  15.370   6.660  18.750
  370BOLB   C1A 8861  15.510   6.180  18.740
  370BOLB   C2A 8862  15.440   6.220  19.150
  370BOLB   C3A 8863  15.420   6.150  19.500
  370BOLB   C4A 8864  15.300   6.230  19.840
  370BOLB   C1B 8865  15.070   6.360  18.860
  370BOLB   C2B 8866  14.980   6.080  19.270
  370BOLB   C3B 8867  15.090   5.740  19.480
  370BOLB   C4B 8868  15.400   5.420  19.340
  370BOLB   NC2 8869  15.330   5.340  22.250
  370BOLB   PO2 8870  15.420   5.840  22.380
  370BOLB   GL3 8871  15.470   6.210  22.080
  370BOLB   GL4 8872  15.700   6.490  22.100
  370BOLB   C1C 8873  15.370   6.260  21.700
  370BOLB   C2C 8874  15.290   6.070  21.250
  370BOLB   C3C 8875  15.390   6.040  20.790
  370BOLB   C4C 8876  15.390   6.040  20.240
  370BOLB   C1D 8877  16.130   6.610  22.030
  370BOLB   C2D 8878  16.550   6.460  21.730
  370BOLB   C3D 8879  16.830   6.070  21.690
  370BOLB   C4D 8880  17.310   5.930  21.780
  371BOLB   NC1 8881  18.230  12.040  20.430
  371BOLB   PO1 8882  18.340  11.740  20.690
  371BOLB   GL1 8883  18.380  11.700  21.110
  371BOLB   GL2 8884  18.190  11.420  21.250
  371BOLB   C1A 8885  18.470  11.710  21.510
  371BOLB   C2A 8886  18.410  11.580  21.860
  371BOLB   C3A 8887  18.230  11.520  22.230
  371BOLB   C4A 8888  17.890  11.340  22.360
  371BOLB   C1B 8889  17.920  11.650  21.540
  371BOLB   C2B 8890  17.800  11.700  21.990
  371BOLB   C3B 8891  17.630  11.820  22.230
  371BOLB   C4B 8892  17.530  11.620  22.630
  371BOLB   NC2 8893  16.730  10.300  25.050
  371BOLB   PO2 8894  16.910  10.250  24.580
  371BOLB   GL3 8895  17.150  10.250  24.250
  371BOLB   GL4 8896  17.070  10.000  24.020
  371BOLB   C1C 8897  17.470  10.320  23.880
  371BOLB   C2C 8898  17.560  10.490  23.540
  371BOLB   C3C 8899  17.650  10.860  23.190
  371BOLB   C4C 8900  17.700  11.140  22.730
  371BOLB   C1D 8901  17.160  10.090  23.520
  371BOLB   C2D 8902  17.160  10.140  23.120
  371BOLB   C3D 8903  17.400  10.470  23.010
  371BOLB   C4D 8904  17.250  10.910  22.930
  372BOLB   NC1 8905  12.980  17.200  17.640
  372BOLB   PO1 8906  12.530  17.130  17.670
  372BOLB   GL1 8907  12.410  16.930  17.950
  372BOLB   GL2 8908  12.640  16.980  18.150
  372BOLB   C1A 8909  12.250  16.780  18.390
  372BOLB   C2A 8910  12.040  16.690  18.800
  372BOLB   C3A 8911  11.980  16.690  19.240
  372BOLB   C4A 8912  11.670  16.890  19.640
  372BOLB   C1B 8913  12.390  17.440  18.330
  372BOLB   C2B 8914  12.230  17.640  18.650
  372BOLB   C3B 8915  11.940  17.780  18.890
  372BOLB   C4B 8916  11.990  18.170  19.050
  372BOLB   NC2 8917  10.280  18.520  20.750
  372BOLB   PO2 8918  10.720  18.660  20.790
  372BOLB   GL3 8919  11.120  18.540  20.670
  372BOLB   GL4 8920  11.170  18.720  20.280
  372BOLB   C1C 8921  11.190  18.100  20.570
  372BOLB   C2C 8922  11.270  17.730  20.330
  372BOLB   C3C 8923  11.130  17.430  19.970
  372BOLB   C4C 8924  11.270  17.050  19.790
  372BOLB   C1D 8925  11.090  18.370  20.030
  372BOLB   C2D 8926  11.340  18.090  19.870
  372BOLB   C3D 8927  11.580  17.730  19.840
  372BOLB   C4D 8928  11.620  17.380  19.620
  373BOLB   NC1 8929  26.860  18.970  14.820
  373BOLB   PO1 8930  26.820  18.610  14.650
  373BOLB   GL1 8931  27.260  18.840  14.590
  373BOLB   GL2 8932  27.290  19.030  14.320
  373BOLB   C1A 8933  27.480  19.240  14.750
  373BOLB   C2A 8934  27.780  19.640  14.720
  373BOLB   C3A 8935  28.010  19.830  15.070
  373BOLB   C4A 8936  28.290  20.010  15.420
  373BOLB   C1B 8937  27.700  19.220  14.270
  373BOLB   C2B 8938  28.160  19.350  14.330
  373BOLB   C3B 8939  28.530  19.490  14.300
  373BOLB   C4B 8940  28.750  19.420  13.900
  373BOLB   NC2 8941  30.210  20.750  16.930
  373BOLB   PO2 8942  29.990  20.470  16.600
  373BOLB   GL3 8943  29.510  20.650  16.580
  373BOLB   GL4 8944  29.210  20.590  16.570
  373BOLB   C1C 8945  29.410  20.510  16.130
  373BOLB   C2C 8946  29.420  20.450  15.630
  373BOLB   C3C 8947  29.020  20.390  15.510
  373BOLB   C4C 8948  28.650  20.270  15.540
  373BOLB   C1D 8949  29.130  20.180  16.460
  373BOLB   C2D 8950  28.930  19.750  16.270
  373BOLB   C3D 8951  28.710  19.480  16.110
  373BOLB   C4D 8952  28.300  19.240  15.990
  374BOLB   NC1 8953  28.900  12.680  15.280
  374BOLB   PO1 8954  28.570  12.780  15.500
  374BOLB   GL1 8955  28.890  12.900  15.850
  374BOLB   GL2 8956  29.120  12.990  15.640
  374BOLB   C1A 8957  29.190  12.920  16.100
  374BOLB   C2A 8958  29.530  12.980  16.360
  374BOLB   C3A 8959  29.790  13.110  16.650
  374BOLB   C4A 8960  30.050  13.000  17.040
  374BOLB   C1B 8961  29.380  13.260  15.820
  374BOLB   C2B 8962  29.740  13.400  16.180
  374BOLB   C3B 8963  30.020  13.470  16.290
  374BOLB   C4B 8964  30.340  13.250  16.510
  374BOLB   NC2 8965  31.770  13.910  18.760
  374BOLB   PO2 8966  31.720  14.310  18.320
  374BOLB   GL3 8967  31.350  14.240  18.150
  374BOLB   GL4 8968  31.160  14.430  18.110
  374BOLB   C1C 8969  31.240  13.920  17.740
  374BOLB   C2C 8970  30.880  13.790  17.410
  374BOLB   C3C 8971  30.610  13.550  17.190
  374BOLB   C4C 8972  30.290  13.290  17.210
  374BOLB   C1D 8973  30.770  14.590  17.970
  374BOLB   C2D 8974  30.550  14.940  17.850
  374BOLB   C3D 8975  30.200  15.140  17.550
  374BOLB   C4D 8976  29.960  15.090  17.170
  375BOLB   NC1 8977  26.010   8.200  12.480
  375BOLB   PO1 8978  25.730   7.880  12.500
  375BOLB   GL1 8979  25.790   7.520  12.190
  375BOLB   GL2 8980  26.000   7.710  12.060
  375BOLB   C1A 8981  26.050   7.210  12.200
  375BOLB   C2A 8982  26.390   7.070  11.930
  375BOLB   C3A 8983  26.660   6.710  11.890
  375BOLB   C4A 8984  27.000   6.590  11.630
  375BOLB   C1B 8985  26.390   7.730  11.800
  375BOLB   C2B 8986  26.470   7.600  11.340
  375BOLB   C3B 8987  26.540   7.130  11.200
  375BOLB   C4B 8988  26.510   6.780  11.400
  375BOLB   NC2 8989  28.810   5.290  10.260
  375BOLB   PO2 8990  28.670   5.620  10.190
  375BOLB   GL3 8991  28.430   6.050  10.280
  375BOLB   GL4 8992  28.390   6.330   9.990
  375BOLB   C1C 8993  28.190   6.400  10.510
  375BOLB   C2C 8994  27.950   6.460  10.710
  375BOLB   C3C 8995  27.490   6.440  10.850
  375BOLB   C4C 8996  27.140   6.500  11.130
  375BOLB   C1D 8997  28.030   6.690  10.100
  375BOLB   C2D 8998  27.840   6.860  10.400
  375BOLB   C3D 8999  27.720   6.900  10.750
  375BOLB   C4D 9000  27.460   7.180  11.090
  376BOLB   NC1 9001   7.250  19.710  12.020
  376BOLB   PO1 9002   7.510  19.900  12.350
  376BOLB   GL1 9003   7.870  19.600  12.460
  376BOLB   GL2 9004   7.910  19.410  12.740
  376BOLB   C1A 9005   8.390  19.550  12.320
  376BOLB   C2A 9006   8.730  19.830  12.280
  376BOLB   C3A 9007   9.040  20.030  12.530
  376BOLB   C4A 9008   9.170  20.270  12.830
  376BOLB   C1B 9009   8.250  19.170  12.640
  376BOLB   C2B 9010   8.530  18.820  12.600
  376BOLB   C3B 9011   8.840  18.370  12.500
  376BOLB   C4B 9012   9.020  17.890  12.440
  376BOLB   NC2 9013   7.880  21.740  14.570
  376BOLB   PO2 9014   8.210  21.650  14.530
  376BOLB   GL3 9015   8.660  21.410  14.440
  376BOLB   GL4 9016   8.990  21.600  14.380
  376BOLB   C1C 9017   8.920  21.090  14.200
  376BOLB   C2C 9018   9.030  20.840  13.890
  376BOLB   C3C 9019   9.100  20.600  13.520
  376BOLB   C4C 9020   9.310  20.490  13.150
  376BOLB   C1D 9021   9.420  21.350  14.650
  376BOLB   C2D 9022   9.810  21.110  14.570
  376BOLB   C3D 9023  10.130  21.020  14.490
  376BOLB   C4D 9024  10.370  20.880  14.090
  377BOLB   NC1 9025  24.610  20.830  14.540
  377BOLB   PO1 9026  25.060  20.810  14.900
  377BOLB   GL1 9027  25.320  21.250  14.740
  377BOLB   GL2 9028  25.250  21.580  14.810
  377BOLB   C1A 9029  25.630  21.470  14.540
  377BOLB   C2A 9030  26.040  21.570  14.550
  377BOLB   C3A 9031  26.310  21.850  14.790
  377BOLB   C4A 9032  26.610  21.970  14.880
  377BOLB   C1B 9033  25.530  21.950  14.700
  377BOLB   C2B 9034  25.740  22.300  14.530
  377BOLB   C3B 9035  25.940  22.680  14.340
  377BOLB   C4B 9036  26.210  22.940  14.050
  377BOLB   NC2 9037  28.130  22.920  16.550
  377BOLB   PO2 9038  28.120  23.120  16.140
  377BOLB   GL3 9039  27.700  22.950  16.230
  377BOLB   GL4 9040  27.850  22.620  16.290
  377BOLB   C1C 9041  27.570  22.600  15.900
  377BOLB   C2C 9042  27.170  22.520  15.680
  377BOLB   C3C 9043  27.080  22.320  15.280
  377BOLB   C4C 9044  26.860  22.120  15.070
  377BOLB   C1D 9045  27.580  22.250  16.460
  377BOLB   C2D 9046  27.340  21.940  16.750
  377BOLB   C3D 9047  27.240  21.720  17.180
  377BOLB   C4D 9048  26.830  21.780  17.390
  378BOLB   NC1 9049  13.810  11.200  18.140
  378BOLB   PO1 9050  13.560  11.570  18.390
  378BOLB   GL1 9051  13.220  11.590  18.730
  378BOLB   GL2 9052  13.030  11.280  18.780
  378BOLB   C1A 9053  13.230  11.730  19.100
  378BOLB   C2A 9054  13.140  11.620  19.400
  378BOLB   C3A 9055  12.870  11.690  19.750
  378BOLB   C4A 9056  12.850  11.700  20.160
  378BOLB   C1B 9057  12.650  11.120  19.140
  378BOLB   C2B 9058  12.350  11.300  19.440
  378BOLB   C3B 9059  12.130  11.120  19.730
  378BOLB   C4B 9060  11.960  10.750  19.570
  378BOLB   NC2 9061  12.480  11.960  22.810
  378BOLB   PO2 9062  12.800  11.780  22.610
  378BOLB   GL3 9063  13.020  11.980  22.340
  378BOLB   GL4 9064  13.250  11.790  22.480
  378BOLB   C1C 9065  13.080  12.180  21.960
  378BOLB   C2C 9066  13.080  12.250  21.470
  378BOLB   C3C 9067  12.890  12.150  21.070
  378BOLB   C4C 9068  12.810  12.020  20.570
  378BOLB   C1D 9069  13.430  11.860  22.090
  378BOLB   C2D 9070  13.520  12.110  21.720
  378BOLB   C3D 9071  13.570  12.240  21.230
  378BOLB   C4D 9072  13.840  12.350  20.920
  379BOLB   NC1 9073  19.440   9.000  19.630
  379BOLB   PO1 9074  19.090   8.920  19.930
  379BOLB   GL1 9075  19.080   8.840  20.360
  379BOLB   GL2 9076  18.950   8.500  20.420
  379BOLB   C1A 9077  19.070   8.720  20.820
  379BOLB   C2A 9078  19.260   8.940  21.210
  379BOLB   C3A 9079  19.310   9.020  21.680
  379BOLB   C4A 9080  19.060   8.960  21.990
  379BOLB   C1B 9081  18.850   8.290  20.820
  379BOLB   C2B 9082  18.810   7.970  21.170
  379BOLB   C3B 9083  19.120   7.940  21.460
  379BOLB   C4B 9084  19.390   8.090  21.790
  379BOLB   NC2 9085  18.550   8.420  24.110
  379BOLB   PO2 9086  18.410   8.820  24.330
  379BOLB   GL3 9087  18.620   8.940  23.890
  379BOLB   GL4 9088  18.470   8.660  23.640
  379BOLB   C1C 9089  18.800   8.920  23.390
  379BOLB   C2C 9090  18.830   9.130  23.000
  379BOLB   C3C 9091  18.860   9.180  22.640
  379BOLB   C4C 9092  18.670   9.040  22.250
  379BOLB   C1D 9093  18.610   8.510  23.280
  379BOLB   C2D 9094  18.870   8.170  23.120
  379BOLB   C3D 9095  18.950   8.140  22.630
  379BOLB   C4D 9096  19.120   7.990  22.250
  380BOLB   NC1 9097  27.500  13.950  11.530
  380BOLB   PO1 9098  27.770  14.090  11.350
  380BOLB   GL1 9099  28.110  14.230  11.130
  380BOLB   GL2 9100  28.080  14.550  10.960
  380BOLB   C1A 9101  28.350  14.090  10.760
  380BOLB   C2A 9102  28.850  14.210  10.600
  380BOLB   C3A 9103  28.980  14.160  10.210
  380BOLB   C4A 9104  29.320  14.190   9.940
  380BOLB   C1B 9105  28.480  14.620  10.680
  380BOLB   C2B 9106  28.860  14.680  10.510
  380BOLB   C3B 9107  29.000  14.670  10.090
  380BOLB   C4B 9108  29.070  14.610   9.700
  380BOLB   NC2 9109  32.030  13.750   9.370
  380BOLB   PO2 9110  31.660  13.710   9.280
  380BOLB   GL3 9111  31.320  13.700   9.620
  380BOLB   GL4 9112  31.260  13.380   9.420
  380BOLB   C1C 9113  30.840  13.800   9.810
  380BOLB   C2C 9114  30.490  13.740   9.940
  380BOLB   C3C 9115  30.230  14.080  10.000
  380BOLB   C4C 9116  29.750  14.130   9.870
  380BOLB   C1D 9117  30.900  13.260   9.690
  380BOLB   C2D 9118  30.740  13.310  10.110
  380BOLB   C3D 9119  30.360  13.300  10.200
  380BOLB   C4D 9120  29.960  13.370  10.470
  381BOLB   NC1 9121  13.330  18.000  18.110
  381BOLB   PO1 9122  13.420  18.450  17.820
  381BOLB   GL1 9123  13.510  18.560  18.310
  381BOLB   GL2 9124  13.610  18.980  18.480
  381BOLB   C1A 9125  13.470  18.510  18.680
  381BOLB   C2A 9126  13.520  18.560  19.110
  381BOLB   C3A 9127  13.420  18.390  19.440
  381BOLB   C4A 9128  13.260  18.360  19.830
  381BOLB   C1B 9129  13.560  19.030  18.970
  381BOLB   C2B 9130  13.590  18.940  19.410
  381BOLB   C3B 9131  13.280  18.910  19.740
  381BOLB   C4B 9132  13.020  18.740  20.040
  381BOLB   NC2 9133  12.360  20.070  21.680
  381BOLB   PO2 9134  12.350  19.630  21.510
  381BOLB   GL3 9135  12.690  19.390  21.480
  381BOLB   GL4 9136  13.000  19.410  21.510
  381BOLB   C1C 9137  12.660  19.160  21.130
  381BOLB   C2C 9138  12.790  18.850  20.840
  381BOLB   C3C 9139  12.950  18.470  20.650
  381BOLB   C4C 9140  13.020  18.210  20.270
  381BOLB   C1D 9141  13.020  19.570  20.990
  381BOLB   C2D 9142  13.060  19.320  20.690
  381BOLB   C3D 9143  12.910  19.180  20.350
  381BOLB   C4D 9144  12.680  18.830  20.370
  382BOLB   NC1 9145  20.230   6.470  17.890
  382BOLB   PO1 9146  20.550   6.330  18.200
  382BOLB   GL1 9147  20.490   6.080  18.650
  382BOLB   GL2 9148  20.510   6.250  19.020
  382BOLB   C1A 9149  20.460   5.790  18.950
  382BOLB   C2A 9150  20.430   5.310  19.090
  382BOLB   C3A 9151  20.230   5.070  19.470
  382BOLB   C4A 9152  20.000   4.870  19.740
  382BOLB   C1B 9153  20.970   6.040  18.910
  382BOLB   C2B 9154  21.200   5.840  19.270
  382BOLB   C3B 9155  21.100   5.790  19.680
  382BOLB   C4B 9156  21.000   5.850  20.010
  382BOLB   NC2 9157  18.690   6.000  17.840
  382BOLB   PO2 9158  18.990   5.700  17.990
  382BOLB   GL3 9159  18.840   5.410  18.320
  382BOLB   GL4 9160  18.960   5.130  18.320
  382BOLB   C1C 9161  18.870   5.220  18.800
  382BOLB   C2C 9162  19.000   4.930  19.130
  382BOLB   C3C 9163  19.330   4.650  19.510
  382BOLB   C4C 9164  19.660   4.650  19.770
  382BOLB   C1D 9165  19.260   4.960  18.510
  382BOLB   C2D 9166  19.470   4.490  18.470
  382BOLB   C3D 9167  19.210   4.120  18.550
  382BOLB   C4D 9168  18.870   4.100  18.860
  383BOLB   NC1 9169  23.460  18.620  18.700
  383BOLB   PO1 9170  23.120  18.590  19.020
  383BOLB   GL1 9171  23.400  18.610  19.320
  383BOLB   GL2 9172  23.710  18.720  19.100
  383BOLB   C1A 9173  23.510  18.720  19.750
  383BOLB   C2A 9174  23.720  19.100  19.960
  383BOLB   C3A 9175  23.620  19.430  20.210
  383BOLB   C4A 9176  23.770  19.540  20.570
  383BOLB   C1B 9177  23.730  19.080  19.440
  383BOLB   C2B 9178  23.990  19.400  19.540
  383BOLB   C3B 9179  24.340  19.580  19.930
  383BOLB   C4B 9180  24.750  19.720  20.140
  383BOLB   NC2 9181  24.090  19.450  22.980
  383BOLB   PO2 9182  24.280  19.810  22.920
  383BOLB   GL3 9183  24.180  19.840  22.480
  383BOLB   GL4 9184  23.970  19.680  22.420
  383BOLB   C1C 9185  24.420  19.940  22.100
  383BOLB   C2C 9186  24.380  19.890  21.640
  383BOLB   C3C 9187  24.140  19.960  21.240
  383BOLB   C4C 9188  23.960  19.830  20.900
  383BOLB   C1D 9189  24.030  19.570  22.050
  383BOLB   C2D 9190  24.180  19.380  21.620
  383BOLB   C3D 9191  24.120  19.340  21.140
  383BOLB   C4D 9192  24.230  19.350  20.680
  384BOLB   NC1 9193  18.450  22.280  16.560
  384BOLB   PO1 9194  18.650  22.510  16.740
  384BOLB   GL1 9195  18.580  22.870  16.740
  384BOLB   GL2 9196  18.520  23.090  16.480
  384BOLB   C1A 9197  18.440  23.260  17.010
  384BOLB   C2A 9198  18.400  23.440  17.480
  384BOLB   C3A 9199  18.340  23.570  17.870
  384BOLB   C4A 9200  18.090  23.700  18.200
  384BOLB   C1B 9201  18.400  23.600  16.660
  384BOLB   C2B 9202  18.300  23.890  16.840
  384BOLB   C3B 9203  18.100  24.330  16.830
  384BOLB   C4B 9204  18.080  24.650  17.060
  384BOLB   NC2 9205  18.580  24.700  20.570
  384BOLB   PO2 9206  18.510  24.830  20.080
  384BOLB   GL3 9207  18.610  24.580  19.750
  384BOLB   GL4 9208  18.670  24.250  19.780
  384BOLB   C1C 9209  18.270  24.310  19.500
  384BOLB   C2C 9210  18.100  24.040  19.210
  384BOLB   C3C 9211  17.910  24.000  18.790
  384BOLB   C4C 9212  17.950  23.660  18.570
  384BOLB   C1D 9213  18.430  23.790  19.650
  384BOLB   C2D 9214  18.010  23.670  19.740
  384BOLB   C3D 9215  17.820  23.220  19.710
  384BOLB   C4D 9216  17.710  22.820  19.750
  385BOLB   NC1 9217  17.870   7.330  19.390
  385BOLB   PO1 9218  18.110   7.570  19.680
  385BOLB   GL1 9219  18.040   7.910  20.070
  385BOLB   GL2 9220  18.160   8.140  20.110
  385BOLB   C1A 9221  17.880   7.750  20.400
  385BOLB   C2A 9222  17.520   7.850  20.520
  385BOLB   C3A 9223  17.230   7.700  20.780
  385BOLB   C4A 9224  16.820   7.620  20.930
  385BOLB   C1B 9225  17.960   8.300  20.370
  385BOLB   C2B 9226  17.880   8.110  20.780
  385BOLB   C3B 9227  17.770   7.680  20.890
  385BOLB   C4B 9228  17.620   7.480  21.190
  385BOLB   NC2 9229  15.830   6.940  23.810
  385BOLB   PO2 9230  15.930   6.930  23.350
  385BOLB   GL3 9231  15.960   7.060  22.970
  385BOLB   GL4 9232  15.800   6.850  22.820
  385BOLB   C1C 9233  16.200   7.110  22.580
  385BOLB   C2C 9234  16.380   7.090  22.090
  385BOLB   C3C 9235  16.560   7.390  21.840
  385BOLB   C4C 9236  16.600   7.590  21.400
  385BOLB   C1D 9237  15.670   7.060  22.440
  385BOLB   C2D 9238  15.810   7.040  22.050
  385BOLB   C3D 9239  16.010   7.210  21.800
  385BOLB   C4D 9240  16.110   7.550  21.650
  386BOLB   NC1 9241  13.670  21.190  15.870
  386BOLB   PO1 9242  13.870  20.890  16.240
  386BOLB   GL1 9243  13.620  20.970  16.560
  386BOLB   GL2 9244  13.870  21.210  16.840
  386BOLB   C1A 9245  13.370  21.110  16.810
  386BOLB   C2A 9246  13.070  21.540  16.570
  386BOLB   C3A 9247  12.900  21.990  16.480
  386BOLB   C4A 9248  13.060  22.440  16.300
  386BOLB   C1B 9249  13.800  21.540  16.970
  386BOLB   C2B 9250  13.660  21.880  17.220
  386BOLB   C3B 9251  13.710  22.260  17.390
  386BOLB   C4B 9252  13.570  22.490  17.770
  386BOLB   NC2 9253  12.410  24.930  17.590
  386BOLB   PO2 9254  12.490  24.660  17.310
  386BOLB   GL3 9255  12.400  24.200  17.350
  386BOLB   GL4 9256  12.600  23.910  17.570
  386BOLB   C1C 9257  12.390  23.810  17.060
  386BOLB   C2C 9258  12.520  23.480  16.740
  386BOLB   C3C 9259  12.740  23.200  16.420
  386BOLB   C4C 9260  12.980  22.860  16.350
  386BOLB   C1D 9261  12.880  23.660  17.840
  386BOLB   C2D 9262  13.210  23.400  17.990
  386BOLB   C3D 9263  13.530  23.220  18.260
  386BOLB   C4D 9264  13.940  23.160  18.290
  387BOLB   NC1 9265  27.130  17.120  15.870
  387BOLB   PO1 9266  27.550  17.260  15.920
  387BOLB   GL1 9267  27.900  17.500  15.910
  387BOLB   GL2 9268  28.020  17.620  15.600
  387BOLB   C1A 9269  28.320  17.790  16.030
  387BOLB   C2A 9270  28.670  18.020  16.260
  387BOLB   C3A 9271  29.090  18.040  16.220
  387BOLB   C4A 9272  29.560  17.940  16.090
  387BOLB   C1B 9273  28.420  17.500  15.630
  387BOLB   C2B 9274  28.820  17.500  15.660
  387BOLB   C3B 9275  29.260  17.710  15.730
  387BOLB   C4B 9276  29.630  17.500  15.840
  387BOLB   NC2 9277  31.940  17.240  15.410
  387BOLB   PO2 9278  31.690  17.670  15.450
  387BOLB   GL3 9279  31.530  17.290  15.680
  387BOLB   GL4 9280  31.720  17.120  15.860
  387BOLB   C1C 9281  31.040  17.210  15.780
  387BOLB   C2C 9282  30.780  17.420  16.110
  387BOLB   C3C 9283  30.370  17.660  16.090
  387BOLB   C4C 9284  29.950  17.730  16.130
  387BOLB   C1D 9285  31.360  16.940  16.030
  387BOLB   C2D 9286  31.000  16.740  16.050
  387BOLB   C3D 9287  30.850  16.470  16.280
  387BOLB   C4D 9288  30.440  16.370  16.330
  388BOLB   NC1 9289  21.310   5.420  22.520
  388BOLB   PO1 9290  21.660   5.320  22.350
  388BOLB   GL1 9291  21.880   5.750  22.260
  388BOLB   GL2 9292  22.240   5.860  22.230
  388BOLB   C1A 9293  21.650   6.210  22.170
  388BOLB   C2A 9294  21.670   6.510  21.960
  388BOLB   C3A 9295  21.920   6.830  21.720
  388BOLB   C4A 9296  22.310   6.970  21.590
  388BOLB   C1B 9297  21.950   6.040  21.820
  388BOLB   C2B 9298  21.540   5.950  21.700
  388BOLB   C3B 9299  21.400   5.810  21.350
  388BOLB   C4B 9300  21.040   5.680  21.350
  388BOLB   NC2 9301  23.810   7.530  23.770
  388BOLB   PO2 9302  23.670   7.580  23.340
  388BOLB   GL3 9303  23.540   7.570  22.930
  388BOLB   GL4 9304  23.330   7.200  22.780
  388BOLB   C1C 9305  23.380   7.690  22.550
  388BOLB   C2C 9306  23.210   7.520  22.160
  388BOLB   C3C 9307  23.030   7.250  22.020
  388BOLB   C4C 9308  22.600   7.270  21.840
  388BOLB   C1D 9309  22.970   7.360  22.510
  388BOLB   C2D 9310  22.640   7.570  22.210
  388BOLB   C3D 9311  22.450   7.710  21.720
  388BOLB   C4D 9312  22.320   8.100  21.700
  389BOLB   NC1 9313  24.970  20.170  11.620
  389BOLB   PO1 9314  25.330  20.140  11.420
  389BOLB   GL1 9315  25.590  20.340  11.120
  389BOLB   GL2 9316  25.480  20.330  10.790
  389BOLB   C1A 9317  25.930  20.630  11.190
  389BOLB   C2A 9318  26.150  21.030  11.230
  389BOLB   C3A 9319  26.390  21.450  11.220
  389BOLB   C4A 9320  26.570  21.690  10.940
  389BOLB   C1B 9321  25.820  20.510  10.670
  389BOLB   C2B 9322  25.980  20.870  10.800
  389BOLB   C3B 9323  26.370  21.160  10.740
  389BOLB   C4B 9324  26.730  21.220  10.590
  389BOLB   NC2 9325  28.750  23.180  10.240
  389BOLB   PO2 9326  28.250  23.160  10.120
  389BOLB   GL3 9327  27.870  22.880  10.090
  389BOLB   GL4 9328  27.880  22.730   9.780
  389BOLB   C1C 9329  27.520  22.590  10.220
  389BOLB   C2C 9330  27.070  22.410  10.200
  389BOLB   C3C 9331  26.750  22.240  10.290
  389BOLB   C4C 9332  26.620  22.160  10.720
  389BOLB   C1D 9333  27.550  22.410   9.630
  389BOLB   C2D 9334  27.210  22.240   9.690
  389BOLB   C3D 9335  26.980  22.010   9.840
  389BOLB   C4D 9336  26.620  21.900   9.920
  390BOLB   NC1 9337  17.130   7.710  19.690
  390BOLB   PO1 9338  17.270   8.120  19.730
  390BOLB   GL1 9339  16.970   7.980  20.080
  390BOLB   GL2 9340  16.680   8.210  20.130
  390BOLB   C1A 9341  16.750   7.730  20.430
  390BOLB   C2A 9342  16.450   7.430  20.580
  390BOLB   C3A 9343  16.080   7.030  20.350
  390BOLB   C4A 9344  16.000   6.610  20.330
  390BOLB   C1B 9345  16.610   8.200  20.580
  390BOLB   C2B 9346  16.470   8.030  20.990
  390BOLB   C3B 9347  16.170   7.710  20.990
  390BOLB   C4B 9348  15.970   7.350  20.810
  390BOLB   NC2 9349  15.070   4.550  21.950
  390BOLB   PO2 9350  15.060   5.020  21.960
  390BOLB   GL3 9351  15.250   5.290  21.660
  390BOLB   GL4 9352  15.500   5.340  21.680
  390BOLB   C1C 9353  15.280   5.420  21.220
  390BOLB   C2C 9354  15.660   5.610  20.900
  390BOLB   C3C 9355  15.900   5.890  20.620
  390BOLB   C4C 9356  15.850   6.190  20.400
  390BOLB   C1D 9357  15.510   5.790  21.650
  390BOLB   C2D 9358  15.860   6.090  21.670
  390BOLB   C3D 9359  15.810   6.550  21.590
  390BOLB   C4D 9360  15.810   6.900  21.240
  391BOLB   NC1 9361  27.770  16.790  14.390
  391BOLB   PO1 9362  27.840  16.360  14.260
  391BOLB   GL1 9363  28.170  16.610  14.010
  391BOLB   GL2 9364  28.030  16.980  13.930
  391BOLB   C1A 9365  28.600  16.580  14.090
  391BOLB   C2A 9366  29.070  16.710  14.020
  391BOLB   C3A 9367  29.500  16.940  14.100
  391BOLB   C4A 9368  29.950  16.980  14.130
  391BOLB   C1B 9369  28.370  17.050  14.190
  391BOLB   C2B 9370  28.750  17.110  14.240
  391BOLB   C3B 9371  29.130  17.260  14.220
  391BOLB   C4B 9372  29.530  17.360  14.380
  391BOLB   NC2 9373  32.200  16.680  13.060
  391BOLB   PO2 9374  32.220  16.910  13.450
  391BOLB   GL3 9375  31.800  16.700  13.440
  391BOLB   GL4 9376  31.720  16.940  13.590
  391BOLB   C1C 9377  31.410  16.560  13.640
  391BOLB   C2C 9378  31.090  16.500  13.900
  391BOLB   C3C 9379  30.630  16.560  14.170
  391BOLB   C4C 9380  30.300  16.750  14.140
  391BOLB   C1D 9381  31.350  17.220  13.530
  391BOLB   C2D 9382  30.980  17.450  13.850
  391BOLB   C3D 9383  30.810  17.230  14.190
  391BOLB   C4D 9384  30.860  17.410  14.560
  392BOLB   NC1 9385  23.320  17.370  19.460
  392BOLB   PO1 9386  23.010  17.590  19.430
  392BOLB   GL1 9387  23.220  17.790  19.720
  392BOLB   GL2 9388  23.360  18.220  19.740
  392BOLB   C1A 9389  23.240  17.910  20.140
  392BOLB   C2A 9390  22.920  18.150  20.210
  392BOLB   C3A 9391  22.910  18.540  20.440
  392BOLB   C4A 9392  22.910  18.950  20.570
  392BOLB   C1B 9393  23.400  18.490  20.170
  392BOLB   C2B 9394  23.800  18.550  20.470
  392BOLB   C3B 9395  23.920  18.520  20.890
  392BOLB   C4B 9396  24.200  18.480  21.240
  392BOLB   NC2 9397  23.060  19.350  23.380
  392BOLB   PO2 9398  23.140  19.410  22.950
  392BOLB   GL3 9399  23.170  19.150  22.550
  392BOLB   GL4 9400  23.130  19.490  22.430
  392BOLB   C1C 9401  23.320  18.840  22.150
  392BOLB   C2C 9402  23.370  18.690  21.650
  392BOLB   C3C 9403  23.420  18.820  21.240
  392BOLB   C4C 9404  23.080  19.050  20.950
  392BOLB   C1D 9405  23.140  19.300  21.990
  392BOLB   C2D 9406  23.030  19.040  21.630
  392BOLB   C3D 9407  22.760  18.890  21.290
  392BOLB   C4D 9408  22.580  18.850  20.960
  393BOLB   NC1 9409  23.000  21.100  17.320
  393BOLB   PO1 9410  22.850  20.950  17.720
  393BOLB   GL1 9411  22.830  21.300  17.970
  393BOLB   GL2 9412  22.700  21.620  18.000
  393BOLB   C1A 9413  23.020  21.310  18.330
  393BOLB   C2A 9414  23.180  21.430  18.630
  393BOLB   C3A 9415  23.170  21.800  18.710
  393BOLB   C4A 9416  23.310  22.150  18.740
  393BOLB   C1B 9417  22.760  21.740  18.450
  393BOLB   C2B 9418  22.710  22.080  18.720
  393BOLB   C3B 9419  22.560  22.560  18.770
  393BOLB   C4B 9420  22.510  22.700  19.140
  393BOLB   NC2 9421  25.200  23.190  19.700
  393BOLB   PO2 9422  24.860  23.300  19.970
  393BOLB   GL3 9423  24.630  23.120  19.880
  393BOLB   GL4 9424  24.600  23.030  20.230
  393BOLB   C1C 9425  24.170  22.940  19.730
  393BOLB   C2C 9426  23.840  22.830  19.450
  393BOLB   C3C 9427  23.750  22.540  19.180
  393BOLB   C4C 9428  23.570  22.450  18.890
  393BOLB   C1D 9429  24.280  22.710  20.280
  393BOLB   C2D 9430  23.860  22.590  19.980
  393BOLB   C3D 9431  23.800  22.320  19.630
  393BOLB   C4D 9432  23.860  21.770  19.670
  394BOLB   NC1 9433  20.880  13.690  20.170
  394BOLB   PO1 9434  20.640  13.430  20.280
  394BOLB   GL1 9435  20.850  13.430  20.630
  394BOLB   GL2 9436  20.590  13.360  20.840
  394BOLB   C1A 9437  21.070  13.410  21.030
  394BOLB   C2A 9438  21.260  13.350  21.400
  394BOLB   C3A 9439  21.440  13.490  21.860
  394BOLB   C4A 9440  21.200  13.550  22.330
  394BOLB   C1B 9441  20.620  13.320  21.230
  394BOLB   C2B 9442  20.760  13.250  21.610
  394BOLB   C3B 9443  20.900  13.070  22.060
  394BOLB   C4B 9444  20.870  12.980  22.460
  394BOLB   NC2 9445  22.820  13.680  23.980
  394BOLB   PO2 9446  22.450  13.520  24.150
  394BOLB   GL3 9447  22.220  13.500  23.770
  394BOLB   GL4 9448  22.070  13.200  23.730
  394BOLB   C1C 9449  21.890  13.580  23.470
  394BOLB   C2C 9450  21.510  13.280  23.400
  394BOLB   C3C 9451  21.380  13.440  22.960
  394BOLB   C4C 9452  21.190  13.410  22.610
  394BOLB   C1D 9453  22.190  13.200  23.330
  394BOLB   C2D 9454  21.910  13.330  23.030
  394BOLB   C3D 9455  21.740  13.450  22.510
  394BOLB   C4D 9456  21.670  13.900  22.220
  395BOLB   NC1 9457  25.980   7.980  17.460
  395BOLB   PO1 9458  26.330   8.100  17.330
  395BOLB   GL1 9459  26.430   7.750  17.540
  395BOLB   GL2 9460  26.740   7.820  17.550
  395BOLB   C1A 9461  26.360   7.330  17.520
  395BOLB   C2A 9462  26.380   6.850  17.520
  395BOLB   C3A 9463  26.480   6.510  17.810
  395BOLB   C4A 9464  26.600   6.110  17.940
  395BOLB   C1B 9465  26.910   7.580  17.380
  395BOLB   C2B 9466  26.940   7.110  17.450
  395BOLB   C3B 9467  26.840   6.870  17.720
  395BOLB   C4B 9468  26.740   6.700  18.210
  395BOLB   NC2 9469  27.950   4.490  18.740
  395BOLB   PO2 9470  27.840   4.320  18.430
  395BOLB   GL3 9471  27.500   4.480  18.380
  395BOLB   GL4 9472  27.490   4.450  18.050
  395BOLB   C1C 9473  27.120   4.790  18.260
  395BOLB   C2C 9474  26.760   5.050  18.180
  395BOLB   C3C 9475  26.390   5.280  18.010
  395BOLB   C4C 9476  26.360   5.710  17.970
  395BOLB   C1D 9477  27.410   4.890  17.770
  395BOLB   C2D 9478  27.090   5.300  17.640
  395BOLB   C3D 9479  26.820   5.560  17.720
  395BOLB   C4D 9480  26.610   5.950  17.500
  396BOLB   NC1 9481  24.260  11.090  19.690
  396BOLB   PO1 9482  24.670  11.280  19.550
  396BOLB   GL1 9483  25.130  11.340  19.840
  396BOLB   GL2 9484  25.270  11.670  20.070
  396BOLB   C1A 9485  25.440  11.210  20.210
  396BOLB   C2A 9486  25.610  11.450  20.420
  396BOLB   C3A 9487  25.520  11.500  20.910
  396BOLB   C4A 9488  25.560  11.290  21.140
  396BOLB   C1B 9489  25.210  11.680  20.520
  396BOLB   C2B 9490  25.250  11.970  20.840
  396BOLB   C3B 9491  25.430  12.010  21.260
  396BOLB   C4B 9492  25.450  12.360  21.640
  396BOLB   NC2 9493  27.220  11.130  23.200
  396BOLB   PO2 9494  27.520  11.110  22.990
  396BOLB   GL3 9495  27.230  11.120  22.650
  396BOLB   GL4 9496  27.100  11.400  22.730
  396BOLB   C1C 9497  26.910  11.120  22.320
  396BOLB   C2C 9498  26.670  11.010  21.940
  396BOLB   C3C 9499  26.300  11.030  21.640
  396BOLB   C4C 9500  25.940  11.110  21.330
  396BOLB   C1D 9501  26.740  11.550  22.490
  396BOLB   C2D 9502  26.330  11.700  22.390
  396BOLB   C3D 9503  26.320  11.850  22.130
  396BOLB   C4D 9504  26.340  11.770  21.680
  397BOLB   NC1 9505  20.480  10.670  20.180
  397BOLB   PO1 9506  20.880  10.930  20.330
  397BOLB   GL1 9507  21.230  10.910  20.670
  397BOLB   GL2 9508  21.360  10.630  20.770
  397BOLB   C1A 9509  21.330  11.020  21.070
  397BOLB   C2A 9510  21.310  11.030  21.470
  397BOLB   C3A 9511  21.310  11.000  21.910
  397BOLB   C4A 9512  21.290  11.170  22.370
  397BOLB   C1B 9513  20.960  10.650  21.130
  397BOLB   C2B 9514  20.940  10.640  21.550
  397BOLB   C3B 9515  21.150  10.520  21.910
  397BOLB   C4B 9516  21.180  10.390  22.340
  397BOLB   NC2 9517  21.490  12.190  25.130
  397BOLB   PO2 9518  21.400  11.980  24.690
  397BOLB   GL3 9519  21.210  11.680  24.400
  397BOLB   GL4 9520  21.020  11.780  24.260
  397BOLB   C1C 9521  21.250  11.310  24.010
  397BOLB   C2C 9522  21.350  11.160  23.630
  397BOLB   C3C 9523  21.500  11.020  23.330
  397BOLB   C4C 9524  21.530  11.000  22.790
  397BOLB   C1D 9525  21.160  12.050  23.800
  397BOLB   C2D 9526  21.190  12.250  23.440
  397BOLB   C3D 9527  21.260  11.970  23.160
  397BOLB   C4D 9528  21.400  11.650  22.810
  398BOLB   NC1 9529  11.980  19.430  14.830
  398BOLB   PO1 9530  11.640  19.370  14.600
  398BOLB   GL1 9531  11.500  19.790  14.610
  398BOLB   GL2 9532  11.430  19.720  15.020
  398BOLB   C1A 9533  11.250  20.090  14.450
  398BOLB   C2A 9534  10.960  20.330  14.200
  398BOLB   C3A 9535  10.610  20.540  14.290
  398BOLB   C4A 9536  10.450  20.620  14.720
  398BOLB   C1B 9537  11.220  20.120  14.990
  398BOLB   C2B 9538  11.340  20.530  15.180
  398BOLB   C3B 9539  11.210  20.930  15.180
  398BOLB   C4B 9540  10.840  21.090  15.130
  398BOLB   NC2 9541   8.760  21.970  15.860
  398BOLB   PO2 9542   9.170  22.120  15.860
  398BOLB   GL3 9543   9.590  22.050  15.740
  398BOLB   GL4 9544   9.520  21.950  15.340
  398BOLB   C1C 9545   9.730  21.670  15.700
  398BOLB   C2C 9546   9.870  21.260  15.700
  398BOLB   C3C 9547   9.940  20.940  15.360
  398BOLB   C4C 9548  10.100  20.810  14.910
  398BOLB   C1D 9549   9.840  21.890  15.200
  398BOLB   C2D 9550  10.190  21.910  14.910
  398BOLB   C3D 9551  10.490  21.940  14.720
  398BOLB   C4D 9552  10.680  22.250  14.760
  399BOLB   NC1 9553  19.620  22.030  16.800
  399BOLB   PO1 9554  19.280  22.340  16.790
  399BOLB   GL1 9555  19.270  22.610  17.110
  399BOLB   GL2 9556  19.100  22.940  17.120
  399BOLB   C1A 9557  19.530  22.860  17.370
  399BOLB   C2A 9558  19.770  23.190  17.640
  399BOLB   C3A 9559  19.760  23.730  17.860
  399BOLB   C4A 9560  19.840  24.130  18.030
  399BOLB   C1B 9561  18.900  23.430  17.220
  399BOLB   C2B 9562  18.700  23.770  17.240
  399BOLB   C3B 9563  18.460  24.000  17.480
  399BOLB   C4B 9564  18.220  24.380  17.460
  399BOLB   NC2 9565  20.820  25.740  19.190
  399BOLB   PO2 9566  20.820  25.900  18.800
  399BOLB   GL3 9567  20.470  25.860  18.660
  399BOLB   GL4 9568  20.460  25.730  18.350
  399BOLB   C1C 9569  20.180  25.500  18.630
  399BOLB   C2C 9570  19.780  25.310  18.360
  399BOLB   C3C 9571  19.660  24.980  18.130
  399BOLB   C4C 9572  19.800  24.550  18.020
  399BOLB   C1D 9573  20.610  25.780  17.920
  399BOLB   C2D 9574  20.740  25.640  17.530
  399BOLB   C3D 9575  20.580  25.580  17.170
  399BOLB   C4D 9576  20.310  25.340  16.880
  400BOLB   NC1 9577  12.940   7.630  16.040
  400BOLB   PO1 9578  13.210   7.570  15.660
  400BOLB   GL1 9579  12.980   7.200  15.710
  400BOLB   GL2 9580  12.620   7.220  15.800
  400BOLB   C1A 9581  12.780   6.810  15.580
  400BOLB   C2A 9582  12.410   6.600  15.550
  400BOLB   C3A 9583  12.120   6.490  15.820
  400BOLB   C4A 9584  11.930   6.280  16.060
  400BOLB   C1B 9585  12.200   7.190  15.970
  400BOLB   C2B 9586  11.790   7.200  15.890
  400BOLB   C3B 9587  11.360   7.160  15.920
  400BOLB   C4B 9588  10.920   7.260  15.750
  400BOLB   NC2 9589  10.850   4.260  16.680
  400BOLB   PO2 9590  10.470   4.570  16.520
  400BOLB   GL3 9591  10.620   4.880  16.550
  400BOLB   GL4 9592  10.480   5.280  16.540
  400BOLB   C1C 9593  11.060   4.990  16.580
  400BOLB   C2C 9594  11.400   5.090  16.360
  400BOLB   C3C 9595  11.610   5.500  16.300
  400BOLB   C4C 9596  11.770   5.840  16.130
  400BOLB   C1D 9597  10.600   5.610  16.380
  400BOLB   C2D 9598  10.470   6.130  16.510
  400BOLB   C3D 9599  10.530   6.450  16.820
  400BOLB   C4D 9600  10.540   6.830  17.220
  401BOLB   NC1 9601  10.730  12.770  16.190
  401BOLB   PO1 9602  10.600  12.530  15.790
  401BOLB   GL1 9603  10.220  12.310  15.860
  401BOLB   GL2 9604  10.280  12.430  16.170
  401BOLB   C1A 9605   9.780  12.100  15.860
  401BOLB   C2A 9606   9.550  11.730  15.850
  401BOLB   C3A 9607   9.140  11.530  15.910
  401BOLB   C4A 9608   8.810  11.380  15.650
  401BOLB   C1B 9609   9.880  12.350  16.370
  401BOLB   C2B 9610   9.550  12.200  16.670
  401BOLB   C3B 9611   9.330  11.840  16.870
  401BOLB   C4B 9612   9.280  11.390  16.880
  401BOLB   NC2 9613   6.620  12.030  15.270
  401BOLB   PO2 9614   6.640  11.520  15.330
  401BOLB   GL3 9615   7.120  11.380  15.450
  401BOLB   GL4 9616   7.110  11.150  15.220
  401BOLB   C1C 9617   7.500  11.480  15.600
  401BOLB   C2C 9618   7.780  11.790  15.760
  401BOLB   C3C 9619   8.220  11.790  15.710
  401BOLB   C4C 9620   8.460  11.560  15.390
  401BOLB   C1D 9621   7.360  11.320  14.860
  401BOLB   C2D 9622   7.820  11.300  14.900
  401BOLB   C3D 9623   8.160  11.100  14.940
  401BOLB   C4D 9624   8.570  11.050  14.830
  402BOLB   NC1 9625  21.580  11.970  19.910
  402BOLB   PO1 9626  21.180  11.850  20.180
  402BOLB   GL1 9627  21.090  11.850  20.550
  402BOLB   GL2 9628  20.780  11.810  20.760
  402BOLB   C1A 9629  21.270  11.950  21.040
  402BOLB   C2A 9630  21.360  11.960  21.480
  402BOLB   C3A 9631  21.180  12.070  21.890
  402BOLB   C4A 9632  21.090  12.160  22.290
  402BOLB   C1B 9633  20.790  11.820  21.220
  402BOLB   C2B 9634  20.850  11.830  21.680
  402BOLB   C3B 9635  20.680  11.690  22.080
  402BOLB   C4B 9636  20.500  11.640  22.540
  402BOLB   NC2 9637  21.840  12.280  24.620
  402BOLB   PO2 9638  22.010  12.700  24.510
  402BOLB   GL3 9639  21.900  12.760  24.150
  402BOLB   GL4 9640  21.720  12.980  23.990
  402BOLB   C1C 9641  21.910  12.420  23.850
  402BOLB   C2C 9642  21.770  12.310  23.450
  402BOLB   C3C 9643  21.610  12.380  23.060
  402BOLB   C4C 9644  21.380  12.180  22.690
  402BOLB   C1D 9645  21.850  12.820  23.540
  402BOLB   C2D 9646  22.030  12.690  23.120
  402BOLB   C3D 9647  21.840  12.590  22.630
  402BOLB   C4D 9648  21.830  12.960  22.450
  403BOLB   NC1 9649  21.210  20.140  18.970
  403BOLB   PO1 9650  21.620  19.970  19.040
  403BOLB   GL1 9651  21.830  19.820  19.300
  403BOLB   GL2 9652  21.560  19.810  19.550
  403BOLB   C1A 9653  22.200  19.820  19.430
  403BOLB   C2A 9654  22.410  19.820  19.730
  403BOLB   C3A 9655  22.790  19.980  19.920
  403BOLB   C4A 9656  23.010  20.250  20.230
  403BOLB   C1B 9657  21.460  19.800  19.850
  403BOLB   C2B 9658  21.320  20.130  20.240
  403BOLB   C3B 9659  21.040  20.200  20.670
  403BOLB   C4B 9660  20.630  20.480  20.720
  403BOLB   NC2 9661  24.040  20.210  22.700
  403BOLB   PO2 9662  23.610  20.320  22.780
  403BOLB   GL3 9663  23.610  20.320  22.340
  403BOLB   GL4 9664  23.610  19.980  22.350
  403BOLB   C1C 9665  23.510  20.250  21.900
  403BOLB   C2C 9666  23.350  20.350  21.520
  403BOLB   C3C 9667  23.230  20.350  21.100
  403BOLB   C4C 9668  23.100  20.380  20.640
  403BOLB   C1D 9669  23.520  19.660  22.180
  403BOLB   C2D 9670  23.600  19.420  21.830
  403BOLB   C3D 9671  23.730  19.050  21.600
  403BOLB   C4D 9672  23.950  18.890  21.220
  404BOLB   NC1 9673  14.830  16.660  18.400
  404BOLB   PO1 9674  14.940  16.470  18.850
  404BOLB   GL1 9675  14.730  16.760  19.160
  404BOLB   GL2 9676  14.650  16.510  19.540
  404BOLB   C1A 9677  14.580  17.030  19.530
  404BOLB   C2A 9678  14.240  17.110  19.750
  404BOLB   C3A 9679  14.000  17.030  20.090
  404BOLB   C4A 9680  13.990  16.730  20.540
  404BOLB   C1B 9681  14.570  16.790  19.960
  404BOLB   C2B 9682  14.460  16.840  20.360
  404BOLB   C3B 9683  14.190  17.030  20.830
  404BOLB   C4B 9684  14.510  16.970  21.260
  404BOLB   NC2 9685  13.490  16.370  23.040
  404BOLB   PO2 9686  13.210  16.350  22.730
  404BOLB   GL3 9687  13.310  16.260  22.250
  404BOLB   GL4 9688  12.950  16.370  22.250
  404BOLB   C1C 9689  13.300  16.080  21.800
  404BOLB   C2C 9690  13.440  16.060  21.300
  404BOLB   C3C 9691  13.800  16.210  20.940
  404BOLB   C4C 9692  13.850  16.310  20.560
  404BOLB   C1D 9693  12.780  16.300  21.830
  404BOLB   C2D 9694  12.860  16.040  21.490
  404BOLB   C3D 9695  12.860  15.740  21.170
  404BOLB   C4D 9696  13.200  15.620  20.940
  405BOLB   NC1 9697  22.150  14.510  20.220
  405BOLB   PO1 9698  22.110  14.940  20.100
  405BOLB   GL1 9699  22.180  14.920  20.560
  405BOLB   GL2 9700  22.380  15.230  20.620
  405BOLB   C1A 9701  22.110  14.970  21.000
  405BOLB   C2A 9702  22.180  15.010  21.280
  405BOLB   C3A 9703  22.110  15.050  21.730
  405BOLB   C4A 9704  22.080  15.100  22.060
  405BOLB   C1B 9705  22.580  15.170  20.990
  405BOLB   C2B 9706  22.740  15.340  21.360
  405BOLB   C3B 9707  22.820  15.450  21.800
  405BOLB   C4B 9708  23.150  15.710  22.100
  405BOLB   NC2 9709  21.660  15.640  24.700
  405BOLB   PO2 9710  21.810  15.240  24.590
  405BOLB   GL3 9711  21.790  15.150  24.100
  405BOLB   GL4 9712  21.720  14.790  24.070
  405BOLB   C1C 9713  22.110  15.030  23.820
  405BOLB   C2C 9714  21.950  15.010  23.340
  405BOLB   C3C 9715  22.050  15.130  22.900
  405BOLB   C4C 9716  22.030  15.190  22.440
  405BOLB   C1D 9717  21.590  14.830  23.690
  405BOLB   C2D 9718  21.470  14.890  23.210
  405BOLB   C3D 9719  21.450  15.160  22.810
  405BOLB   C4D 9720  21.360  15.620  22.780
  406BOLB   NC1 9721  13.860  16.220  18.260
  406BOLB   PO1 9722  13.610  16.140  18.700
  406BOLB   GL1 9723  13.710  16.350  19.070
  406BOLB   GL2 9724  13.400  16.410  19.080
  406BOLB   C1A 9725  13.650  16.410  19.550
  406BOLB   C2A 9726  13.780  16.090  19.870
  406BOLB   C3A 9727  13.670  15.840  20.140
  406BOLB   C4A 9728  13.390  15.880  20.620
  406BOLB   C1B 9729  13.140  16.570  19.490
  406BOLB   C2B 9730  13.270  16.380  19.880
  406BOLB   C3B 9731  13.280  16.200  20.250
  406BOLB   C4B 9732  13.000  16.260  20.550
  406BOLB   NC2 9733  12.790  16.610  22.640
  406BOLB   PO2 9734  12.820  17.010  22.730
  406BOLB   GL3 9735  13.140  16.830  22.340
  406BOLB   GL4 9736  13.480  16.800  22.350
  406BOLB   C1C 9737  13.040  16.750  21.850
  406BOLB   C2C 9738  13.090  16.550  21.530
  406BOLB   C3C 9739  13.050  16.470  21.110
  406BOLB   C4C 9740  13.130  16.100  20.940
  406BOLB   C1D 9741  13.480  16.620  21.960
  406BOLB   C2D 9742  13.630  16.530  21.570
  406BOLB   C3D 9743  13.500  16.540  21.140
  406BOLB   C4D 9744  13.410  16.500  20.710
  407BOLB   NC1 9745  27.680  14.610  11.260
  407BOLB   PO1 9746  27.550  14.500  10.850
  407BOLB   GL1 9747  27.860  14.310  10.600
  407BOLB   GL2 9748  27.890  13.970  10.640
  407BOLB   C1A 9749  28.140  14.280  10.280
  407BOLB   C2A 9750  28.550  14.460  10.160
  407BOLB   C3A 9751  28.590  14.440   9.780
  407BOLB   C4A 9752  28.640  14.540   9.290
  407BOLB   C1B 9753  28.000  13.760  10.210
  407BOLB   C2B 9754  28.290  13.530   9.980
  407BOLB   C3B 9755  28.390  13.440   9.520
  407BOLB   C4B 9756  28.630  13.220   9.210
  407BOLB   NC2 9757  30.790  14.060   8.970
  407BOLB   PO2 9758  30.660  14.250   8.630
  407BOLB   GL3 9759  30.320  14.480   8.420
  407BOLB   GL4 9760  30.280  14.800   8.280
  407BOLB   C1C 9761  29.970  14.340   8.460
  407BOLB   C2C 9762  29.550  14.280   8.350
  407BOLB   C3C 9763  29.140  14.410   8.640
  407BOLB   C4C 9764  28.970  14.560   8.970
  407BOLB   C1D 9765  29.890  14.840   8.440
  407BOLB   C2D 9766  29.570  14.740   8.370
  407BOLB   C3D 9767  29.170  14.850   8.390
  407BOLB   C4D 9768  28.760  14.700   8.480
  408BOLB   NC1 9769  13.890   7.200  14.320
  408BOLB   PO1 9770  14.170   6.760  14.180
  408BOLB   GL1 9771  13.650   6.690  14.220
  408BOLB   GL2 9772  13.590   6.550  14.520
  408BOLB   C1A 9773  13.350   6.380  14.060
  408BOLB   C2A 9774  13.260   6.120  13.740
  408BOLB   C3A 9775  12.870   6.080  13.520
  408BOLB   C4A 9776  12.390   5.940  13.330
  408BOLB   C1B 9777  13.480   6.110  14.490
  408BOLB   C2B 9778  13.440   5.600  14.510
  408BOLB   C3B 9779  13.380   5.240  14.260
  408BOLB   C4B 9780  13.170   4.860  14.040
  408BOLB   NC2 9781  10.880   3.950  12.480
  408BOLB   PO2 9782  11.240   4.270  12.440
  408BOLB   GL3 9783  11.250   4.590  12.740
  408BOLB   GL4 9784  11.110   4.700  12.940
  408BOLB   C1C 9785  11.650   4.720  13.060
  408BOLB   C2C 9786  11.820   5.140  12.990
  408BOLB   C3C 9787  12.010   5.500  12.830
  408BOLB   C4C 9788  12.250   5.780  13.030
  408BOLB   C1D 9789  11.330   5.180  12.800
  408BOLB   C2D 9790  11.670   5.310  12.500
  408BOLB   C3D 9791  12.070   5.170  12.370
  408BOLB   C4D 9792  12.380   4.850  12.250
  409BOLB   NC1 9793  23.610  18.750  17.650
  409BOLB   PO1 9794  24.030  18.930  17.850
  409BOLB   GL1 9795  24.420  19.230  18.080
  409BOLB   GL2 9796  24.760  19.200  17.900
  409BOLB   C1A 9797  24.570  19.300  18.480
  409BOLB   C2A 9798  24.810  19.670  18.760
  409BOLB   C3A 9799  25.140  19.720  19.030
  409BOLB   C4A 9800  25.400  19.890  19.440
  409BOLB   C1B 9801  25.190  19.330  17.940
  409BOLB   C2B 9802  25.590  19.470  18.120
  409BOLB   C3B 9803  25.650  19.820  18.440
  409BOLB   C4B 9804  25.260  19.860  18.580
  409BOLB   NC2 9805  26.460  21.450  21.580
  409BOLB   PO2 9806  26.180  21.290  21.330
  409BOLB   GL3 9807  25.860  21.100  21.280
  409BOLB   GL4 9808  25.640  21.200  21.130
  409BOLB   C1C 9809  25.690  20.760  20.850
  409BOLB   C2C 9810  25.570  20.420  20.480
  409BOLB   C3C 9811  25.630  20.160  20.200
  409BOLB   C4C 9812  25.460  19.960  19.880
  409BOLB   C1D 9813  25.170  21.020  21.120
  409BOLB   C2D 9814  24.870  20.780  20.960
  409BOLB   C3D 9815  24.690  20.390  20.710
  409BOLB   C4D 9816  24.630  20.160  20.310
  410BOLB   NC1 9817  15.940  12.690  19.330
  410BOLB   PO1 9818  15.820  12.950  19.750
  410BOLB   GL1 9819  15.570  12.750  20.040
  410BOLB   GL2 9820  15.330  12.880  20.140
  410BOLB   C1A 9821  15.560  12.690  20.580
  410BOLB   C2A 9822  15.380  12.480  21.060
  410BOLB   C3A 9823  15.140  12.700  21.360
  410BOLB   C4A 9824  15.280  12.850  21.710
  410BOLB   C1B 9825  15.170  13.060  20.430
  410BOLB   C2B 9826  14.960  12.910  20.870
  410BOLB   C3B 9827  14.570  12.960  21.200
  410BOLB   C4B 9828  14.290  12.740  21.540
  410BOLB   NC2 9829  14.830  12.490  24.010
  410BOLB   PO2 9830  14.960  12.980  24.000
  410BOLB   GL3 9831  14.940  12.950  23.590
  410BOLB   GL4 9832  14.660  13.020  23.420
  410BOLB   C1C 9833  15.090  12.750  23.360
  410BOLB   C2C 9834  15.170  12.490  22.950
  410BOLB   C3C 9835  15.120  12.530  22.450
  410BOLB   C4C 9836  15.200  12.760  22.080
  410BOLB   C1D 9837  14.360  13.090  23.040
  410BOLB   C2D 9838  14.260  12.970  22.700
  410BOLB   C3D 9839  14.280  13.140  22.400
  410BOLB   C4D 9840  14.400  13.000  21.970
  411BOLB   NC1 9841  22.820  23.470  21.030
  411BOLB   PO1 9842  23.060  23.230  21.300
  411BOLB   GL1 9843  23.050  22.930  20.990
  411BOLB   GL2 9844  23.170  23.040  20.730
  411BOLB   C1A 9845  22.840  22.480  20.960
  411BOLB   C2A 9846  22.730  22.270  20.590
  411BOLB   C3A 9847  22.340  22.150  20.570
  411BOLB   C4A 9848  21.980  21.900  20.550
  411BOLB   C1B 9849  22.930  22.800  20.550
  411BOLB   C2B 9850  22.780  22.510  20.200
  411BOLB   C3B 9851  22.620  22.490  19.800
  411BOLB   C4B 9852  22.180  22.490  19.680
  411BOLB   NC2 9853  20.660  22.590  22.080
  411BOLB   PO2 9854  21.030  22.860  21.920
  411BOLB   GL3 9855  20.800  22.780  21.630
  411BOLB   GL4 9856  20.710  22.920  21.320
  411BOLB   C1C 9857  20.890  22.440  21.330
  411BOLB   C2C 9858  20.940  22.230  21.020
  411BOLB   C3C 9859  21.200  21.840  20.880
  411BOLB   C4C 9860  21.550  21.790  20.680
  411BOLB   C1D 9861  20.570  22.650  21.020
  411BOLB   C2D 9862  20.480  22.280  20.800
  411BOLB   C3D 9863  20.760  21.940  20.600
  411BOLB   C4D 9864  21.190  21.850  20.340
  412BOLB   NC1 9865  19.870  17.770  19.500
  412BOLB   PO1 9866  20.150  18.120  19.290
  412BOLB   GL1 9867  20.300  17.960  19.770
  412BOLB   GL2 9868  20.630  17.840  19.870
  412BOLB   C1A 9869  20.300  17.940  20.200
  412BOLB   C2A 9870  20.220  17.860  20.680
  412BOLB   C3A 9871  20.040  17.900  21.060
  412BOLB   C4A 9872  20.140  17.750  21.500
  412BOLB   C1B 9873  20.830  17.820  20.270
  412BOLB   C2B 9874  20.800  17.700  20.710
  412BOLB   C3B 9875  20.610  17.760  21.150
  412BOLB   C4B 9876  20.670  17.900  21.530
  412BOLB   NC2 9877  20.240  18.340  24.200
  412BOLB   PO2 9878  20.270  18.070  23.840
  412BOLB   GL3 9879  20.110  18.040  23.490
  412BOLB   GL4 9880  20.020  18.280  23.290
  412BOLB   C1C 9881  20.100  17.800  23.080
  412BOLB   C2C 9882  20.170  17.570  22.760
  412BOLB   C3C 9883  20.210  17.620  22.380
  412BOLB   C4C 9884  20.280  17.750  21.890
  412BOLB   C1D 9885  20.120  18.350  22.870
  412BOLB   C2D 9886  20.450  18.080  22.650
  412BOLB   C3D 9887  20.520  18.040  22.190
  412BOLB   C4D 9888  20.720  17.650  22.110
  413BOLB   NC1 9889  13.430  20.830  15.250
  413BOLB   PO1 9890  13.260  21.110  15.650
  413BOLB   GL1 9891  13.180  21.440  15.790
  413BOLB   GL2 9892  13.390  21.700  15.700
  413BOLB   C1A 9893  12.920  21.620  16.090
  413BOLB   C2A 9894  12.540  21.800  16.180
  413BOLB   C3A 9895  12.090  21.890  16.210
  413BOLB   C4A 9896  11.740  22.070  16.300
  413BOLB   C1B 9897  13.410  21.750  16.120
  413BOLB   C2B 9898  13.410  22.010  16.390
  413BOLB   C3B 9899  13.280  22.170  16.760
  413BOLB   C4B 9900  13.290  22.270  17.070
  413BOLB   NC2 9901   9.970  23.480  17.670
  413BOLB   PO2 9902  10.400  23.400  17.440
  413BOLB   GL3 9903  10.600  23.070  17.300
  413BOLB   GL4 9904  10.490  22.800  17.180
  413BOLB   C1C 9905  10.940  23.010  16.900
  413BOLB   C2C 9906  11.270  22.990  16.610
  413BOLB   C3C 9907  11.440  22.700  16.330
  413BOLB   C4C 9908  11.500  22.350  16.230
  413BOLB   C1D 9909  10.790  22.570  17.110
  413BOLB   C2D 9910  11.180  22.530  17.000
  413BOLB   C3D 9911  11.530  22.690  17.020
  413BOLB   C4D 9912  11.810  23.000  17.130
  414BOLB   NC1 9913  16.110  21.580  16.420
  414BOLB   PO1 9914  16.080  21.720  16.750
  414BOLB   GL1 9915  16.060  22.040  17.030
  414BOLB   GL2 9916  15.700  22.110  17.030
  414BOLB   C1A 9917  16.280  22.270  17.460
  414BOLB   C2A 9918  16.370  22.520  17.770
  414BOLB   C3A 9919  16.270  22.940  17.910
  414BOLB   C4A 9920  16.330  23.140  18.250
  414BOLB   C1B 9921  15.800  22.440  17.300
  414BOLB   C2B 9922  15.770  22.740  17.650
  414BOLB   C3B 9923  15.850  23.230  17.760
  414BOLB   C4B 9924  15.650  23.590  17.820
  414BOLB   NC2 9925  15.560  24.710  19.940
  414BOLB   PO2 9926  15.940  24.910  19.730
  414BOLB   GL3 9927  15.950  24.580  19.470
  414BOLB   GL4 9928  15.810  24.360  19.640
  414BOLB   C1C 9929  16.000  24.270  19.090
  414BOLB   C2C 9930  16.250  23.920  18.980
  414BOLB   C3C 9931  16.560  23.710  18.820
  414BOLB   C4C 9932  16.610  23.440  18.530
  414BOLB   C1D 9933  15.570  24.080  19.300
  414BOLB   C2D 9934  15.540  23.700  19.300
  414BOLB   C3D 9935  15.440  23.260  19.280
  414BOLB   C4D 9936  15.700  22.990  19.050
  415BOLB   NC1 9937  18.540   7.970  19.790
  415BOLB   PO1 9938  18.880   7.720  19.920
  415BOLB   GL1 9939  18.810   7.570  20.250
  415BOLB   GL2 9940  18.420   7.580  20.150
  415BOLB   C1A 9941  18.750   7.150  20.390
  415BOLB   C2A 9942  18.680   6.850  20.780
  415BOLB   C3A 9943  18.750   7.070  21.230
  415BOLB   C4A 9944  19.030   6.780  21.540
  415BOLB   C1B 9945  18.220   7.410  20.480
  415BOLB   C2B 9946  17.970   7.130  20.760
  415BOLB   C3B 9947  17.810   6.810  20.970
  415BOLB   C4B 9948  18.030   6.480  21.230
  415BOLB   NC2 9949  18.590   5.380  23.200
  415BOLB   PO2 9950  19.030   5.240  23.270
  415BOLB   GL3 9951  19.260   5.600  23.030
  415BOLB   GL4 9952  19.560   5.570  22.960
  415BOLB   C1C 9953  19.320   5.980  22.990
  415BOLB   C2C 9954  19.130   6.270  22.720
  415BOLB   C3C 9955  18.950   6.620  22.430
  415BOLB   C4C 9956  19.140   6.670  21.950
  415BOLB   C1D 9957  19.480   5.730  22.550
  415BOLB   C2D 9958  19.190   5.950  22.320
  415BOLB   C3D 9959  19.260   6.210  22.170
  415BOLB   C4D 9960  19.250   6.150  21.690
  416BOLB   NC1 9961  22.750  21.610  16.460
  416BOLB   PO1 9962  22.800  21.800  16.810
  416BOLB   GL1 9963  22.950  22.160  17.020
  416BOLB   GL2 9964  23.010  22.070  17.400
  416BOLB   C1A 9965  23.220  22.430  17.150
  416BOLB   C2A 9966  23.320  22.700  17.490
  416BOLB   C3A 9967  23.540  22.740  17.850
  416BOLB   C4A 9968  23.420  22.740  18.320
  416BOLB   C1B 9969  22.790  22.390  17.480
  416BOLB   C2B 9970  22.890  22.700  17.710
  416BOLB   C3B 9971  23.140  22.980  17.940
  416BOLB   C4B 9972  23.210  23.240  18.240
  416BOLB   NC2 9973  23.810  24.560  19.490
  416BOLB   PO2 9974  23.440  24.450  19.900
  416BOLB   GL3 9975  23.450  24.240  19.620
  416BOLB   GL4 9976  23.700  24.050  19.400
  416BOLB   C1C 9977  23.230  23.980  19.340
  416BOLB   C2C 9978  23.090  23.680  19.120
  416BOLB   C3C 9979  23.180  23.360  18.870
  416BOLB   C4C 9980  23.400  22.990  18.680
  416BOLB   C1D 9981  23.600  23.690  19.090
  416BOLB   C2D 9982  23.680  23.500  18.670
  416BOLB   C3D 9983  23.710  23.210  18.270
  416BOLB   C4D 9984  23.930  22.910  18.100
  417BOLB   NC1 9985  13.790  18.840  18.040
  417BOLB   PO1 9986  14.250  18.990  17.740
  417BOLB   GL1 9987  14.160  19.350  18.000
  417BOLB   GL2 9988  13.940  19.280  18.230
  417BOLB   C1A 9989  13.930  19.770  18.230
  417BOLB   C2A 9990  13.750  19.980  18.590
  417BOLB   C3A 9991  13.670  20.190  18.870
  417BOLB   C4A 9992  13.440  20.540  18.990
  417BOLB   C1B 9993  13.810  19.410  18.690
  417BOLB   C2B 9994  13.650  19.650  19.010
  417BOLB   C3B 9995  13.350  19.930  19.180
  417BOLB   C4B 9996  13.460  20.350  19.450
  417BOLB   NC2 9997  11.500  22.350  20.460
  417BOLB   PO2 9998  11.680  21.970  20.110
  417BOLB   GL3 9999  11.760  21.700  19.830
  417BOLB   GL410000  11.850  21.510  19.830
  417BOLB   C1C10001  12.180  21.650  19.510
  417BOLB   C2C10002  12.510  21.520  19.300
  417BOLB   C3C10003  12.840  21.130  19.300
  417BOLB   C4C10004  13.130  20.800  19.160
  417BOLB   C1D10005  12.080  21.230  19.780
  417BOLB   C2D10006  12.390  21.090  19.550
  417BOLB   C3D10007  12.340  21.070  19.090
  417BOLB   C4D10008  12.180  21.330  18.670
  418BOLB   NC110009  14.960  12.850  19.360
  418BOLB   PO110010  14.610  12.610  19.420
  418BOLB   GL110011  14.480  12.580  19.900
  418BOLB   GL210012  14.570  12.640  20.250
  418BOLB   C1A10013  14.600  12.130  20.150
  418BOLB   C2A10014  14.270  11.910  20.410
  418BOLB   C3A10015  14.100  11.850  20.750
  418BOLB   C4A10016  14.340  12.060  21.140
  418BOLB   C1B10017  14.360  12.930  20.550
  418BOLB   C2B10018  14.160  13.100  20.870
  418BOLB   C3B10019  14.110  13.190  21.350
  418BOLB   C4B10020  14.480  13.340  21.640
  418BOLB   NC210021  13.130  12.510  23.140
  418BOLB   PO210022  13.390  12.270  23.170
  418BOLB   GL310023  13.500  12.400  22.790
  418BOLB   GL410024  13.310  12.720  22.700
  418BOLB   C1C10025  13.530  12.180  22.430
  418BOLB   C2C10026  13.870  12.140  22.220
  418BOLB   C3C10027  14.000  12.230  21.790
  418BOLB   C4C10028  14.160  12.270  21.390
  418BOLB   C1D10029  13.240  12.600  22.310
  418BOLB   C2D10030  13.520  12.570  22.050
  418BOLB   C3D10031  13.770  12.660  21.710
  418BOLB   C4D10032  13.820  12.680  21.300
  419BOLB   NC110033  15.610  11.040  18.960
  419BOLB   PO110034  15.360  11.100  19.430
  419BOLB   GL110035  15.140  10.900  19.770
  419BOLB   GL210036  14.840  10.680  19.670
  419BOLB   C1A10037  15.070  10.840  20.140
  419BOLB   C2A10038  14.770  10.840  20.470
  419BOLB   C3A10039  14.410  10.820  20.800
  419BOLB   C4A10040  14.000  10.760  20.970
  419BOLB   C1B10041  14.580  10.930  20.050
  419BOLB   C2B10042  14.270  10.960  20.380
  419BOLB   C3B10043  13.810  10.740  20.520
  419BOLB   C4B10044  13.440  10.440  20.630
  419BOLB   NC210045  12.400  11.210  22.650
  419BOLB   PO210046  12.070  11.270  22.360
  419BOLB   GL310047  12.430  11.390  22.050
  419BOLB   GL410048  12.540  11.560  22.260
  419BOLB   C1C10049  12.650  11.180  21.810
  419BOLB   C2C10050  13.120  11.200  21.620
  419BOLB   C3C10051  13.330  11.220  21.110
  419BOLB   C4C10052  13.630  11.000  20.960
  419BOLB   C1D10053  13.020  11.540  22.020
  419BOLB   C2D10054  13.370  11.620  21.610
  419BOLB   C3D10055  13.510  11.720  21.290
  419BOLB   C4D10056  13.870  11.880  21.160
  420BOLB   NC110057  32.220   8.510  12.190
  420BOLB   PO110058  32.090   8.780  12.630
  420BOLB   GL110059  31.730   9.080  12.520
  420BOLB   GL210060  31.620   9.150  12.780
  420BOLB   C1A10061  31.630   9.360  12.190
  420BOLB   C2A10062  31.180   9.490  12.210
  420BOLB   C3A10063  30.700   9.570  12.390
  420BOLB   C4A10064  30.420   9.490  12.610
  420BOLB   C1B10065  31.270   9.070  12.650
  420BOLB   C2B10066  30.890   9.130  12.490
  420BOLB   C3B10067  30.420   9.180  12.180
  420BOLB   C4B10068  30.090   9.150  12.080
  420BOLB   NC210069  32.200   9.430  13.550
  420BOLB   PO210070  32.020   9.270  13.880
  420BOLB   GL310071  31.610   9.060  13.780
  420BOLB   GL410072  31.640   8.680  13.590
  420BOLB   C1C10073  31.280   9.050  13.680
  420BOLB   C2C10074  30.900   9.250  13.710
  420BOLB   C3C10075  30.650   9.460  13.390
  420BOLB   C4C10076  30.420   9.550  13.060
  420BOLB   C1D10077  31.290   8.790  13.230
  420BOLB   C2D10078  31.100   8.610  13.010
  420BOLB   C3D10079  30.800   8.790  12.860
  420BOLB   C4D10080  30.450   8.950  12.590
  421BOLB   NC110081  11.020  14.110  16.700
  421BOLB   PO110082  11.120  14.410  17.020
  421BOLB   GL110083  10.740  14.610  17.240
  421BOLB   GL210084  10.830  14.370  17.410
  421BOLB   C1A10085  10.460  14.700  17.470
  421BOLB   C2A10086  10.060  14.650  17.680
  421BOLB   C3A10087   9.750  14.520  17.860
  421BOLB   C4A10088   9.610  14.120  17.750
  421BOLB   C1B10089  10.380  14.230  17.560
  421BOLB   C2B10090  10.220  14.200  17.900
  421BOLB   C3B10091   9.840  14.120  18.180
  421BOLB   C4B10092   9.600  13.890  18.380
  421BOLB   NC210093   8.340  13.540  19.600
  421BOLB   PO210094   8.070  13.460  19.300
  421BOLB   GL310095   8.220  13.160  19.100
  421BOLB   GL410096   7.870  12.890  18.960
  421BOLB   C1C10097   8.470  13.180  18.760
  421BOLB   C2C10098   8.650  13.380  18.340
  421BOLB   C3C10099   9.050  13.440  18.120
  421BOLB   C4C10100   9.370  13.810  17.970
  421BOLB   C1D10101   8.250  12.620  18.910
  421BOLB   C2D10102   8.440  12.320  19.110
  421BOLB   C3D10103   8.630  12.030  18.870
  421BOLB   C4D10104   9.010  11.920  18.590
  422BOLB   NC110105  14.310  22.720  13.430
  422BOLB   PO110106  14.080  22.360  13.470
  422BOLB   GL110107  13.720  22.690  13.650
  422BOLB   GL210108  13.670  22.890  13.400
  422BOLB   C1A10109  13.490  22.890  13.860
  422BOLB   C2A10110  13.440  22.990  14.330
  422BOLB   C3A10111  13.660  23.260  14.720
  422BOLB   C4A10112  13.690  23.580  15.020
  422BOLB   C1B10113  13.870  23.240  13.260
  422BOLB   C2B10114  13.960  23.650  13.440
  422BOLB   C3B10115  13.700  23.790  13.830
  422BOLB   C4B10116  13.300  23.840  14.050
  422BOLB   NC210117  12.750  26.010  15.000
  422BOLB   PO210118  12.400  25.780  14.880
  422BOLB   GL310119  12.750  25.470  14.990
  422BOLB   GL410120  12.980  25.640  14.830
  422BOLB   C1C10121  12.790  25.040  15.140
  422BOLB   C2C10122  12.950  24.710  15.180
  422BOLB   C3C10123  13.330  24.460  15.050
  422BOLB   C4C10124  13.540  24.070  15.130
  422BOLB   C1D10125  13.030  25.310  14.630
  422BOLB   C2D10126  12.880  25.180  14.130
  422BOLB   C3D10127  13.170  24.950  13.800
  422BOLB   C4D10128  13.420  24.720  13.570
  423BOLB   NC110129  25.450  15.300  19.140
  423BOLB   PO110130  25.460  15.720  18.980
  423BOLB   GL110131  26.010  15.680  18.890
  423BOLB   GL210132  26.260  15.750  19.170
  423BOLB   C1A10133  26.490  15.640  18.720
  423BOLB   C2A10134  26.850  15.780  18.920
  423BOLB   C3A10135  27.000  15.850  19.240
  423BOLB   C4A10136  27.030  15.900  19.620
  423BOLB   C1B10137  26.520  16.110  19.210
  423BOLB   C2B10138  26.900  16.340  19.400
  423BOLB   C3B10139  27.310  16.240  19.440
  423BOLB   C4B10140  27.620  16.150  19.710
  423BOLB   NC210141  28.000  16.620  22.110
  423BOLB   PO210142  28.010  16.400  21.690
  423BOLB   GL310143  27.950  16.320  21.280
  423BOLB   GL410144  27.770  16.060  21.350
  423BOLB   C1C10145  27.660  16.440  21.080
  423BOLB   C2C10146  27.560  16.440  20.590
  423BOLB   C3C10147  27.380  16.290  20.340
  423BOLB   C4C10148  27.170  16.040  20.040
  423BOLB   C1D10149  27.780  15.910  20.960
  423BOLB   C2D10150  27.520  15.680  20.720
  423BOLB   C3D10151  27.330  15.540  20.460
  423BOLB   C4D10152  27.020  15.340  20.280
  424BOLB   NC110153   6.880  18.870  13.950
  424BOLB   PO110154   6.620  18.600  13.820
  424BOLB   GL110155   6.850  18.270  13.940
  424BOLB   GL210156   6.870  18.000  14.190
  424BOLB   C1A10157   7.080  18.050  13.690
  424BOLB   C2A10158   7.360  17.740  13.670
  424BOLB   C3A10159   7.550  17.300  13.550
  424BOLB   C4A10160   7.760  16.900  13.570
  424BOLB   C1B10161   7.420  17.950  14.180
  424BOLB   C2B10162   7.770  17.850  14.240
  424BOLB   C3B10163   8.050  17.630  14.160
  424BOLB   C4B10164   8.420  17.580  13.870
  424BOLB   NC210165   6.050  16.950  14.220
  424BOLB   PO210166   5.940  16.580  14.520
  424BOLB   GL310167   6.410  16.560  14.560
  424BOLB   GL410168   6.540  16.410  14.830
  424BOLB   C1C10169   6.920  16.420  14.470
  424BOLB   C2C10170   7.360  16.490  14.270
  424BOLB   C3C10171   7.810  16.360  14.150
  424BOLB   C4C10172   8.030  16.610  13.800
  424BOLB   C1D10173   6.900  16.360  15.190
  424BOLB   C2D10174   7.300  16.410  15.320
  424BOLB   C3D10175   7.680  16.150  15.340
  424BOLB   C4D10176   7.880  15.820  15.220
  425BOLB   NC110177  16.500  20.300  18.370
  425BOLB   PO110178  16.540  20.730  18.520
  425BOLB   GL110179  16.580  20.860  18.940
  425BOLB   GL210180  16.590  21.210  19.010
  425BOLB   C1A10181  16.740  20.930  19.430
  425BOLB   C2A10182  16.800  20.560  19.530
  425BOLB   C3A10183  16.900  20.290  19.850
  425BOLB   C4A10184  16.720  20.150  20.230
  425BOLB   C1B10185  16.580  21.440  19.400
  425BOLB   C2B10186  16.700  21.860  19.670
  425BOLB   C3B10187  16.670  22.000  20.140
  425BOLB   C4B10188  16.430  21.930  20.480
  425BOLB   NC210189  15.900  20.930  22.720
  425BOLB   PO210190  15.900  20.910  22.280
  425BOLB   GL310191  15.990  20.740  21.910
  425BOLB   GL410192  16.130  21.000  21.740
  425BOLB   C1C10193  16.130  20.470  21.680
  425BOLB   C2C10194  16.190  20.650  21.340
  425BOLB   C3C10195  16.350  20.470  21.030
  425BOLB   C4C10196  16.570  20.330  20.630
  425BOLB   C1D10197  16.580  21.090  21.490
  425BOLB   C2D10198  16.990  21.230  21.350
  425BOLB   C3D10199  17.250  21.020  21.170
  425BOLB   C4D10200  17.670  20.800  20.980
  426BOLB   NC110201  17.140  22.380  16.990
  426BOLB   PO110202  16.890  22.100  16.660
  426BOLB   GL110203  16.620  22.360  16.990
  426BOLB   GL210204  16.300  22.600  17.030
  426BOLB   C1A10205  16.710  22.670  17.360
  426BOLB   C2A10206  16.690  23.050  17.620
  426BOLB   C3A10207  16.730  23.270  17.960
  426BOLB   C4A10208  16.450  23.460  17.940
  426BOLB   C1B10209  16.190  22.800  17.340
  426BOLB   C2B10210  16.260  23.280  17.440
  426BOLB   C3B10211  16.140  23.640  17.600
  426BOLB   C4B10212  16.420  23.990  17.840
  426BOLB   NC210213  16.360  25.390  18.940
  426BOLB   PO210214  15.940  25.420  19.030
  426BOLB   GL310215  16.040  24.950  18.810
  426BOLB   GL410216  15.830  24.740  18.850
  426BOLB   C1C10217  16.130  24.800  18.440
  426BOLB   C2C10218  16.190  24.380  18.120
  426BOLB   C3C10219  15.990  23.970  18.000
  426BOLB   C4C10220  16.090  23.550  18.130
  426BOLB   C1D10221  15.630  24.350  18.770
  426BOLB   C2D10222  15.770  23.950  18.810
  426BOLB   C3D10223  15.600  23.520  18.880
  426BOLB   C4D10224  15.410  23.120  18.670
  427BOLB   NC110225  15.930   9.860  19.510
  427BOLB   PO110226  15.920  10.040  19.930
  427BOLB   GL110227  15.620   9.830  20.130
  427BOLB   GL210228  15.560   9.480  20.300
  427BOLB   C1A10229  15.590   9.930  20.510
  427BOLB   C2A10230  15.470   9.830  20.860
  427BOLB   C3A10231  15.260   9.740  21.160
  427BOLB   C4A10232  15.020   9.830  21.560
  427BOLB   C1B10233  15.510   9.340  20.710
  427BOLB   C2B10234  15.510   9.270  21.150
  427BOLB   C3B10235  15.470   9.290  21.580
  427BOLB   C4B10236  15.690   9.500  21.880
  427BOLB   NC210237  14.150  10.240  24.030
  427BOLB   PO210238  14.430  10.630  23.930
  427BOLB   GL310239  14.770  10.600  23.550
  427BOLB   GL410240  14.800  10.210  23.390
  427BOLB   C1C10241  14.890  10.520  23.060
  427BOLB   C2C10242  15.090  10.420  22.630
  427BOLB   C3C10243  15.290  10.430  22.270
  427BOLB   C4C10244  15.200  10.080  21.880
  427BOLB   C1D10245  14.990  10.010  23.070
  427BOLB   C2D10246  15.030   9.860  22.630
  427BOLB   C3D10247  15.200   9.730  22.240
  427BOLB   C4D10248  15.110   9.460  21.930
  428BOLB   NC110249  16.320  21.460  17.150
  428BOLB   PO110250  16.040  21.580  17.370
  428BOLB   GL110251  15.870  21.930  17.560
  428BOLB   GL210252  15.560  21.940  17.500
  428BOLB   C1A10253  15.910  22.240  17.790
  428BOLB   C2A10254  15.980  22.560  18.070
  428BOLB   C3A10255  15.860  22.910  18.240
  428BOLB   C4A10256  15.680  23.200  18.250
  428BOLB   C1B10257  15.360  22.260  17.640
  428BOLB   C2B10258  14.980  22.600  17.780
  428BOLB   C3B10259  14.500  22.570  17.720
  428BOLB   C4B10260  14.050  22.570  17.560
  428BOLB   NC210261  14.740  25.560  18.160
  428BOLB   PO210262  14.600  25.250  18.370
  428BOLB   GL310263  14.550  24.900  18.110
  428BOLB   GL410264  14.260  24.780  17.990
  428BOLB   C1C10265  14.710  24.420  18.230
  428BOLB   C2C10266  15.200  24.390  18.230
  428BOLB   C3C10267  15.430  24.070  18.240
  428BOLB   C4C10268  15.660  23.720  18.390
  428BOLB   C1D10269  14.460  24.410  17.800
  428BOLB   C2D10270  14.970  24.230  17.840
  428BOLB   C3D10271  15.240  23.860  17.770
  428BOLB   C4D10272  15.250  23.430  18.000
  429BOLB   NC110273  16.030   8.110  24.260
  429BOLB   PO110274  16.150   8.020  23.910
  429BOLB   GL110275  16.000   8.170  23.530
  429BOLB   GL210276  15.770   8.440  23.530
  429BOLB   C1A10277  15.990   8.150  23.160
  429BOLB   C2A10278  16.120   8.280  22.750
  429BOLB   C3A10279  16.160   8.390  22.350
  429BOLB   C4A10280  15.770   8.180  22.120
  429BOLB   C1B10281  15.770   8.590  23.010
  429BOLB   C2B10282  15.690   8.530  22.580
  429BOLB   C3B10283  15.700   8.720  22.220
  429BOLB   C4B10284  15.950   8.610  21.770
  429BOLB   NC210285  14.730   6.070  23.070
  429BOLB   PO210286  14.960   5.950  22.880
  429BOLB   GL310287  15.090   6.320  22.650
  429BOLB   GL410288  15.000   6.370  22.320
  429BOLB   C1C10289  14.970   6.830  22.480
  429BOLB   C2C10290  15.190   7.160  22.350
  429BOLB   C3C10291  15.470   7.360  21.980
  429BOLB   C4C10292  15.710   7.770  21.910
  429BOLB   C1D10293  15.220   6.650  22.060
  429BOLB   C2D10294  15.390   6.890  21.770
  429BOLB   C3D10295  15.570   7.320  21.490
  429BOLB   C4D10296  15.610   7.670  21.360
  430BOLB   NC110297  27.840  15.050  11.930
  430BOLB   PO110298  27.900  15.270  12.280
  430BOLB   GL110299  28.100  15.500  12.030
  430BOLB   GL210300  28.100  15.900  12.020
  430BOLB   C1A10301  28.560  15.650  12.010
  430BOLB   C2A10302  28.990  15.810  11.830
  430BOLB   C3A10303  29.420  15.760  11.610
  430BOLB   C4A10304  29.690  15.970  11.500
  430BOLB   C1B10305  28.390  16.010  11.720
  430BOLB   C2B10306  28.680  16.000  11.470
  430BOLB   C3B10307  29.100  15.970  11.350
  430BOLB   C4B10308  29.390  15.980  11.090
  430BOLB   NC210309  32.070  16.160  11.550
  430BOLB   PO210310  32.000  16.520  11.280
  430BOLB   GL310311  31.480  16.590  11.130
  430BOLB   GL410312  31.530  16.380  10.920
  430BOLB   C1C10313  31.190  16.580  11.460
  430BOLB   C2C10314  30.820  16.450  11.620
  430BOLB   C3C10315  30.420  16.500  11.640
  430BOLB   C4C10316  30.020  16.340  11.640
  430BOLB   C1D10317  31.120  16.130  11.170
  430BOLB   C2D10318  30.770  15.870  11.350
  430BOLB   C3D10319  30.530  15.950  11.610
  430BOLB   C4D10320  30.520  16.220  12.010
  431BOLB   NC110321  20.400  22.220   9.240
  431BOLB   PO110322  20.840  22.360   9.210
  431BOLB   GL110323  20.930  22.700   8.960
  431BOLB   GL210324  20.670  23.010   8.900
  431BOLB   C1A10325  21.250  22.920   8.800
  431BOLB   C2A10326  21.330  23.320   8.690
  431BOLB   C3A10327  21.560  23.680   8.710
  431BOLB   C4A10328  21.730  24.100   8.650
  431BOLB   C1B10329  20.890  23.140   8.480
  431BOLB   C2B10330  20.960  23.410   8.270
  431BOLB   C3B10331  21.010  23.290   7.850
  431BOLB   C4B10332  21.080  22.970   7.510
  431BOLB   NC210333  21.650  26.390   8.780
  431BOLB   PO210334  21.270  26.310   9.130
  431BOLB   GL310335  21.070  26.010   9.190
  431BOLB   GL410336  20.830  26.010   9.420
  431BOLB   C1C10337  21.170  25.560   9.140
  431BOLB   C2C10338  21.520  25.300   9.080
  431BOLB   C3C10339  21.590  24.850   8.950
  431BOLB   C4C10340  21.740  24.440   8.840
  431BOLB   C1D10341  20.720  25.680   9.510
  431BOLB   C2D10342  20.920  25.240   9.560
  431BOLB   C3D10343  20.770  24.840   9.550
  431BOLB   C4D10344  20.800  24.440   9.710
  432BOLB   NC110345  14.800  13.320  19.540
  432BOLB   PO110346  14.820  12.990  19.860
  432BOLB   GL110347  14.440  13.360  19.890
  432BOLB   GL210348  14.260  13.110  20.070
  432BOLB   C1A10349  14.480  13.680  20.130
  432BOLB   C2A10350  14.540  13.810  20.430
  432BOLB   C3A10351  14.450  13.870  20.800
  432BOLB   C4A10352  14.640  14.120  21.130
  432BOLB   C1B10353  14.200  13.410  20.390
  432BOLB   C2B10354  14.030  13.610  20.740
  432BOLB   C3B10355  14.070  13.820  21.160
  432BOLB   C4B10356  14.200  13.750  21.640
  432BOLB   NC210357  14.370  15.120  23.540
  432BOLB   PO210358  13.930  15.080  23.450
  432BOLB   GL310359  14.220  14.910  23.070
  432BOLB   GL410360  14.470  15.120  23.060
  432BOLB   C1C10361  14.330  14.900  22.660
  432BOLB   C2C10362  14.420  14.710  22.320
  432BOLB   C3C10363  14.520  14.600  22.070
  432BOLB   C4C10364  14.520  14.310  21.640
  432BOLB   C1D10365  14.780  15.030  22.860
  432BOLB   C2D10366  15.290  14.740  22.690
  432BOLB   C3D10367  15.690  14.700  22.450
  432BOLB   C4D10368  15.940  14.730  22.070
  433BOLB   NC110369  28.570  13.530  13.710
  433BOLB   PO110370  28.730  13.350  14.120
  433BOLB   GL110371  29.000  13.110  14.060
  433BOLB   GL210372  28.920  12.800  14.030
  433BOLB   C1A10373  29.380  13.300  14.030
  433BOLB   C2A10374  29.820  13.430  13.930
  433BOLB   C3A10375  30.280  13.490  14.050
  433BOLB   C4A10376  30.730  13.670  14.130
  433BOLB   C1B10377  29.380  12.730  14.080
  433BOLB   C2B10378  29.750  12.810  14.170
  433BOLB   C3B10379  30.190  12.900  14.140
  433BOLB   C4B10380  30.340  12.790  14.530
  433BOLB   NC210381  32.490  15.310  12.950
  433BOLB   PO210382  32.630  14.880  13.030
  433BOLB   GL310383  32.410  14.700  13.330
  433BOLB   GL410384  32.230  14.920  13.420
  433BOLB   C1C10385  32.180  14.330  13.520
  433BOLB   C2C10386  31.770  14.320  13.740
  433BOLB   C3C10387  31.380  14.150  13.790
  433BOLB   C4C10388  31.140  13.910  14.120
  433BOLB   C1D10389  31.860  14.750  13.500
  433BOLB   C2D10390  31.490  14.690  13.800
  433BOLB   C3D10391  31.290  14.940  13.490
  433BOLB   C4D10392  31.490  15.110  13.110
  434BOLB   NC110393  20.120  23.540  14.560
  434BOLB   PO110394  20.030  23.670  14.160
  434BOLB   GL110395  20.300  24.060  14.180
  434BOLB   GL210396  20.660  24.020  14.180
  434BOLB   C1A10397  20.360  24.440  14.140
  434BOLB   C2A10398  20.400  24.800  14.180
  434BOLB   C3A10399  20.290  25.280  14.180
  434BOLB   C4A10400  20.110  25.630  13.900
  434BOLB   C1B10401  20.870  24.450  13.960
  434BOLB   C2B10402  20.960  24.860  13.930
  434BOLB   C3B10403  21.130  25.210  13.960
  434BOLB   C4B10404  21.010  25.670  13.870
  434BOLB   NC210405  19.270  27.690  14.780
  434BOLB   PO210406  19.620  27.750  14.500
  434BOLB   GL310407  19.850  27.450  14.420
  434BOLB   GL410408  19.890  27.110  14.540
  434BOLB   C1C10409  19.920  27.240  14.000
  434BOLB   C2C10410  20.310  26.900  13.920
  434BOLB   C3C10411  20.360  26.450  13.910
  434BOLB   C4C10412  20.190  26.050  13.880
  434BOLB   C1D10413  19.810  26.800  14.290
  434BOLB   C2D10414  19.990  26.570  14.290
  434BOLB   C3D10415  20.190  26.240  14.380
  434BOLB   C4D10416  20.560  26.000  14.560
  435BOLB   NC110417  24.230  17.880  18.820
  435BOLB   PO110418  24.370  17.520  18.870
  435BOLB   GL110419  24.410  17.620  19.280
  435BOLB   GL210420  24.110  17.890  19.280
  435BOLB   C1A10421  24.690  17.660  19.560
  435BOLB   C2A10422  24.970  17.770  19.790
  435BOLB   C3A10423  25.060  18.060  20.050
  435BOLB   C4A10424  25.220  17.990  20.490
  435BOLB   C1B10425  24.380  18.150  19.480
  435BOLB   C2B10426  24.640  18.280  19.850
  435BOLB   C3B10427  24.650  18.420  20.180
  435BOLB   C4B10428  24.380  18.770  20.440
  435BOLB   NC210429  26.600  18.080  22.680
  435BOLB   PO210430  26.450  18.390  22.460
  435BOLB   GL310431  26.120  18.620  22.180
  435BOLB   GL410432  25.770  18.470  22.240
  435BOLB   C1C10433  26.000  18.730  21.800
  435BOLB   C2C10434  25.880  18.420  21.470
  435BOLB   C3C10435  25.780  18.160  21.220
  435BOLB   C4C10436  25.450  18.100  20.870
  435BOLB   C1D10437  25.470  18.260  22.000
  435BOLB   C2D10438  25.550  18.060  21.650
  435BOLB   C3D10439  25.320  17.850  21.280
  435BOLB   C4D10440  24.880  17.670  21.280
  436BOLB   NC110441  20.310  23.380  12.830
  436BOLB   PO110442  20.790  23.540  12.930
  436BOLB   GL110443  21.040  23.880  12.750
  436BOLB   GL210444  21.150  23.940  13.030
  436BOLB   C1A10445  20.820  24.240  12.690
  436BOLB   C2A10446  20.870  24.560  12.590
  436BOLB   C3A10447  20.640  24.930  12.710
  436BOLB   C4A10448  20.610  25.340  12.560
  436BOLB   C1B10449  21.120  24.370  13.030
  436BOLB   C2B10450  21.290  24.780  12.890
  436BOLB   C3B10451  21.510  25.070  13.120
  436BOLB   C4B10452  21.810  25.370  13.420
  436BOLB   NC210453  21.400  27.620  12.850
  436BOLB   PO210454  21.410  27.610  12.470
  436BOLB   GL310455  21.330  27.160  12.500
  436BOLB   GL410456  20.990  27.250  12.730
  436BOLB   C1C10457  21.450  26.710  12.460
  436BOLB   C2C10458  21.220  26.370  12.410
  436BOLB   C3C10459  20.870  26.070  12.380
  436BOLB   C4C10460  20.530  25.820  12.440
  436BOLB   C1D10461  20.960  26.840  12.730
  436BOLB   C2D10462  20.800  26.480  12.760
  436BOLB   C3D10463  20.720  26.060  12.860
  436BOLB   C4D10464  20.550  25.690  12.970
  437BOLB   NC110465  10.130  14.090  16.140
  437BOLB   PO110466  10.360  14.300  16.350
  437BOLB   GL110467   9.930  14.500  16.290
  437BOLB   GL210468   9.710  14.320  16.340
  437BOLB   C1A10469   9.550  14.790  16.110
  437BOLB   C2A10470   9.070  14.800  15.990
  437BOLB   C3A10471   8.730  15.090  16.160
  437BOLB   C4A10472   8.300  15.030  16.140
  437BOLB   C1B10473   9.550  14.640  16.610
  437BOLB   C2B10474   9.260  14.680  17.020
  437BOLB   C3B10475   8.990  14.360  17.210
  437BOLB   C4B10476   8.900  13.950  17.150
  437BOLB   NC210477   6.080  15.700  16.900
  437BOLB   PO210478   5.880  15.990  16.650
  437BOLB   GL310479   6.340  16.010  16.470
  437BOLB   GL410480   6.570  16.130  16.630
  437BOLB   C1C10481   6.500  15.710  16.200
  437BOLB   C2C10482   6.980  15.540  16.310
  437BOLB   C3C10483   7.420  15.410  16.320
  437BOLB   C4C10484   7.870  15.190  16.260
  437BOLB   C1D10485   6.950  16.030  16.400
  437BOLB   C2D10486   7.260  15.940  16.430
  437BOLB   C3D10487   7.680  15.790  16.370
  437BOLB   C4D10488   8.090  15.930  16.250
  438BOLB   NC110489  25.240  20.600  14.470
  438BOLB   PO110490  25.280  20.660  14.030
  438BOLB   GL110491  25.490  20.990  14.070
  438BOLB   GL210492  25.560  20.960  14.380
  438BOLB   C1A10493  25.840  21.030  13.800
  438BOLB   C2A10494  26.190  21.000  13.810
  438BOLB   C3A10495  26.480  21.300  13.680
  438BOLB   C4A10496  26.700  21.720  13.600
  438BOLB   C1B10497  25.870  21.070  14.650
  438BOLB   C2B10498  26.110  21.260  14.970
  438BOLB   C3B10499  26.410  21.420  15.240
  438BOLB   C4B10500  26.500  21.490  15.660
  438BOLB   NC210501  27.920  24.160  13.740
  438BOLB   PO210502  28.150  23.780  13.830
  438BOLB   GL310503  28.070  23.340  13.730
  438BOLB   GL410504  28.250  23.120  13.910
  438BOLB   C1C10505  27.700  23.030  13.550
  438BOLB   C2C10506  27.390  22.850  13.310
  438BOLB   C3C10507  27.250  22.430  13.290
  438BOLB   C4C10508  26.850  22.130  13.370
  438BOLB   C1D10509  28.290  22.780  13.810
  438BOLB   C2D10510  28.300  22.400  13.870
  438BOLB   C3D10511  28.500  22.190  13.770
  438BOLB   C4D10512  28.640  21.890  13.450
  439BOLB   NC110513  14.080  13.310  18.880
  439BOLB   PO110514  14.130  13.810  19.020
  439BOLB   GL110515  13.940  13.870  19.450
  439BOLB   GL210516  13.660  13.670  19.560
  439BOLB   C1A10517  13.650  14.020  19.890
  439BOLB   C2A10518  13.440  14.000  20.240
  439BOLB   C3A10519  13.090  14.260  20.340
  439BOLB   C4A10520  12.720  14.450  20.560
  439BOLB   C1B10521  13.430  13.530  19.990
  439BOLB   C2B10522  13.160  13.390  20.290
  439BOLB   C3B10523  12.910  13.130  20.440
  439BOLB   C4B10524  12.930  12.670  20.680
  439BOLB   NC210525  11.360  15.220  22.230
  439BOLB   PO210526  11.600  14.810  22.190
  439BOLB   GL310527  11.830  14.990  21.890
  439BOLB   GL410528  12.150  15.030  22.080
  439BOLB   C1C10529  12.160  15.270  21.630
  439BOLB   C2C10530  12.350  15.190  21.330
  439BOLB   C3C10531  12.360  14.810  21.130
  439BOLB   C4C10532  12.490  14.450  20.930
  439BOLB   C1D10533  12.360  14.670  22.110
  439BOLB   C2D10534  12.630  14.390  22.040
  439BOLB   C3D10535  12.980  14.280  21.690
  439BOLB   C4D10536  13.080  14.080  21.350
  440BOLB   NC110537  14.500  22.000  14.770
  440BOLB   PO110538  14.960  22.250  14.660
  440BOLB   GL110539  14.630  22.580  14.820
  440BOLB   GL210540  14.810  22.760  14.590
  440BOLB   C1A10541  14.280  22.770  15.070
  440BOLB   C2A10542  14.220  23.180  15.050
  440BOLB   C3A10543  14.170  23.540  15.160
  440BOLB   C4A10544  14.070  24.060  15.090
  440BOLB   C1B10545  14.640  23.100  14.770
  440BOLB   C2B10546  14.630  23.390  15.150
  440BOLB   C3B10547  14.620  23.660  15.550
  440BOLB   C4B10548  14.380  24.010  15.510
  440BOLB   NC210549  13.480  26.420  15.810
  440BOLB   PO210550  13.260  26.050  15.900
  440BOLB   GL310551  13.230  25.710  15.970
  440BOLB   GL410552  13.110  25.550  16.000
  440BOLB   C1C10553  13.610  25.490  16.060
  440BOLB   C2C10554  13.850  25.060  15.890
  440BOLB   C3C10555  14.020  24.850  15.460
  440BOLB   C4C10556  14.220  24.460  15.260
  440BOLB   C1D10557  13.250  25.160  15.980
  440BOLB   C2D10558  13.420  24.820  15.910
  440BOLB   C3D10559  13.370  24.420  15.820
  440BOLB   C4D10560  13.250  24.180  15.530
  441BOLB   NC110561  23.880  11.700  19.950
  441BOLB   PO110562  23.910  11.140  20.050
  441BOLB   GL110563  23.970  11.260  20.460
  441BOLB   GL210564  24.050  11.570  20.480
  441BOLB   C1A10565  24.090  11.250  20.870
  441BOLB   C2A10566  24.540  11.270  21.060
  441BOLB   C3A10567  24.950  11.130  21.130
  441BOLB   C4A10568  24.840  10.850  21.510
  441BOLB   C1B10569  24.490  11.610  20.510
  441BOLB   C2B10570  24.780  11.240  20.640
  441BOLB   C3B10571  25.230  11.210  20.670
  441BOLB   C4B10572  25.670  11.050  20.700
  441BOLB   NC210573  25.050  10.930  23.630
  441BOLB   PO210574  24.640  10.900  23.600
  441BOLB   GL310575  24.330  10.710  23.310
  441BOLB   GL410576  23.920  10.570  23.530
  441BOLB   C1C10577  24.140  10.920  22.910
  441BOLB   C2C10578  24.070  11.040  22.480
  441BOLB   C3C10579  24.300  11.020  22.160
  441BOLB   C4C10580  24.520  10.930  21.760
  441BOLB   C1D10581  23.590  10.640  23.170
  441BOLB   C2D10582  23.230  10.690  22.960
  441BOLB   C3D10583  22.850  10.810  23.130
  441BOLB   C4D10584  22.610  11.100  23.220
  442BOLB   NC110585  12.570   9.890  17.860
  442BOLB   PO110586  12.420   9.730  17.480
  442BOLB   GL110587  12.050   9.380  17.440
  442BOLB   GL210588  12.150   9.350  17.130
  442BOLB   C1A10589  11.770   9.180  17.530
  442BOLB   C2A10590  11.510   9.350  17.880
  442BOLB   C3A10591  11.150   9.280  18.050
  442BOLB   C4A10592  10.950   9.430  18.510
  442BOLB   C1B10593  11.700   9.240  17.060
  442BOLB   C2B10594  11.370   8.880  17.070
  442BOLB   C3B10595  11.100   8.470  16.880
  442BOLB   C4B10596  10.830   8.120  16.990
  442BOLB   NC210597   9.100   8.780  20.060
  442BOLB   PO210598   9.100   9.010  19.610
  442BOLB   GL310599   9.550   9.000  19.750
  442BOLB   GL410600   9.700   9.330  19.760
  442BOLB   C1C10601   9.950   8.890  19.610
  442BOLB   C2C10602  10.280   8.990  19.320
  442BOLB   C3C10603  10.540   9.070  18.980
  442BOLB   C4C10604  10.830   9.300  18.850
  442BOLB   C1D10605   9.660   9.670  19.570
  442BOLB   C2D10606   9.560   9.970  19.200
  442BOLB   C3D10607   9.740   9.950  18.850
  442BOLB   C4D10608  10.120   9.930  18.660
  443BOLB   NC110609  22.830  10.320  19.690
  443BOLB   PO110610  23.000  10.660  19.940
  443BOLB   GL110611  23.040  10.720  20.370
  443BOLB   GL210612  22.790  10.700  20.590
  443BOLB   C1A10613  23.310  10.790  20.700
  443BOLB   C2A10614  23.330  10.750  21.100
  443BOLB   C3A10615  23.330  10.530  21.380
  443BOLB   C4A10616  23.260  10.500  21.830
  443BOLB   C1B10617  22.830  10.690  21.060
  443BOLB   C2B10618  22.890  10.680  21.470
  443BOLB   C3B10619  22.970  10.960  21.780
  443BOLB   C4B10620  23.110  11.020  22.090
  443BOLB   NC210621  23.920  10.420  24.110
  443BOLB   PO210622  24.220  10.090  24.100
  443BOLB   GL310623  24.200  10.030  23.580
  443BOLB   GL410624  23.910   9.890  23.620
  443BOLB   C1C10625  24.110  10.140  23.110
  443BOLB   C2C10626  24.010  10.430  22.890
  443BOLB   C3C10627  23.700  10.670  22.670
  443BOLB   C4C10628  23.450  10.660  22.260
  443BOLB   C1D10629  23.590  10.100  23.260
  443BOLB   C2D10630  23.540  10.210  22.840
  443BOLB   C3D10631  23.400  10.220  22.560
  443BOLB   C4D10632  23.370  10.090  22.120
  444BOLB   NC110633  17.260  20.420  17.660
  444BOLB   PO110634  17.490  20.680  18.030
  444BOLB   GL110635  17.450  20.910  18.490
  444BOLB   GL210636  17.120  20.900  18.690
  444BOLB   C1A10637  17.580  21.150  18.830
  444BOLB   C2A10638  17.600  21.080  19.220
  444BOLB   C3A10639  17.590  21.310  19.520
  444BOLB   C4A10640  17.360  21.480  19.920
  444BOLB   C1B10641  17.110  21.020  19.090
  444BOLB   C2B10642  17.260  21.480  19.200
  444BOLB   C3B10643  17.200  21.820  19.500
  444BOLB   C4B10644  17.150  22.010  19.890
  444BOLB   NC210645  16.360  21.310  22.050
  444BOLB   PO210646  16.790  21.530  21.920
  444BOLB   GL310647  16.590  21.600  21.560
  444BOLB   GL410648  16.280  21.640  21.620
  444BOLB   C1C10649  16.690  21.560  21.110
  444BOLB   C2C10650  16.670  21.560  20.760
  444BOLB   C3C10651  16.730  21.480  20.370
  444BOLB   C4C10652  16.860  21.470  20.000
  444BOLB   C1D10653  16.110  21.810  21.250
  444BOLB   C2D10654  16.170  21.610  20.880
  444BOLB   C3D10655  16.160  21.460  20.510
  444BOLB   C4D10656  15.940  21.130  20.120
  445BOLB   NC110657  23.940   5.740  22.040
  445BOLB   PO110658  23.540   5.570  22.140
  445BOLB   GL110659  23.450   5.760  21.770
  445BOLB   GL210660  23.170   6.010  21.800
  445BOLB   C1A10661  23.410   5.700  21.290
  445BOLB   C2A10662  23.270   5.720  20.910
  445BOLB   C3A10663  23.080   5.700  20.590
  445BOLB   C4A10664  22.810   5.490  20.310
  445BOLB   C1B10665  23.390   6.210  21.510
  445BOLB   C2B10666  23.570   6.430  21.270
  445BOLB   C3B10667  23.880   6.680  21.000
  445BOLB   C4B10668  23.920   6.960  20.750
  445BOLB   NC210669  23.570   4.420  22.320
  445BOLB   PO210670  23.190   4.480  22.070
  445BOLB   GL310671  23.180   4.720  21.680
  445BOLB   GL410672  23.380   4.680  21.510
  445BOLB   C1C10673  22.940   4.980  21.440
  445BOLB   C2C10674  22.540   5.000  21.260
  445BOLB   C3C10675  22.400   5.040  20.910
  445BOLB   C4C10676  22.600   5.190  20.420
  445BOLB   C1D10677  23.450   4.980  21.250
  445BOLB   C2D10678  23.450   5.300  20.860
  445BOLB   C3D10679  23.590   5.630  20.530
  445BOLB   C4D10680  23.410   5.460  20.150
  446BOLB   NC110681  25.890  23.380   7.830
  446BOLB   PO110682  25.590  23.540   7.530
  446BOLB   GL110683  25.310  23.360   7.810
  446BOLB   GL210684  25.290  23.450   8.160
  446BOLB   C1A10685  24.930  23.110   7.960
  446BOLB   C2A10686  24.750  22.900   8.360
  446BOLB   C3A10687  24.570  22.730   8.780
  446BOLB   C4A10688  24.660  22.620   9.240
  446BOLB   C1B10689  25.180  23.210   8.470
  446BOLB   C2B10690  25.400  22.910   8.720
  446BOLB   C3B10691  25.580  22.740   9.060
  446BOLB   C4B10692  25.960  22.830   9.260
  446BOLB   NC210693  25.630  23.810   7.960
  446BOLB   PO210694  25.730  23.770   8.330
  446BOLB   GL310695  25.380  23.760   8.560
  446BOLB   GL410696  25.000  23.930   8.590
  446BOLB   C1C10697  25.080  23.500   8.870
  446BOLB   C2C10698  25.000  23.490   9.350
  446BOLB   C3C10699  24.900  23.230   9.650
  446BOLB   C4C10700  24.800  22.810   9.590
  446BOLB   C1D10701  24.560  23.790   8.790
  446BOLB   C2D10702  24.190  23.590   8.660
  446BOLB   C3D10703  24.190  23.210   8.780
  446BOLB   C4D10704  24.060  22.860   9.000
  447BOLB   NC110705  16.400  13.910  20.080
  447BOLB   PO110706  16.030  13.960  19.750
  447BOLB   GL110707  15.740  14.080  20.020
  447BOLB   GL210708  15.560  13.880  20.190
  447BOLB   C1A10709  15.510  14.390  20.270
  447BOLB   C2A10710  15.410  14.720  20.480
  447BOLB   C3A10711  15.180  14.870  20.920
  447BOLB   C4A10712  15.170  15.120  21.230
  447BOLB   C1B10713  15.630  13.880  20.620
  447BOLB   C2B10714  15.500  13.660  20.920
  447BOLB   C3B10715  15.360  13.750  21.340
  447BOLB   C4B10716  15.260  13.510  21.770
  447BOLB   NC210717  14.760  15.820  23.620
  447BOLB   PO210718  15.140  15.680  23.700
  447BOLB   GL310719  15.140  15.800  23.160
  447BOLB   GL410720  15.230  15.450  23.100
  447BOLB   C1C10721  15.140  15.930  22.730
  447BOLB   C2C10722  15.030  15.730  22.310
  447BOLB   C3C10723  14.940  15.320  21.920
  447BOLB   C4C10724  15.230  15.080  21.700
  447BOLB   C1D10725  15.510  15.360  22.790
  447BOLB   C2D10726  15.820  15.170  22.470
  447BOLB   C3D10727  16.230  15.130  22.340
  447BOLB   C4D10728  16.500  14.820  22.350
  448BOLB   NC110729  17.130  17.200  19.550
  448BOLB   PO110730  17.460  17.300  19.810
  448BOLB   GL110731  17.600  17.550  20.170
  448BOLB   GL210732  17.800  17.830  20.100
  448BOLB   C1A10733  17.570  17.880  20.540
  448BOLB   C2A10734  17.290  18.140  20.660
  448BOLB   C3A10735  17.020  18.100  20.980
  448BOLB   C4A10736  16.830  18.300  21.220
  448BOLB   C1B10737  18.010  18.190  20.430
  448BOLB   C2B10738  17.860  18.390  20.840
  448BOLB   C3B10739  17.550  18.390  21.190
  448BOLB   C4B10740  17.250  18.270  21.470
  448BOLB   NC210741  16.140  19.390  23.470
  448BOLB   PO210742  15.800  19.080  23.260
  448BOLB   GL310743  16.010  18.710  23.170
  448BOLB   GL410744  15.750  18.560  23.070
  448BOLB   C1C10745  16.290  18.700  22.720
  448BOLB   C2C10746  16.380  18.450  22.370
  448BOLB   C3C10747  16.520  18.480  22.030
  448BOLB   C4C10748  16.710  18.330  21.620
  448BOLB   C1D10749  15.790  18.420  22.620
  448BOLB   C2D10750  15.920  18.210  22.260
  448BOLB   C3D10751  16.120  18.170  21.890
  448BOLB   C4D10752  16.000  18.150  21.550
  449BOLB   NC110753  14.660  19.660  17.380
  449BOLB   PO110754  14.640  20.080  17.520
  449BOLB   GL110755  14.370  20.370  17.780
  449BOLB   GL210756  14.210  20.330  17.520
  449BOLB   C1A10757  14.200  20.540  18.140
  449BOLB   C2A10758  14.170  20.900  18.420
  449BOLB   C3A10759  14.010  21.250  18.570
  449BOLB   C4A10760  13.770  21.450  18.960
  449BOLB   C1B10761  13.850  20.670  17.670
  449BOLB   C2B10762  13.740  20.800  18.050
  449BOLB   C3B10763  13.520  21.000  18.420
  449BOLB   C4B10764  13.400  21.060  18.800
  449BOLB   NC210765  12.760  22.630  20.120
  449BOLB   PO210766  12.420  22.640  19.980
  449BOLB   GL310767  12.390  22.490  19.560
  449BOLB   GL410768  12.230  22.240  19.570
  449BOLB   C1C10769  12.760  22.420  19.220
  449BOLB   C2C10770  13.280  22.230  19.160
  449BOLB   C3C10771  13.650  22.210  18.900
  449BOLB   C4C10772  13.880  21.900  18.970
  449BOLB   C1D10773  12.550  21.980  19.490
  449BOLB   C2D10774  12.970  21.840  19.330
  449BOLB   C3D10775  13.120  21.710  18.930
  449BOLB   C4D10776  13.390  21.600  18.630
  450BOLB   NC110777  23.880  21.090  16.360
  450BOLB   PO110778  23.790  21.040  16.720
  450BOLB   GL110779  24.000  21.320  17.000
  450BOLB   GL210780  23.770  21.150  17.250
  450BOLB   C1A10781  24.320  21.520  17.270
  450BOLB   C2A10782  24.240  21.780  17.500
  450BOLB   C3A10783  23.910  22.090  17.550
  450BOLB   C4A10784  23.900  22.530  17.620
  450BOLB   C1B10785  23.820  21.470  17.630
  450BOLB   C2B10786  24.020  21.700  17.950
  450BOLB   C3B10787  23.930  22.020  18.140
  450BOLB   C4B10788  23.590  22.220  18.280
  450BOLB   NC210789  24.630  24.260  19.670
  450BOLB   PO210790  24.170  24.220  19.390
  450BOLB   GL310791  24.060  23.910  18.980
  450BOLB   GL410792  24.190  23.600  19.000
  450BOLB   C1C10793  24.020  23.770  18.520
  450BOLB   C2C10794  23.870  23.710  18.100
  450BOLB   C3C10795  23.760  23.360  17.840
  450BOLB   C4C10796  23.920  22.990  17.650
  450BOLB   C1D10797  24.210  23.350  18.760
  450BOLB   C2D10798  24.180  23.300  18.370
  450BOLB   C3D10799  24.220  23.340  17.950
  450BOLB   C4D10800  24.220  23.580  17.690
  451BOLB   NC110801  24.590   9.010  18.430
  451BOLB   PO110802  24.920   8.800  18.390
  451BOLB   GL110803  25.330   8.770  18.720
  451BOLB   GL210804  25.570   8.570  18.600
  451BOLB   C1A10805  25.440   8.750  19.210
  451BOLB   C2A10806  25.620   8.670  19.560
  451BOLB   C3A10807  25.570   8.380  19.900
  451BOLB   C4A10808  25.690   8.220  20.190
  451BOLB   C1B10809  25.750   8.530  18.940
  451BOLB   C2B10810  26.020   8.300  19.340
  451BOLB   C3B10811  26.340   8.260  19.430
  451BOLB   C4B10812  26.760   7.970  19.560
  451BOLB   NC210813  27.160   7.650  22.190
  451BOLB   PO210814  26.750   7.730  22.220
  451BOLB   GL310815  26.460   7.870  21.920
  451BOLB   GL410816  26.290   8.060  22.110
  451BOLB   C1C10817  26.180   7.950  21.620
  451BOLB   C2C10818  25.950   8.080  21.250
  451BOLB   C3C10819  25.880   7.950  20.830
  451BOLB   C4C10820  25.710   8.000  20.460
  451BOLB   C1D10821  26.380   8.360  21.780
  451BOLB   C2D10822  26.370   8.340  21.320
  451BOLB   C3D10823  26.090   8.560  21.140
  451BOLB   C4D10824  25.890   8.440  20.820
  452BOLB   NC110825  23.000  11.190  20.150
  452BOLB   PO110826  22.590  10.910  20.220
  452BOLB   GL110827  22.670  11.170  20.650
  452BOLB   GL210828  22.970  11.190  20.660
  452BOLB   C1A10829  22.610  11.190  21.050
  452BOLB   C2A10830  22.400  10.940  21.460
  452BOLB   C3A10831  22.480  11.020  21.990
  452BOLB   C4A10832  22.680  10.730  22.210
  452BOLB   C1B10833  23.230  11.280  21.040
  452BOLB   C2B10834  23.350  11.120  21.460
  452BOLB   C3B10835  23.560  11.140  21.860
  452BOLB   C4B10836  23.910  11.330  22.040
  452BOLB   NC210837  23.050  10.860  24.090
  452BOLB   PO210838  23.160  10.470  24.080
  452BOLB   GL310839  23.240  10.640  23.660
  452BOLB   GL410840  23.100  10.870  23.550
  452BOLB   C1C10841  23.250  10.360  23.400
  452BOLB   C2C10842  23.120  10.210  23.070
  452BOLB   C3C10843  22.910  10.410  22.790
  452BOLB   C4C10844  23.020  10.670  22.490
  452BOLB   C1D10845  23.260  11.060  23.300
  452BOLB   C2D10846  23.060  11.200  22.900
  452BOLB   C3D10847  23.280  11.120  22.540
  452BOLB   C4D10848  23.600  11.110  22.340
  453BOLB   NC110849  19.230  15.720  20.030
  453BOLB   PO110850  19.530  15.440  20.330
  453BOLB   GL110851  19.700  15.510  20.700
  453BOLB   GL210852  19.940  15.730  20.760
  453BOLB   C1A10853  19.540  15.720  21.090
  453BOLB   C2A10854  19.440  16.120  21.340
  453BOLB   C3A10855  19.500  16.210  21.850
  453BOLB   C4A10856  19.410  16.540  22.120
  453BOLB   C1B10857  20.040  15.840  21.150
  453BOLB   C2B10858  20.060  16.130  21.530
  453BOLB   C3B10859  19.910  16.430  21.980
  453BOLB   C4B10860  19.970  16.600  22.370
  453BOLB   NC210861  18.970  15.800  24.480
  453BOLB   PO210862  18.850  15.990  24.110
  453BOLB   GL310863  19.040  16.080  23.770
  453BOLB   GL410864  19.000  15.800  23.660
  453BOLB   C1C10865  19.190  16.490  23.660
  453BOLB   C2C10866  19.330  16.640  23.240
  453BOLB   C3C10867  19.570  16.600  22.880
  453BOLB   C4C10868  19.360  16.470  22.480
  453BOLB   C1D10869  19.390  16.070  23.460
  453BOLB   C2D10870  19.690  15.930  23.220
  453BOLB   C3D10871  20.080  15.910  22.970
  453BOLB   C4D10872  20.360  15.660  22.780
  454BOLB   NC110873  25.820  18.730  16.480
  454BOLB   PO110874  26.070  19.070  16.240
  454BOLB   GL110875  26.480  19.240  16.460
  454BOLB   GL210876  26.710  19.160  16.630
  454BOLB   C1A10877  26.490  19.600  16.810
  454BOLB   C2A10878  26.840  19.810  16.990
  454BOLB   C3A10879  26.890  19.970  17.360
  454BOLB   C4A10880  26.890  20.080  17.820
  454BOLB   C1B10881  27.060  19.450  16.590
  454BOLB   C2B10882  27.430  19.580  16.590
  454BOLB   C3B10883  27.830  19.770  16.770
  454BOLB   C4B10884  28.320  19.590  16.850
  454BOLB   NC210885  28.060  21.590  19.210
  454BOLB   PO210886  28.390  21.720  18.790
  454BOLB   GL310887  28.070  21.510  18.550
  454BOLB   GL410888  27.830  21.690  18.720
  454BOLB   C1C10889  27.840  21.360  18.170
  454BOLB   C2C10890  27.510  21.150  17.990
  454BOLB   C3C10891  27.180  20.980  17.800
  454BOLB   C4C10892  26.880  20.580  17.860
  454BOLB   C1D10893  27.390  21.540  18.470
  454BOLB   C2D10894  27.100  21.260  18.330
  454BOLB   C3D10895  27.120  20.790  18.270
  454BOLB   C4D10896  27.060  20.300  18.280
  455BOLB   NC110897  11.590  11.530  16.920
  455BOLB   PO110898  11.360  11.250  16.840
  455BOLB   GL110899  11.000  10.960  16.960
  455BOLB   GL210900  10.870  11.230  17.080
  455BOLB   C1A10901  10.950  10.680  17.120
  455BOLB   C2A10902  10.630  10.410  17.260
  455BOLB   C3A10903  10.390  10.130  17.360
  455BOLB   C4A10904  10.390   9.660  17.360
  455BOLB   C1B10905  10.580  11.020  17.310
  455BOLB   C2B10906  10.150  11.080  17.470
  455BOLB   C3B10907   9.680  11.010  17.570
  455BOLB   C4B10908   9.320  10.950  17.880
  455BOLB   NC210909   8.190   8.770  17.930
  455BOLB   PO210910   8.590   8.520  17.990
  455BOLB   GL310911   8.810   8.840  17.750
  455BOLB   GL410912   8.810   8.930  17.480
  455BOLB   C1C10913   9.230   9.120  17.710
  455BOLB   C2C10914   9.520   9.230  17.580
  455BOLB   C3C10915   9.980   9.340  17.820
  455BOLB   C4C10916  10.380   9.470  17.700
  455BOLB   C1D10917   9.110   9.200  17.190
  455BOLB   C2D10918   9.500   9.340  17.100
  455BOLB   C3D10919   9.690   9.620  17.340
  455BOLB   C4D10920   9.980   9.860  17.590
  456BOLB   NC110921  16.800  22.630  10.890
  456BOLB   PO110922  16.980  22.840  10.430
  456BOLB   GL110923  16.950  23.000  10.150
  456BOLB   GL210924  17.120  23.060   9.880
  456BOLB   C1A10925  16.720  23.400  10.000
  456BOLB   C2A10926  16.670  23.790  10.010
  456BOLB   C3A10927  16.410  24.100   9.880
  456BOLB   C4A10928  16.130  24.410   9.590
  456BOLB   C1B10929  17.030  23.450   9.630
  456BOLB   C2B10930  16.950  23.700   9.300
  456BOLB   C3B10931  17.080  24.030   9.080
  456BOLB   C4B10932  17.000  24.400   9.230
  456BOLB   NC210933  14.920  26.240   9.870
  456BOLB   PO210934  15.070  26.280   9.420
  456BOLB   GL310935  15.340  25.910   9.410
  456BOLB   GL410936  15.100  25.780   9.740
  456BOLB   C1C10937  15.700  25.750   9.670
  456BOLB   C2C10938  16.020  25.420   9.510
  456BOLB   C3C10939  16.210  25.190   9.270
  456BOLB   C4C10940  16.220  24.690   9.200
  456BOLB   C1D10941  15.370  25.430   9.930
  456BOLB   C2D10942  15.850  25.340  10.010
  456BOLB   C3D10943  16.060  25.000  10.250
  456BOLB   C4D10944  16.090  24.730  10.660
  457BOLB   NC110945  24.960  14.650  19.550
  457BOLB   PO110946  25.370  14.580  19.500
  457BOLB   GL110947  25.260  14.430  19.930
  457BOLB   GL210948  25.570  14.360  19.930
  457BOLB   C1A10949  25.260  14.500  20.280
  457BOLB   C2A10950  25.530  14.520  20.630
  457BOLB   C3A10951  25.820  14.670  20.810
  457BOLB   C4A10952  26.100  14.790  21.090
  457BOLB   C1B10953  25.760  14.080  20.240
  457BOLB   C2B10954  26.020  14.240  20.590
  457BOLB   C3B10955  26.230  14.400  20.900
  457BOLB   C4B10956  26.350  14.400  21.370
  457BOLB   NC210957  28.720  15.760  21.930
  457BOLB   PO210958  28.340  15.580  21.790
  457BOLB   GL310959  27.980  15.540  21.560
  457BOLB   GL410960  28.050  15.630  21.340
  457BOLB   C1C10961  27.690  15.290  21.540
  457BOLB   C2C10962  27.220  15.210  21.450
  457BOLB   C3C10963  26.820  15.110  21.250
  457BOLB   C4C10964  26.500  14.840  21.070
  457BOLB   C1D10965  27.920  15.420  21.040
  457BOLB   C2D10966  27.520  15.160  21.030
  457BOLB   C3D10967  27.120  15.150  20.860
  457BOLB   C4D10968  26.800  15.220  20.690
  458BOLB   NC110969  18.030  20.220  18.540
  458BOLB   PO110970  18.130  20.440  18.220
  458BOLB   GL110971  18.300  20.670  18.550
  458BOLB   GL210972  17.950  20.720  18.780
  458BOLB   C1A10973  18.440  20.830  18.840
  458BOLB   C2A10974  18.480  21.070  19.230
  458BOLB   C3A10975  18.110  21.430  19.390
  458BOLB   C4A10976  17.830  21.780  19.480
  458BOLB   C1B10977  17.490  20.600  19.010
  458BOLB   C2B10978  17.260  20.600  19.440
  458BOLB   C3B10979  17.230  20.980  19.660
  458BOLB   C4B10980  17.060  21.320  19.570
  458BOLB   NC210981  17.170  23.720  21.500
  458BOLB   PO210982  17.070  23.320  21.230
  458BOLB   GL310983  17.140  22.900  20.940
  458BOLB   GL410984  16.920  22.560  20.950
  458BOLB   C1C10985  17.330  22.710  20.610
  458BOLB   C2C10986  17.340  22.720  20.120
  458BOLB   C3C10987  17.400  22.480  19.750
  458BOLB   C4C10988  17.590  22.110  19.660
  458BOLB   C1D10989  16.960  22.280  20.620
  458BOLB   C2D10990  17.120  21.860  20.470
  458BOLB   C3D10991  17.220  21.400  20.390
  458BOLB   C4D10992  17.070  21.040  20.160
  459BOLB   NC110993  14.290  21.170  16.510
  459BOLB   PO110994  14.230  21.170  16.010
  459BOLB   GL110995  13.920  21.440  16.210
  459BOLB   GL210996  13.950  21.650  15.870
  459BOLB   C1A10997  13.550  21.580  16.540
  459BOLB   C2A10998  13.350  21.600  16.950
  459BOLB   C3A10999  12.880  21.750  17.000
  459BOLB   C4A11000  12.660  22.110  17.020
  459BOLB   C1B11001  13.870  21.920  16.190
  459BOLB   C2B11002  14.030  21.840  16.590
  459BOLB   C3B11003  14.250  21.720  16.970
  459BOLB   C4B11004  14.640  21.810  17.150
  459BOLB   NC211005  12.120  24.450  17.670
  459BOLB   PO211006  11.800  24.190  17.980
  459BOLB   GL311007  12.160  23.990  17.840
  459BOLB   GL411008  12.350  23.670  18.010
  459BOLB   C1C11009  12.070  23.670  17.490
  459BOLB   C2C11010  12.050  23.240  17.460
  459BOLB   C3C11011  12.100  22.680  17.400
  459BOLB   C4C11012  12.420  22.450  17.100
  459BOLB   C1D11013  12.460  23.450  17.670
  459BOLB   C2D11014  12.620  23.360  17.330
  459BOLB   C3D11015  12.880  23.550  17.010
  459BOLB   C4D11016  13.150  23.210  16.720
  460BOLB   NC111017  19.670  19.160  18.590
  460BOLB   PO111018  19.220  19.480  18.520
  460BOLB   GL111019  19.040  19.580  18.920
  460BOLB   GL211020  18.760  19.800  19.130
  460BOLB   C1A11021  19.240  19.700  19.290
  460BOLB   C2A11022  19.420  19.960  19.630
  460BOLB   C3A11023  19.470  20.400  19.890
  460BOLB   C4A11024  19.430  20.560  20.300
  460BOLB   C1B11025  18.850  19.940  19.550
  460BOLB   C2B11026  19.090  20.020  20.010
  460BOLB   C3B11027  19.470  20.050  20.290
  460BOLB   C4B11028  19.650  20.210  20.610
  460BOLB   NC211029  19.360  21.420  22.600
  460BOLB   PO211030  19.290  21.750  22.220
  460BOLB   GL311031  19.620  21.760  21.890
  460BOLB   GL411032  19.780  22.030  21.920
  460BOLB   C1C11033  19.750  21.470  21.570
  460BOLB   C2C11034  19.530  21.190  21.280
  460BOLB   C3C11035  19.660  20.950  20.960
  460BOLB   C4C11036  19.660  20.910  20.460
  460BOLB   C1D11037  20.030  21.930  21.580
  460BOLB   C2D11038  20.190  21.570  21.390
  460BOLB   C3D11039  19.950  21.520  21.070
  460BOLB   C4D11040  19.900  21.300  20.730
  461BOLB   NC111041  12.380  20.970  15.050
  461BOLB   PO111042  12.680  21.040  14.810
  461BOLB   GL111043  12.340  21.320  14.710
  461BOLB   GL211044  12.330  21.660  14.620
  461BOLB   C1A11045  12.090  21.560  15.050
  461BOLB   C2A11046  11.660  21.370  15.150
  461BOLB   C3A11047  11.350  21.460  15.100
  461BOLB   C4A11048  10.900  21.570  15.170
  461BOLB   C1B11049  11.980  21.880  14.550
  461BOLB   C2B11050  11.810  22.190  14.250
  461BOLB   C3B11051  11.510  22.460  14.230
  461BOLB   C4B11052  11.270  22.770  14.440
  461BOLB   NC211053   9.630  23.440  15.650
  461BOLB   PO211054  10.070  23.210  15.690
  461BOLB   GL311055  10.250  23.130  15.960
  461BOLB   GL411056  10.570  23.260  15.820
  461BOLB   C1C11057  10.500  22.850  16.140
  461BOLB   C2C11058  10.640  22.570  15.840
  461BOLB   C3C11059  10.600  22.120  15.780
  461BOLB   C4C11060  10.690  21.990  15.260
  461BOLB   C1D11061  10.920  23.100  15.920
  461BOLB   C2D11062  11.220  22.770  15.890
  461BOLB   C3D11063  11.670  22.600  15.770
  461BOLB   C4D11064  11.860  22.200  15.780
  462BOLB   NC111065  23.660  19.120  23.520
  462BOLB   PO111066  23.610  19.350  23.230
  462BOLB   GL111067  23.690  19.110  22.870
  462BOLB   GL211068  23.620  19.340  22.590
  462BOLB   C1A11069  23.590  18.780  22.580
  462BOLB   C2A11070  23.240  18.630  22.680
  462BOLB   C3A11071  23.000  18.370  22.960
  462BOLB   C4A11072  23.140  17.840  23.060
  462BOLB   C1B11073  23.730  19.130  22.210
  462BOLB   C2B11074  23.750  18.700  22.030
  462BOLB   C3B11075  23.880  18.580  21.620
  462BOLB   C4B11076  23.690  18.420  21.360
  462BOLB   NC211077  22.000  16.260  24.690
  462BOLB   PO211078  22.150  16.440  24.320
  462BOLB   GL311079  22.220  16.460  23.860
  462BOLB   GL411080  21.870  16.540  23.830
  462BOLB   C1C11081  22.410  16.520  23.550
  462BOLB   C2C11082  22.600  16.820  23.110
  462BOLB   C3C11083  22.620  17.160  23.000
  462BOLB   C4C11084  22.950  17.470  22.940
  462BOLB   C1D11085  21.760  16.370  23.460
  462BOLB   C2D11086  21.580  16.490  23.060
  462BOLB   C3D11087  21.260  16.550  22.790
  462BOLB   C4D11088  20.750  16.730  22.740
  463BOLB   NC111089  20.950  15.680  19.450
  463BOLB   PO111090  20.950  15.820  19.940
  463BOLB   GL111091  20.910  15.830  20.450
  463BOLB   GL211092  21.160  16.130  20.660
  463BOLB   C1A11093  21.200  15.710  20.800
  463BOLB   C2A11094  21.100  15.890  21.200
  463BOLB   C3A11095  21.040  15.930  21.670
  463BOLB   C4A11096  20.840  16.020  22.050
  463BOLB   C1B11097  21.300  16.360  21.050
  463BOLB   C2B11098  21.210  16.360  21.450
  463BOLB   C3B11099  21.240  16.420  21.890
  463BOLB   C4B11100  21.600  16.440  22.020
  463BOLB   NC211101  20.770  16.050  24.340
  463BOLB   PO211102  20.630  16.480  24.280
  463BOLB   GL311103  20.540  16.630  23.900
  463BOLB   GL411104  20.380  16.860  23.830
  463BOLB   C1C11105  20.400  16.380  23.520
  463BOLB   C2C11106  20.440  16.290  23.040
  463BOLB   C3C11107  20.500  16.250  22.710
  463BOLB   C4C11108  20.740  16.060  22.370
  463BOLB   C1D11109  20.240  16.840  23.490
  463BOLB   C2D11110  20.330  16.780  23.070
  463BOLB   C3D11111  20.280  16.670  22.780
  463BOLB   C4D11112  20.490  16.660  22.350
  464BOLB   NC111113  16.350   8.940  19.580
  464BOLB   PO111114  16.260   9.180  19.990
  464BOLB   GL111115  16.320   9.140  20.370
  464BOLB   GL211116  15.940   9.170  20.440
  464BOLB   C1A11117  16.350   9.260  20.820
  464BOLB   C2A11118  16.300   9.190  21.200
  464BOLB   C3A11119  16.260   9.430  21.410
  464BOLB   C4A11120  16.260   9.490  21.790
  464BOLB   C1B11121  15.920   9.090  20.900
  464BOLB   C2B11122  15.900   9.040  21.400
  464BOLB   C3B11123  15.970   9.100  21.890
  464BOLB   C4B11124  16.230   8.920  22.130
  464BOLB   NC211125  15.030   9.480  23.960
  464BOLB   PO211126  14.920   9.830  23.700
  464BOLB   GL311127  15.280   9.830  23.500
  464BOLB   GL411128  15.250   9.470  23.480
  464BOLB   C1C11129  15.570   9.870  23.210
  464BOLB   C2C11130  15.810   9.900  22.940
  464BOLB   C3C11131  16.030   9.690  22.630
  464BOLB   C4C11132  16.050   9.640  22.210
  464BOLB   C1D11133  15.230   9.310  23.160
  464BOLB   C2D11134  15.520   9.520  22.830
  464BOLB   C3D11135  15.650   9.490  22.410
  464BOLB   C4D11136  15.490   9.140  22.130
  465BOLB   NC111137  22.200   8.770  19.840
  465BOLB   PO111138  22.290   8.950  20.300
  465BOLB   GL111139  22.380   8.700  20.630
  465BOLB   GL211140  22.150   8.600  20.800
  465BOLB   C1A11141  22.610   8.550  21.030
  465BOLB   C2A11142  22.840   8.800  21.290
  465BOLB   C3A11143  23.000   8.810  21.700
  465BOLB   C4A11144  23.350   8.780  21.910
  465BOLB   C1B11145  22.250   8.910  21.170
  465BOLB   C2B11146  22.380   9.010  21.500
  465BOLB   C3B11147  22.510   9.160  21.910
  465BOLB   C4B11148  22.830   9.350  22.140
  465BOLB   NC211149  24.620   8.050  23.540
  465BOLB   PO211150  24.730   8.450  23.610
  465BOLB   GL311151  24.640   8.460  23.160
  465BOLB   GL411152  24.840   8.220  22.990
  465BOLB   C1C11153  24.400   8.520  22.910
  465BOLB   C2C11154  24.020   8.550  22.820
  465BOLB   C3C11155  23.780   8.630  22.490
  465BOLB   C4C11156  23.570   8.490  22.070
  465BOLB   C1D11157  24.820   8.240  22.570
  465BOLB   C2D11158  24.810   8.350  22.210
  465BOLB   C3D11159  24.450   8.580  21.940
  465BOLB   C4D11160  24.000   8.670  21.950
  466BOLB   NC111161  22.060  12.410  20.110
  466BOLB   PO111162  22.180  12.770  20.260
  466BOLB   GL111163  22.320  12.930  20.650
  466BOLB   GL211164  21.970  13.040  20.710
  466BOLB   C1A11165  22.660  13.030  20.890
  466BOLB   C2A11166  22.890  12.990  21.130
  466BOLB   C3A11167  23.140  13.050  21.550
  466BOLB   C4A11168  23.250  12.840  21.920
  466BOLB   C1B11169  22.060  13.130  21.110
  466BOLB   C2B11170  22.030  12.810  21.510
  466BOLB   C3B11171  22.300  12.520  21.780
  466BOLB   C4B11172  22.390  12.470  22.210
  466BOLB   NC211173  23.250  12.180  23.960
  466BOLB   PO211174  23.690  12.050  24.020
  466BOLB   GL311175  23.740  12.140  23.620
  466BOLB   GL411176  23.540  11.830  23.530
  466BOLB   C1C11177  23.800  12.170  23.220
  466BOLB   C2C11178  23.610  12.330  22.920
  466BOLB   C3C11179  23.690  12.540  22.470
  466BOLB   C4C11180  23.610  12.640  22.110
  466BOLB   C1D11181  23.510  11.740  23.110
  466BOLB   C2D11182  23.310  11.610  22.690
  466BOLB   C3D11183  23.350  11.540  22.260
  466BOLB   C4D11184  23.150  11.460  21.870
  467BOLB   NC111185  24.070  21.290  13.270
  467BOLB   PO111186  24.170  21.680  13.490
  467BOLB   GL111187  24.300  22.200  13.400
  467BOLB   GL211188  24.600  22.280  13.100
  467BOLB   C1A11189  24.600  22.510  13.640
  467BOLB   C2A11190  24.800  22.850  13.720
  467BOLB   C3A11191  25.080  23.190  13.980
  467BOLB   C4A11192  25.370  23.450  14.210
  467BOLB   C1B11193  24.930  22.440  13.080
  467BOLB   C2B11194  25.140  22.820  13.170
  467BOLB   C3B11195  25.320  23.100  12.900
  467BOLB   C4B11196  25.350  23.410  12.530
  467BOLB   NC211197  27.120  25.330  13.980
  467BOLB   PO211198  27.070  24.830  13.960
  467BOLB   GL311199  26.850  24.360  14.080
  467BOLB   GL411200  26.840  24.170  14.000
  467BOLB   C1C11201  26.540  24.310  14.390
  467BOLB   C2C11202  26.000  24.450  14.560
  467BOLB   C3C11203  25.620  24.220  14.600
  467BOLB   C4C11204  25.340  23.800  14.460
  467BOLB   C1D11205  26.580  24.120  13.650
  467BOLB   C2D11206  26.230  23.890  13.650
  467BOLB   C3D11207  25.850  23.540  13.640
  467BOLB   C4D11208  26.000  23.210  13.540
  468BOLB   NC111209  16.470  11.580  19.670
  468BOLB   PO111210  16.460  11.660  20.100
  468BOLB   GL111211  16.440  11.390  20.530
  468BOLB   GL211212  16.510  11.030  20.610
  468BOLB   C1A11213  16.490  11.550  20.960
  468BOLB   C2A11214  16.460  11.760  21.370
  468BOLB   C3A11215  16.270  11.870  21.790
  468BOLB   C4A11216  16.200  12.240  22.150
  468BOLB   C1B11217  16.250  11.090  21.040
  468BOLB   C2B11218  16.320  10.940  21.460
  468BOLB   C3B11219  16.330  10.760  21.890
  468BOLB   C4B11220  16.570  10.720  22.330
  468BOLB   NC211221  14.680  11.690  23.670
  468BOLB   PO211222  14.980  11.960  23.870
  468BOLB   GL311223  15.320  12.150  23.670
  468BOLB   GL411224  15.580  12.180  23.820
  468BOLB   C1C11225  15.500  12.360  23.370
  468BOLB   C2C11226  15.760  12.560  23.110
  468BOLB   C3C11227  16.020  12.440  22.790
  468BOLB   C4C11228  16.090  12.050  22.590
  468BOLB   C1D11229  15.930  12.150  23.470
  468BOLB   C2D11230  15.960  11.930  23.050
  468BOLB   C3D11231  15.750  11.700  22.730
  468BOLB   C4D11232  15.430  11.790  22.350
  469BOLB   NC111233  32.220   9.850  10.450
  469BOLB   PO111234  31.930  10.060  10.700
  469BOLB   GL111235  31.570  10.150  10.850
  469BOLB   GL211236  31.670  10.480  11.050
  469BOLB   C1A11237  31.140  10.260  11.010
  469BOLB   C2A11238  30.790  10.540  11.210
  469BOLB   C3A11239  30.870  10.830  11.510
  469BOLB   C4A11240  30.660  11.130  11.500
  469BOLB   C1B11241  31.310  10.740  11.120
  469BOLB   C2B11242  31.130  11.310  11.330
  469BOLB   C3B11243  31.170  11.720  11.370
  469BOLB   C4B11244  31.320  12.000  11.080
  469BOLB   NC211245  28.070  11.480  12.070
  469BOLB   PO211246  28.140  11.910  11.960
  469BOLB   GL311247  28.630  11.930  12.050
  469BOLB   GL411248  28.780  11.890  12.270
  469BOLB   C1C11249  28.970  11.750  11.850
  469BOLB   C2C11250  29.420  11.570  11.900
  469BOLB   C3C11251  29.820  11.370  11.670
  469BOLB   C4C11252  30.280  11.180  11.660
  469BOLB   C1D11253  29.240  11.740  12.370
  469BOLB   C2D11254  29.770  11.800  12.250
  469BOLB   C3D11255  30.150  11.840  12.470
  469BOLB   C4D11256  30.440  12.080  12.680
  470BOLB   NC111257  26.130  11.060  18.770
  470BOLB   PO111258  25.770  10.820  18.660
  470BOLB   GL111259  25.980  10.650  19.050
  470BOLB   GL211260  26.290  10.750  19.080
  470BOLB   C1A11261  25.760  10.630  19.510
  470BOLB   C2A11262  26.110  10.590  19.760
  470BOLB   C3A11263  26.380  10.440  20.150
  470BOLB   C4A11264  26.650  10.180  20.320
  470BOLB   C1B11265  26.470  10.620  19.350
  470BOLB   C2B11266  26.610  10.440  19.700
  470BOLB   C3B11267  27.030  10.310  19.900
  470BOLB   C4B11268  27.370  10.280  19.920
  470BOLB   NC211269  27.700   9.480  22.890
  470BOLB   PO211270  27.360   9.600  22.570
  470BOLB   GL311271  27.150   9.640  22.220
  470BOLB   GL411272  26.870   9.490  22.330
  470BOLB   C1C11273  26.960   9.730  21.790
  470BOLB   C2C11274  26.650   9.820  21.480
  470BOLB   C3C11275  26.580   9.810  21.010
  470BOLB   C4C11276  26.530  10.090  20.690
  470BOLB   C1D11277  26.580   9.350  22.090
  470BOLB   C2D11278  26.230   9.300  21.770
  470BOLB   C3D11279  26.080   9.600  21.500
  470BOLB   C4D11280  25.650   9.700  21.220
  471BOLB   NC111281  28.520  10.800  13.250
  471BOLB   PO111282  28.400  10.820  12.820
  471BOLB   GL111283  28.630  10.590  12.510
  471BOLB   GL211284  28.790  10.280  12.580
  471BOLB   C1A11285  29.090  10.750  12.480
  471BOLB   C2A11286  29.470  10.690  12.480
  471BOLB   C3A11287  29.820  10.730  12.350
  471BOLB   C4A11288  30.280  10.840  12.480
  471BOLB   C1B11289  29.270  10.220  12.450
  471BOLB   C2B11290  29.780  10.090  12.350
  471BOLB   C3B11291  30.150  10.300  12.190
  471BOLB   C4B11292  30.540  10.420  12.290
  471BOLB   NC211293  32.610  10.060  12.920
  471BOLB   PO211294  32.750  10.230  12.370
  471BOLB   GL311295  32.420  10.530  12.470
  471BOLB   GL411296  32.250  10.890  12.600
  471BOLB   C1C11297  31.930  10.540  12.660
  471BOLB   C2C11298  31.480  10.630  12.620
  471BOLB   C3C11299  31.060  10.510  12.620
  471BOLB   C4C11300  30.630  10.650  12.720
  471BOLB   C1D11301  32.050  11.200  12.660
  471BOLB   C2D11302  31.630  11.360  12.640
  471BOLB   C3D11303  31.180  11.550  12.690
  471BOLB   C4D11304  30.800  11.660  12.820
  472BOLB   NC111305  26.900  18.660  13.700
  472BOLB   PO111306  27.210  18.880  13.440
  472BOLB   GL111307  27.440  19.100  13.190
  472BOLB   GL211308  27.600  18.850  13.070
  472BOLB   C1A11309  27.860  19.380  13.010
  472BOLB   C2A11310  28.320  19.490  12.870
  472BOLB   C3A11311  28.750  19.340  12.980
  472BOLB   C4A11312  29.190  19.230  12.780
  472BOLB   C1B11313  28.020  18.870  12.950
  472BOLB   C2B11314  28.420  18.930  12.830
  472BOLB   C3B11315  28.850  18.870  12.760
  472BOLB   C4B11316  29.170  18.570  12.640
  472BOLB   NC211317  30.800  19.100  10.780
  472BOLB   PO211318  30.930  19.190  11.150
  472BOLB   GL311319  30.750  18.990  11.500
  472BOLB   GL411320  30.770  19.020  11.820
  472BOLB   C1C11321  30.300  18.870  11.630
  472BOLB   C2C11322  29.930  18.810  11.840
  472BOLB   C3C11323  29.700  18.760  12.170
  472BOLB   C4C11324  29.540  18.980  12.590
  472BOLB   C1D11325  30.690  18.990  12.210
  472BOLB   C2D11326  30.480  19.230  12.460
  472BOLB   C3D11327  30.110  19.610  12.540
  472BOLB   C4D11328  29.700  19.440  12.660
  473BOLB   NC111329  11.290  10.920  16.500
  473BOLB   PO111330  11.340  10.670  16.200
  473BOLB   GL111331  11.130  10.380  16.420
  473BOLB   GL211332  11.210  10.500  16.770
  473BOLB   C1A11333  10.750  10.060  16.340
  473BOLB   C2A11334  10.430   9.730  16.500
  473BOLB   C3A11335  10.130   9.520  16.500
  473BOLB   C4A11336  10.130   9.250  16.280
  473BOLB   C1B11337  10.870  10.210  16.890
  473BOLB   C2B11338  10.550   9.970  16.910
  473BOLB   C3B11339  10.130   9.860  16.980
  473BOLB   C4B11340   9.820   9.700  16.870
  473BOLB   NC211341   8.060   7.650  15.580
  473BOLB   PO211342   8.150   7.740  16.010
  473BOLB   GL311343   8.420   8.020  15.990
  473BOLB   GL411344   8.420   8.130  15.690
  473BOLB   C1C11345   8.740   8.380  15.900
  473BOLB   C2C11346   9.230   8.540  16.060
  473BOLB   C3C11347   9.580   8.750  16.260
  473BOLB   C4C11348  10.060   8.850  16.280
  473BOLB   C1D11349   8.720   8.250  15.370
  473BOLB   C2D11350   8.900   8.610  15.180
  473BOLB   C3D11351   9.070   8.880  14.840
  473BOLB   C4D11352   9.340   9.200  14.830
  474BOLB   NC111353  19.460   9.230  20.130
  474BOLB   PO111354  19.200   9.510  20.300
  474BOLB   GL111355  19.380   9.750  20.740
  474BOLB   GL211356  19.650   9.740  20.700
  474BOLB   C1A11357  19.140   9.900  21.060
  474BOLB   C2A11358  19.160  10.080  21.580
  474BOLB   C3A11359  19.280   9.960  21.950
  474BOLB   C4A11360  19.300   9.850  22.400
  474BOLB   C1B11361  19.880   9.550  21.140
  474BOLB   C2B11362  20.100   9.390  21.540
  474BOLB   C3B11363  20.270   9.520  22.030
  474BOLB   C4B11364  20.470   9.860  22.230
  474BOLB   NC211365  19.620   8.210  24.480
  474BOLB   PO211366  19.690   8.100  24.100
  474BOLB   GL311367  19.650   8.330  23.760
  474BOLB   GL411368  19.420   8.160  23.640
  474BOLB   C1C11369  19.670   8.600  23.380
  474BOLB   C2C11370  19.520   8.770  22.970
  474BOLB   C3C11371  19.440   9.060  22.660
  474BOLB   C4C11372  19.310   9.440  22.670
  474BOLB   C1D11373  19.430   8.200  23.160
  474BOLB   C2D11374  19.410   8.340  22.750
  474BOLB   C3D11375  19.590   8.190  22.290
  474BOLB   C4D11376  19.670   7.830  22.110
  475BOLB   NC111377  16.130  12.520  19.890
  475BOLB   PO111378  16.320  12.860  19.880
  475BOLB   GL111379  16.010  13.030  20.210
  475BOLB   GL211380  16.250  13.170  20.440
  475BOLB   C1A11381  15.750  13.110  20.500
  475BOLB   C2A11382  15.480  13.150  20.810
  475BOLB   C3A11383  15.280  13.270  21.220
  475BOLB   C4A11384  14.960  13.170  21.480
  475BOLB   C1B11385  16.170  13.030  20.760
  475BOLB   C2B11386  15.940  12.840  21.060
  475BOLB   C3B11387  15.760  12.630  21.380
  475BOLB   C4B11388  15.490  12.300  21.600
  475BOLB   NC211389  13.570  13.080  23.010
  475BOLB   PO211390  13.720  12.700  23.210
  475BOLB   GL311391  13.970  12.580  22.960
  475BOLB   GL411392  13.940  12.190  22.950
  475BOLB   C1C11393  13.860  12.540  22.550
  475BOLB   C2C11394  14.080  12.600  22.090
  475BOLB   C3C11395  14.630  12.590  22.050
  475BOLB   C4C11396  14.750  12.860  21.720
  475BOLB   C1D11397  14.380  12.330  22.730
  475BOLB   C2D11398  14.610  12.500  22.520
  475BOLB   C3D11399  14.720  12.960  22.370
  475BOLB   C4D11400  14.740  13.450  22.580
  476BOLB   NC111401  13.430  20.690  15.930
  476BOLB   PO111402  13.350  20.590  16.340
  476BOLB   GL111403  13.020  20.810  16.500
  476BOLB   GL211404  12.780  20.600  16.470
  476BOLB   C1A11405  12.790  21.030  16.800
  476BOLB   C2A11406  12.570  21.280  17.080
  476BOLB   C3A11407  12.320  21.710  17.140
  476BOLB   C4A11408  12.020  22.170  17.150
  476BOLB   C1B11409  12.430  20.770  16.460
  476BOLB   C2B11410  12.300  21.140  16.730
  476BOLB   C3B11411  12.060  21.470  16.650
  476BOLB   C4B11412  11.840  21.860  16.720
  476BOLB   NC211413  11.420  24.090  17.580
  476BOLB   PO211414  11.200  24.050  17.200
  476BOLB   GL311415  11.490  23.850  17.000
  476BOLB   GL411416  11.680  23.650  17.170
  476BOLB   C1C11417  11.500  23.490  16.720
  476BOLB   C2C11418  11.800  23.240  16.660
  476BOLB   C3C11419  11.900  22.760  16.680
  476BOLB   C4C11420  11.950  22.450  16.960
  476BOLB   C1D11421  12.020  23.480  16.990
  476BOLB   C2D11422  12.250  23.100  16.880
  476BOLB   C3D11423  12.680  22.870  16.920
  476BOLB   C4D11424  13.110  22.770  16.840
  477BOLB   NC111425  26.380  18.170   9.920
  477BOLB   PO111426  26.030  18.200   9.670
  477BOLB   GL111427  26.390  18.270   9.410
  477BOLB   GL211428  26.450  18.620   9.300
  477BOLB   C1A11429  26.820  18.090   9.210
  477BOLB   C2A11430  27.190  18.180   8.990
  477BOLB   C3A11431  27.160  18.420   8.640
  477BOLB   C4A11432  27.210  18.780   8.540
  477BOLB   C1B11433  26.460  19.040   9.080
  477BOLB   C2B11434  26.840  19.170   8.830
  477BOLB   C3B11435  27.030  19.510   8.880
  477BOLB   C4B11436  27.240  19.550   8.520
  477BOLB   NC211437  28.640  21.230   8.090
  477BOLB   PO211438  28.530  20.910   8.040
  477BOLB   GL311439  28.130  20.800   8.170
  477BOLB   GL411440  27.850  20.830   7.930
  477BOLB   C1C11441  27.890  20.390   8.230
  477BOLB   C2C11442  27.650  19.980   8.310
  477BOLB   C3C11443  27.740  19.540   8.540
  477BOLB   C4C11444  27.460  19.170   8.610
  477BOLB   C1D11445  27.500  20.760   8.230
  477BOLB   C2D11446  27.210  20.790   8.540
  477BOLB   C3D11447  26.880  20.550   8.620
  477BOLB   C4D11448  26.690  20.440   9.000
  478BOLB   NC111449  13.880  16.070  17.500
  478BOLB   PO111450  13.540  16.010  17.860
  478BOLB   GL111451  13.350  16.180  18.170
  478BOLB   GL211452  13.340  16.480  18.370
  478BOLB   C1A11453  13.000  16.060  18.470
  478BOLB   C2A11454  12.880  16.270  18.900
  478BOLB   C3A11455  12.640  16.510  19.300
  478BOLB   C4A11456  12.720  16.720  19.670
  478BOLB   C1B11457  13.210  16.670  18.670
  478BOLB   C2B11458  12.950  16.820  18.990
  478BOLB   C3B11459  12.990  17.110  19.230
  478BOLB   C4B11460  12.810  17.180  19.580
  478BOLB   NC211461  11.970  18.270  21.590
  478BOLB   PO211462  11.860  17.920  21.430
  478BOLB   GL311463  11.830  17.610  21.150
  478BOLB   GL411464  11.930  17.290  21.320
  478BOLB   C1C11465  12.000  17.350  20.770
  478BOLB   C2C11466  12.030  17.140  20.530
  478BOLB   C3C11467  12.310  17.060  20.220
  478BOLB   C4C11468  12.470  16.880  19.940
  478BOLB   C1D11469  12.420  17.070  21.250
  478BOLB   C2D11470  12.560  16.790  21.030
  478BOLB   C3D11471  12.840  16.760  20.590
  478BOLB   C4D11472  12.860  16.560  20.140
  479BOLB   NC111473  20.620  21.160  17.100
  479BOLB   PO111474  20.910  21.610  17.220
  479BOLB   GL111475  20.910  22.010  17.490
  479BOLB   GL211476  20.810  21.950  17.830
  479BOLB   C1A11477  21.190  22.300  17.720
  479BOLB   C2A11478  21.040  22.670  17.850
  479BOLB   C3A11479  21.230  22.890  18.140
  479BOLB   C4A11480  21.240  23.220  18.390
  479BOLB   C1B11481  20.690  22.100  18.310
  479BOLB   C2B11482  20.500  22.110  18.790
  479BOLB   C3B11483  20.330  22.030  19.190
  479BOLB   C4B11484  20.070  22.110  19.460
  479BOLB   NC211485  20.700  24.690  20.370
  479BOLB   PO211486  20.810  24.990  19.990
  479BOLB   GL311487  20.950  24.770  19.690
  479BOLB   GL411488  20.920  24.860  19.370
  479BOLB   C1C11489  21.020  24.270  19.540
  479BOLB   C2C11490  20.960  24.110  19.170
  479BOLB   C3C11491  21.210  23.900  18.760
  479BOLB   C4C11492  21.410  23.520  18.640
  479BOLB   C1D11493  20.590  24.570  19.080
  479BOLB   C2D11494  20.210  24.440  18.840
  479BOLB   C3D11495  20.290  24.140  18.590
  479BOLB   C4D11496  20.380  24.380  18.150
  480BOLB   NC111497  26.400  17.070  17.250
  480BOLB   PO111498  26.420  17.330  17.630
  480BOLB   GL111499  26.620  17.600  17.760
  480BOLB   GL211500  26.520  17.880  17.890
  480BOLB   C1A11501  27.040  17.680  17.990
  480BOLB   C2A11502  27.440  17.840  18.110
  480BOLB   C3A11503  27.780  18.040  18.160
  480BOLB   C4A11504  28.320  18.190  18.210
  480BOLB   C1B11505  26.680  17.870  18.380
  480BOLB   C2B11506  27.000  18.080  18.660
  480BOLB   C3B11507  27.040  18.260  19.070
  480BOLB   C4B11508  27.130  18.490  19.420
  480BOLB   NC211509  29.780  17.920  19.790
  480BOLB   PO211510  29.900  18.280  19.760
  480BOLB   GL311511  29.510  18.200  19.500
  480BOLB   GL411512  29.620  18.140  19.240
  480BOLB   C1C11513  29.040  18.320  19.530
  480BOLB   C2C11514  28.670  18.320  19.230
  480BOLB   C3C11515  28.690  18.340  18.820
  480BOLB   C4C11516  28.670  18.350  18.430
  480BOLB   C1D11517  29.300  17.860  19.260
  480BOLB   C2D11518  28.980  17.870  18.950
  480BOLB   C3D11519  28.540  17.920  18.950
  480BOLB   C4D11520  28.160  17.590  18.990
  481BOLB   NC111521  17.900  20.910  18.240
  481BOLB   PO111522  18.100  21.310  18.100
  481BOLB   GL111523  18.090  21.850  18.100
  481BOLB   GL211524  18.410  21.890  18.120
  481BOLB   C1A11525  17.680  22.020  18.230
  481BOLB   C2A11526  17.470  22.200  18.480
  481BOLB   C3A11527  17.460  22.400  18.900
  481BOLB   C4A11528  17.410  22.720  19.280
  481BOLB   C1B11529  18.350  22.260  18.360
  481BOLB   C2B11530  18.130  22.460  18.670
  481BOLB   C3B11531  17.920  22.700  18.970
  481BOLB   C4B11532  17.770  23.090  19.190
  481BOLB   NC211533  15.480  23.740  20.210
  481BOLB   PO211534  15.600  23.670  20.700
  481BOLB   GL311535  15.920  23.330  20.570
  481BOLB   GL411536  15.880  23.370  20.300
  481BOLB   C1C11537  16.250  23.040  20.590
  481BOLB   C2C11538  16.470  22.960  20.170
  481BOLB   C3C11539  16.860  22.840  19.910
  481BOLB   C4C11540  17.020  22.800  19.500
  481BOLB   C1D11541  16.160  23.440  20.000
  481BOLB   C2D11542  16.510  23.580  19.650
  481BOLB   C3D11543  16.590  23.780  19.360
  481BOLB   C4D11544  16.730  24.040  19.130
  482BOLB   NC111545  27.580  16.710  16.220
  482BOLB   PO111546  27.610  16.220  16.320
  482BOLB   GL111547  28.090  16.390  16.280
  482BOLB   GL211548  28.120  16.570  16.430
  482BOLB   C1A11549  28.580  16.440  16.460
  482BOLB   C2A11550  28.820  16.670  16.610
  482BOLB   C3A11551  29.190  16.870  16.580
  482BOLB   C4A11552  29.430  17.270  16.710
  482BOLB   C1B11553  28.380  17.010  16.450
  482BOLB   C2B11554  28.490  17.120  16.780
  482BOLB   C3B11555  28.680  17.410  17.130
  482BOLB   C4B11556  29.070  17.470  17.130
  482BOLB   NC211557  31.510  18.120  15.730
  482BOLB   PO211558  31.460  18.040  16.130
  482BOLB   GL311559  31.080  17.810  16.380
  482BOLB   GL411560  30.890  17.780  16.660
  482BOLB   C1C11561  30.590  17.970  16.390
  482BOLB   C2C11562  30.190  17.930  16.690
  482BOLB   C3C11563  29.800  17.870  16.610
  482BOLB   C4C11564  29.630  17.520  16.410
  482BOLB   C1D11565  30.570  17.420  16.600
  482BOLB   C2D11566  30.140  17.290  16.500
  482BOLB   C3D11567  30.040  17.190  16.060
  482BOLB   C4D11568  30.110  16.990  15.640
  483BOLB   NC111569  20.520  18.360  18.980
  483BOLB   PO111570  20.920  18.100  19.060
  483BOLB   GL111571  20.710  18.270  19.450
  483BOLB   GL211572  20.960  18.500  19.520
  483BOLB   C1A11573  20.590  18.420  19.990
  483BOLB   C2A11574  20.750  18.690  20.340
  483BOLB   C3A11575  20.910  18.710  20.740
  483BOLB   C4A11576  20.760  18.620  21.070
  483BOLB   C1B11577  21.090  18.330  19.960
  483BOLB   C2B11578  21.050  18.240  20.440
  483BOLB   C3B11579  21.020  18.160  20.840
  483BOLB   C4B11580  21.030  18.100  21.210
  483BOLB   NC211581  20.310  19.830  23.110
  483BOLB   PO211582  19.900  19.720  23.170
  483BOLB   GL311583  20.020  19.510  22.680
  483BOLB   GL411584  19.750  19.310  22.480
  483BOLB   C1C11585  20.240  19.150  22.570
  483BOLB   C2C11586  20.350  19.030  22.120
  483BOLB   C3C11587  20.240  18.970  21.700
  483BOLB   C4C11588  20.370  18.810  21.250
  483BOLB   C1D11589  19.810  19.170  22.080
  483BOLB   C2D11590  19.740  19.210  21.640
  483BOLB   C3D11591  19.940  19.110  21.270
  483BOLB   C4D11592  20.030  18.990  20.900
  484BOLB   NC111593  26.930  19.050  13.980
  484BOLB   PO111594  26.870  19.240  13.590
  484BOLB   GL111595  27.340  19.360  13.740
  484BOLB   GL211596  27.470  19.080  13.870
  484BOLB   C1A11597  27.650  19.740  13.620
  484BOLB   C2A11598  28.050  20.020  13.870
  484BOLB   C3A11599  28.510  20.120  14.220
  484BOLB   C4A11600  28.640  20.140  14.600
  484BOLB   C1B11601  27.830  19.240  13.510
  484BOLB   C2B11602  28.100  19.570  13.410
  484BOLB   C3B11603  28.340  19.960  13.400
  484BOLB   C4B11604  28.410  20.310  13.560
  484BOLB   NC211605  29.860  21.690  15.100
  484BOLB   PO211606  29.500  21.810  15.380
  484BOLB   GL311607  29.350  21.520  15.410
  484BOLB   GL411608  29.140  21.550  15.060
  484BOLB   C1C11609  28.980  21.180  15.350
  484BOLB   C2C11610  28.840  20.790  15.210
  484BOLB   C3C11611  28.610  20.520  15.140
  484BOLB   C4C11612  28.580  20.220  14.930
  484BOLB   C1D11613  28.840  21.340  14.840
  484BOLB   C2D11614  28.360  21.320  14.820
  484BOLB   C3D11615  28.090  21.120  14.500
  484BOLB   C4D11616  27.870  20.830  14.250
  485BOLB   NC111617  15.610   5.710  13.600
  485BOLB   PO111618  15.880   5.790  13.300
  485BOLB   GL111619  15.750   5.650  12.870
  485BOLB   GL211620  15.950   5.350  12.920
  485BOLB   C1A11621  15.750   5.310  12.490
  485BOLB   C2A11622  15.700   4.880  12.480
  485BOLB   C3A11623  15.330   4.660  12.560
  485BOLB   C4A11624  15.090   4.270  12.800
  485BOLB   C1B11625  15.630   5.000  12.940
  485BOLB   C2B11626  15.670   4.570  13.130
  485BOLB   C3B11627  15.310   4.370  13.360
  485BOLB   C4B11628  15.240   4.040  13.640
  485BOLB   NC211629  13.560   2.660  12.000
  485BOLB   PO211630  13.980   2.420  11.730
  485BOLB   GL311631  14.280   2.590  11.770
  485BOLB   GL411632  14.430   2.470  12.100
  485BOLB   C1C11633  14.530   2.900  11.810
  485BOLB   C2C11634  14.760   3.220  12.060
  485BOLB   C3C11635  14.810   3.660  12.250
  485BOLB   C4C11636  14.830   3.900  12.620
  485BOLB   C1D11637  14.760   2.800  12.260
  485BOLB   C2D11638  15.130   2.900  12.080
  485BOLB   C3D11639  15.500   2.980  11.770
  485BOLB   C4D11640  15.800   2.760  11.710
  486BOLB   NC111641  19.410  17.020  19.770
  486BOLB   PO111642  19.630  17.350  19.650
  486BOLB   GL111643  19.660  17.520  20.030
  486BOLB   GL211644  19.830  17.850  20.080
  486BOLB   C1A11645  19.870  17.510  20.490
  486BOLB   C2A11646  19.660  17.610  20.910
  486BOLB   C3A11647  19.700  17.570  21.340
  486BOLB   C4A11648  19.510  17.310  21.570
  486BOLB   C1B11649  19.860  18.130  20.480
  486BOLB   C2B11650  19.710  18.430  20.620
  486BOLB   C3B11651  19.920  18.490  20.980
  486BOLB   C4B11652  20.240  18.310  21.230
  486BOLB   NC211653  19.110  17.380  24.210
  486BOLB   PO211654  18.740  17.440  24.250
  486BOLB   GL311655  18.790  17.530  23.840
  486BOLB   GL411656  18.520  17.640  23.580
  486BOLB   C1C11657  18.840  17.360  23.380
  486BOLB   C2C11658  18.990  17.290  22.850
  486BOLB   C3C11659  19.260  17.330  22.480
  486BOLB   C4C11660  19.280  17.260  22.060
  486BOLB   C1D11661  18.430  17.630  23.060
  486BOLB   C2D11662  18.660  17.630  22.660
  486BOLB   C3D11663  18.920  17.630  22.270
  486BOLB   C4D11664  18.830  17.510  21.770
  487BOLB   NC111665  17.280  18.110  19.230
  487BOLB   PO111666  16.880  18.370  19.030
  487BOLB   GL111667  16.900  18.520  19.380
  487BOLB   GL211668  17.020  18.810  19.410
  487BOLB   C1A11669  16.550  18.400  19.670
  487BOLB   C2A11670  16.300  18.530  20.060
  487BOLB   C3A11671  15.960  18.710  20.160
  487BOLB   C4A11672  15.520  18.800  20.320
  487BOLB   C1B11673  17.000  19.270  19.670
  487BOLB   C2B11674  17.030  19.360  20.130
  487BOLB   C3B11675  17.110  19.590  20.460
  487BOLB   C4B11676  17.260  19.590  21.000
  487BOLB   NC211677  14.820  19.540  22.650
  487BOLB   PO211678  14.470  19.250  22.740
  487BOLB   GL311679  14.700  19.150  22.330
  487BOLB   GL411680  14.650  19.370  22.040
  487BOLB   C1C11681  14.900  19.000  21.870
  487BOLB   C2C11682  15.030  18.890  21.480
  487BOLB   C3C11683  15.200  18.860  21.090
  487BOLB   C4C11684  15.360  18.890  20.710
  487BOLB   C1D11685  14.620  19.330  21.630
  487BOLB   C2D11686  14.460  19.520  21.170
  487BOLB   C3D11687  14.400  19.590  20.850
  487BOLB   C4D11688  14.170  19.430  20.480
  488BOLB   NC111689  26.650  15.400  10.070
  488BOLB   PO111690  26.840  15.080  10.240
  488BOLB   GL111691  26.880  14.960   9.750
  488BOLB   GL211692  27.080  15.240   9.820
  488BOLB   C1A11693  27.190  14.960   9.380
  488BOLB   C2A11694  27.380  15.170   9.020
  488BOLB   C3A11695  27.350  15.560   8.780
  488BOLB   C4A11696  27.480  15.770   8.480
  488BOLB   C1B11697  27.570  15.170   9.670
  488BOLB   C2B11698  27.840  15.110   9.270
  488BOLB   C3B11699  28.140  15.260   8.970
  488BOLB   C4B11700  27.930  15.460   8.650
  488BOLB   NC211701  29.610  14.960   6.370
  488BOLB   PO211702  29.220  15.300   6.510
  488BOLB   GL311703  29.030  15.510   6.920
  488BOLB   GL411704  29.010  15.810   6.910
  488BOLB   C1C11705  28.800  15.620   7.380
  488BOLB   C2C11706  28.400  15.540   7.530
  488BOLB   C3C11707  28.060  15.590   7.870
  488BOLB   C4C11708  27.780  15.670   8.180
  488BOLB   C1D11709  28.540  15.660   6.900
  488BOLB   C2D11710  28.190  15.560   7.100
  488BOLB   C3D11711  27.750  15.330   7.030
  488BOLB   C4D11712  27.400  15.120   6.860
  489BOLB   NC111713  23.100  15.610  20.260
  489BOLB   PO111714  22.630  15.770  20.270
  489BOLB   GL111715  23.000  16.050  20.440
  489BOLB   GL211716  22.960  16.410  20.410
  489BOLB   C1A11717  23.200  16.040  20.900
  489BOLB   C2A11718  23.170  16.150  21.370
  489BOLB   C3A11719  23.380  16.470  21.640
  489BOLB   C4A11720  23.650  16.770  21.920
  489BOLB   C1B11721  23.230  16.770  20.450
  489BOLB   C2B11722  23.500  16.990  20.620
  489BOLB   C3B11723  23.570  17.130  21.000
  489BOLB   C4B11724  23.740  16.880  21.370
  489BOLB   NC211725  24.290  17.020  23.870
  489BOLB   PO211726  24.350  16.600  23.860
  489BOLB   GL311727  24.330  16.680  23.440
  489BOLB   GL411728  24.040  16.960  23.320
  489BOLB   C1C11729  24.350  16.620  23.080
  489BOLB   C2C11730  24.250  16.730  22.760
  489BOLB   C3C11731  24.120  17.030  22.560
  489BOLB   C4C11732  23.910  17.000  22.150
  489BOLB   C1D11733  23.790  16.890  22.930
  489BOLB   C2D11734  23.640  17.130  22.640
  489BOLB   C3D11735  23.320  16.790  22.390
  489BOLB   C4D11736  23.180  16.360  22.130
  490BOLB   NC111737  16.320  16.800  19.460
  490BOLB   PO111738  16.580  17.160  19.630
  490BOLB   GL111739  16.390  17.500  19.710
  490BOLB   GL211740  16.360  17.700  19.550
  490BOLB   C1A11741  16.220  17.630  20.130
  490BOLB   C2A11742  15.990  17.820  20.510
  490BOLB   C3A11743  15.670  17.820  20.800
  490BOLB   C4A11744  15.280  17.800  20.990
  490BOLB   C1B11745  16.150  17.940  19.760
  490BOLB   C2B11746  15.890  18.140  20.020
  490BOLB   C3B11747  15.510  18.400  20.070
  490BOLB   C4B11748  15.190  18.720  19.930
  490BOLB   NC211749  15.110  17.250  23.160
  490BOLB   PO211750  15.070  17.630  23.170
  490BOLB   GL311751  15.060  17.720  22.740
  490BOLB   GL411752  14.790  17.950  22.850
  490BOLB   C1C11753  15.060  17.480  22.360
  490BOLB   C2C11754  14.920  17.370  21.830
  490BOLB   C3C11755  14.890  17.290  21.470
  490BOLB   C4C11756  15.100  17.460  21.170
  490BOLB   C1D11757  14.830  18.130  22.530
  490BOLB   C2D11758  14.990  18.010  22.250
  490BOLB   C3D11759  15.250  18.120  21.960
  490BOLB   C4D11760  15.580  18.070  21.900
  491BOLB   NC111761  33.140  10.970  16.020
  491BOLB   PO111762  33.010  11.260  16.450
  491BOLB   GL111763  32.590  11.310  16.330
  491BOLB   GL211764  32.470  11.220  16.010
  491BOLB   C1A11765  32.100  11.440  16.280
  491BOLB   C2A11766  31.780  11.790  16.290
  491BOLB   C3A11767  31.940  12.180  16.130
  491BOLB   C4A11768  31.660  12.290  15.750
  491BOLB   C1B11769  32.070  10.970  16.220
  491BOLB   C2B11770  31.850  10.530  16.080
  491BOLB   C3B11771  31.590  10.340  15.780
  491BOLB   C4B11772  31.210  10.500  15.650
  491BOLB   NC211773  33.290  12.320  15.020
  491BOLB   PO211774  33.020  12.760  14.940
  491BOLB   GL311775  32.520  12.810  14.940
  491BOLB   GL411776  32.440  12.630  14.700
  491BOLB   C1C11777  32.140  12.830  15.060
  491BOLB   C2C11778  31.710  12.980  15.120
  491BOLB   C3C11779  31.470  12.760  15.370
  491BOLB   C4C11780  31.340  12.430  15.610
  491BOLB   C1D11781  32.160  12.650  14.350
  491BOLB   C2D11782  31.730  12.570  14.400
  491BOLB   C3D11783  31.280  12.630  14.370
  491BOLB   C4D11784  31.030  12.360  14.120
  492BOLB   NC111785  18.600   9.200  19.300
  492BOLB   PO111786  18.540   8.970  19.780
  492BOLB   GL111787  18.490   8.920  20.200
  492BOLB   GL211788  18.410   8.600  20.260
  492BOLB   C1A11789  18.640   8.920  20.650
  492BOLB   C2A11790  18.620   8.690  21.080
  492BOLB   C3A11791  18.600   8.380  21.480
  492BOLB   C4A11792  18.500   8.340  22.010
  492BOLB   C1B11793  18.370   8.470  20.630
  492BOLB   C2B11794  18.170   8.560  21.120
  492BOLB   C3B11795  18.080   8.210  21.490
  492BOLB   C4B11796  17.940   8.110  22.030
  492BOLB   NC211797  18.560   7.630  24.570
  492BOLB   PO211798  18.130   7.630  24.230
  492BOLB   GL311799  18.270   8.000  23.940
  492BOLB   GL411800  18.010   8.220  23.760
  492BOLB   C1C11801  18.430   8.050  23.460
  492BOLB   C2C11802  18.310   8.060  23.110
  492BOLB   C3C11803  18.490   8.350  22.860
  492BOLB   C4C11804  18.630   8.470  22.400
  492BOLB   C1D11805  18.090   8.420  23.340
  492BOLB   C2D11806  18.060   8.690  22.940
  492BOLB   C3D11807  18.000   9.060  22.730
  492BOLB   C4D11808  17.850   9.540  22.630
  493BOLB   NC111809  12.540   8.580  15.660
  493BOLB   PO111810  12.110   8.630  15.420
  493BOLB   GL111811  11.730   8.480  15.600
  493BOLB   GL211812  11.710   8.360  15.890
  493BOLB   C1A11813  11.520   8.120  15.350
  493BOLB   C2A11814  11.270   7.960  15.090
  493BOLB   C3A11815  11.060   7.980  14.780
  493BOLB   C4A11816  10.760   7.880  14.510
  493BOLB   C1B11817  11.360   8.090  15.830
  493BOLB   C2B11818  10.980   7.850  15.810
  493BOLB   C3B11819  10.570   7.540  15.880
  493BOLB   C4B11820  10.250   7.250  15.940
  493BOLB   NC211821   9.500   6.390  13.630
  493BOLB   PO211822   9.150   6.290  14.000
  493BOLB   GL311823   9.510   6.350  14.190
  493BOLB   GL411824   9.520   6.250  14.520
  493BOLB   C1C11825   9.930   6.550  14.260
  493BOLB   C2C11826  10.110   6.890  14.310
  493BOLB   C3C11827  10.250   7.300  14.370
  493BOLB   C4C11828  10.510   7.600  14.250
  493BOLB   C1D11829   9.830   5.960  14.330
  493BOLB   C2D11830  10.270   5.890  14.220
  493BOLB   C3D11831  10.550   5.890  13.980
  493BOLB   C4D11832  10.960   5.730  13.870
  494BOLB   NC111833  24.120  21.070  15.230
  494BOLB   PO111834  24.400  21.040  15.520
  494BOLB   GL111835  24.610  21.310  15.430
  494BOLB   GL211836  24.850  21.240  15.270
  494BOLB   C1A11837  24.680  21.690  15.470
  494BOLB   C2A11838  24.960  21.970  15.520
  494BOLB   C3A11839  25.250  22.200  15.650
  494BOLB   C4A11840  25.500  22.590  15.800
  494BOLB   C1B11841  25.120  21.470  15.340
  494BOLB   C2B11842  25.350  21.780  15.230
  494BOLB   C3B11843  25.520  22.170  15.180
  494BOLB   C4B11844  25.760  22.510  15.370
  494BOLB   NC211845  26.520  23.790  17.640
  494BOLB   PO211846  26.230  24.270  17.480
  494BOLB   GL311847  26.230  24.080  17.040
  494BOLB   GL411848  26.410  23.800  16.960
  494BOLB   C1C11849  26.060  23.940  16.660
  494BOLB   C2C11850  25.990  23.610  16.350
  494BOLB   C3C11851  26.000  23.150  16.190
  494BOLB   C4C11852  25.790  22.740  15.990
  494BOLB   C1D11853  26.140  23.450  16.860
  494BOLB   C2D11854  26.010  23.140  16.660
  494BOLB   C3D11855  25.730  22.780  16.530
  494BOLB   C4D11856  25.570  22.470  16.840
  495BOLB   NC111857  10.200  13.770  14.520
  495BOLB   PO111858   9.900  13.910  14.930
  495BOLB   GL111859   9.520  13.650  15.070
  495BOLB   GL211860   9.640  13.250  15.110
  495BOLB   C1A11861   9.190  13.420  15.320
  495BOLB   C2A11862   8.770  13.270  15.250
  495BOLB   C3A11863   8.320  13.420  15.090
  495BOLB   C4A11864   7.980  13.550  14.730
  495BOLB   C1B11865   9.280  12.900  15.300
  495BOLB   C2B11866   8.960  12.770  15.480
  495BOLB   C3B11867   8.600  12.580  15.600
  495BOLB   C4B11868   8.500  12.180  15.890
  495BOLB   NC211869   6.190  13.400  14.870
  495BOLB   PO211870   5.970  13.690  14.650
  495BOLB   GL311871   6.290  14.070  14.600
  495BOLB   GL411872   6.300  14.030  14.900
  495BOLB   C1C11873   6.640  14.070  14.340
  495BOLB   C2C11874   7.040  13.990  14.260
  495BOLB   C3C11875   7.430  14.040  14.400
  495BOLB   C4C11876   7.770  13.800  14.490
  495BOLB   C1D11877   6.750  14.130  15.050
  495BOLB   C2D11878   7.110  13.950  15.340
  495BOLB   C3D11879   7.520  13.640  15.450
  495BOLB   C4D11880   7.900  13.760  15.570
  496BOLB   NC111881  26.760   9.450  12.920
  496BOLB   PO111882  27.140   9.250  12.820
  496BOLB   GL111883  27.340   8.930  12.680
  496BOLB   GL211884  27.740   8.890  12.650
  496BOLB   C1A11885  27.420   8.580  12.440
  496BOLB   C2A11886  27.710   8.210  12.320
  496BOLB   C3A11887  28.050   8.080  12.400
  496BOLB   C4A11888  28.470   8.030  12.410
  496BOLB   C1B11889  28.060   8.640  12.410
  496BOLB   C2B11890  28.360   8.400  12.160
  496BOLB   C3B11891  28.820   8.470  12.160
  496BOLB   C4B11892  29.230   8.280  11.970
  496BOLB   NC211893  30.810   7.090  12.750
  496BOLB   PO211894  30.680   6.700  12.790
  496BOLB   GL311895  30.350   7.020  12.730
  496BOLB   GL411896  30.470   7.380  12.800
  496BOLB   C1C11897  30.030   7.140  12.770
  496BOLB   C2C11898  29.610   7.270  12.610
  496BOLB   C3C11899  29.190   7.400  12.380
  496BOLB   C4C11900  28.780   7.700  12.430
  496BOLB   C1D11901  30.270   7.530  13.120
  496BOLB   C2D11902  29.970   7.710  13.270
  496BOLB   C3D11903  29.600   7.860  13.360
  496BOLB   C4D11904  29.200   8.070  13.280
  497BOLB   NC111905  16.990  14.850  19.950
  497BOLB   PO111906  16.630  15.150  20.030
  497BOLB   GL111907  16.530  15.150  20.480
  497BOLB   GL211908  16.650  14.880  20.680
  497BOLB   C1A11909  16.590  15.490  20.870
  497BOLB   C2A11910  16.300  15.740  21.090
  497BOLB   C3A11911  16.150  15.720  21.440
  497BOLB   C4A11912  15.940  15.890  21.820
  497BOLB   C1B11913  16.390  14.950  21.070
  497BOLB   C2B11914  16.160  14.700  21.370
  497BOLB   C3B11915  15.920  14.480  21.660
  497BOLB   C4B11916  15.900  14.110  21.770
  497BOLB   NC211917  16.130  15.830  23.940
  497BOLB   PO211918  15.930  16.190  24.000
  497BOLB   GL311919  16.030  16.130  23.560
  497BOLB   GL411920  16.280  15.890  23.380
  497BOLB   C1C11921  15.960  16.370  23.090
  497BOLB   C2C11922  15.830  16.440  22.790
  497BOLB   C3C11923  15.860  16.260  22.460
  497BOLB   C4C11924  15.800  16.210  21.980
  497BOLB   C1D11925  16.370  15.550  23.160
  497BOLB   C2D11926  16.340  15.210  22.900
  497BOLB   C3D11927  16.020  14.860  22.860
  497BOLB   C4D11928  15.620  14.700  23.080
  498BOLB   NC111929  24.320  20.220  11.010
  498BOLB   PO111930  24.530  20.570  10.860
  498BOLB   GL111931  24.850  20.820  10.630
  498BOLB   GL211932  24.730  21.060  10.700
  498BOLB   C1A11933  25.160  21.120  10.460
  498BOLB   C2A11934  25.410  21.330  10.340
  498BOLB   C3A11935  25.730  21.460  10.130
  498BOLB   C4A11936  26.080  21.400   9.870
  498BOLB   C1B11937  25.020  21.180  10.960
  498BOLB   C2B11938  25.300  21.460  10.870
  498BOLB   C3B11939  25.590  21.750  10.710
  498BOLB   C4B11940  25.780  21.920  10.370
  498BOLB   NC211941  27.470  23.900   9.770
  498BOLB   PO211942  27.460  23.560   9.490
  498BOLB   GL311943  27.400  23.060   9.530
  498BOLB   GL411944  27.360  22.920   9.750
  498BOLB   C1C11945  27.190  22.740   9.310
  498BOLB   C2C11946  26.860  22.370   9.280
  498BOLB   C3C11947  26.490  22.080   9.430
  498BOLB   C4C11948  26.280  21.710   9.580
  498BOLB   C1D11949  26.930  22.680   9.840
  498BOLB   C2D11950  26.640  22.390   9.830
  498BOLB   C3D11951  26.270  22.340   9.980
  498BOLB   C4D11952  25.880  22.500  10.070
  499BOLB   NC111953  13.510   7.130  15.750
  499BOLB   PO111954  13.720   7.040  16.160
  499BOLB   GL111955  13.530   6.740  16.010
  499BOLB   GL211956  13.210   6.810  16.000
  499BOLB   C1A11957  13.590   6.270  16.010
  499BOLB   C2A11958  13.650   5.800  15.840
  499BOLB   C3A11959  13.280   5.450  15.590
  499BOLB   C4A11960  13.010   5.180  15.300
  499BOLB   C1B11961  12.760   6.670  16.070
  499BOLB   C2B11962  12.420   6.540  16.320
  499BOLB   C3B11963  11.990   6.790  16.190
  499BOLB   C4B11964  11.570   6.810  16.250
  499BOLB   NC211965  11.760   2.760  15.460
  499BOLB   PO211966  11.980   3.120  15.690
  499BOLB   GL311967  12.150   3.470  15.670
  499BOLB   GL411968  12.490   3.390  15.630
  499BOLB   C1C11969  12.270   3.730  15.310
  499BOLB   C2C11970  12.330   4.100  14.980
  499BOLB   C3C11971  12.350   4.470  15.170
  499BOLB   C4C11972  12.720   4.780  15.360
  499BOLB   C1D11973  12.630   3.840  15.710
  499BOLB   C2D11974  12.810   4.050  15.400
  499BOLB   C3D11975  12.840   3.980  14.900
  499BOLB   C4D11976  12.970   3.600  14.720
  500BOLB   NC111977  17.920  23.280  10.640
  500BOLB   PO111978  18.340  23.270  10.700
  500BOLB   GL111979  18.610  23.640  10.540
  500BOLB   GL211980  18.730  23.890  10.860
  500BOLB   C1A11981  18.620  23.770  10.180
  500BOLB   C2A11982  18.630  24.130   9.850
  500BOLB   C3A11983  18.720  24.310   9.480
  500BOLB   C4A11984  18.940  24.660   9.360
  500BOLB   C1B11985  18.680  24.130  10.480
  500BOLB   C2B11986  18.690  24.460  10.310
  500BOLB   C3B11987  18.610  24.620   9.900
  500BOLB   C4B11988  18.590  25.030   9.660
  500BOLB   NC211989  18.080  27.070   9.180
  500BOLB   PO211990  18.480  26.860   9.280
  500BOLB   GL311991  18.370  26.380   9.280
  500BOLB   GL411992  18.640  26.210   9.510
  500BOLB   C1C11993  18.210  25.950   9.250
  500BOLB   C2C11994  18.080  25.480   9.330
  500BOLB   C3C11995  18.450  25.230   9.260
  500BOLB   C4C11996  18.720  24.910   9.190
  500BOLB   C1D11997  18.440  26.050   9.780
  500BOLB   C2D11998  17.980  25.960   9.810
  500BOLB   C3D11999  17.690  25.560   9.760
  500BOLB   C4D12000  17.350  25.350   9.950
  501BOLB   NC112001  28.720  11.660  12.680
  501BOLB   PO112002  28.700  11.800  13.120
  501BOLB   GL112003  29.080  11.840  12.970
  501BOLB   GL212004  29.030  12.250  13.090
  501BOLB   C1A12005  29.500  11.820  12.810
  501BOLB   C2A12006  29.840  11.730  12.900
  501BOLB   C3A12007  30.260  11.630  12.900
  501BOLB   C4A12008  30.490  11.490  13.240
  501BOLB   C1B12009  29.380  12.230  13.240
  501BOLB   C2B12010  29.790  12.200  13.110
  501BOLB   C3B12011  30.050  12.350  12.740
  501BOLB   C4B12012  30.270  12.570  12.470
  501BOLB   NC212013  32.770  11.980  12.420
  501BOLB   PO212014  32.820  11.620  12.680
  501BOLB   GL312015  32.410  11.840  12.800
  501BOLB   GL412016  32.500  11.950  13.100
  501BOLB   C1C12017  31.940  11.790  12.790
  501BOLB   C2C12018  31.490  11.920  12.850
  501BOLB   C3C12019  31.120  11.830  13.170
  501BOLB   C4C12020  30.770  11.730  13.400
  501BOLB   C1D12021  32.150  12.010  13.250
  501BOLB   C2D12022  31.690  11.930  13.340
  501BOLB   C3D12023  31.430  11.690  13.550
  501BOLB   C4D12024  31.100  11.520  13.790
  502BOLB   NC112025  16.080   8.370  19.630
  502BOLB   PO112026  16.380   8.430  19.800
  502BOLB   GL112027  16.250   8.430  20.270
  502BOLB   GL212028  16.060   8.150  20.110
  502BOLB   C1A12029  15.960   8.660  20.550
  502BOLB   C2A12030  15.850   8.630  21.100
  502BOLB   C3A12031  15.640   8.410  21.400
  502BOLB   C4A12032  15.420   8.110  21.540
  502BOLB   C1B12033  15.960   8.070  20.610
  502BOLB   C2B12034  15.910   8.120  21.100
  502BOLB   C3B12035  16.060   8.120  21.450
  502BOLB   C4B12036  16.390   8.410  21.750
  502BOLB   NC212037  13.250   7.220  22.900
  502BOLB   PO212038  13.620   7.090  22.780
  502BOLB   GL312039  13.890   7.330  22.540
  502BOLB   GL412040  13.920   7.210  22.150
  502BOLB   C1C12041  14.410   7.390  22.460
  502BOLB   C2C12042  14.730   7.200  22.190
  502BOLB   C3C12043  15.020   7.360  21.940
  502BOLB   C4C12044  15.250   7.680  21.640
  502BOLB   C1D12045  13.860   7.340  21.770
  502BOLB   C2D12046  14.100   7.510  21.590
  502BOLB   C3D12047  14.410   7.650  21.330
  502BOLB   C4D12048  14.750   7.980  21.360
  503BOLB   NC112049  20.830   8.880  19.840
  503BOLB   PO112050  20.310   8.990  19.850
  503BOLB   GL112051  20.050   8.890  20.390
  503BOLB   GL212052  19.550   8.850  20.420
  503BOLB   C1A12053  20.140   8.720  20.730
  503BOLB   C2A12054  20.090   8.410  21.060
  503BOLB   C3A12055  20.010   8.330  21.400
  503BOLB   C4A12056  20.040   8.160  21.840
  503BOLB   C1B12057  19.550   8.810  20.820
  503BOLB   C2B12058  19.620   8.550  21.110
  503BOLB   C3B12059  19.510   8.530  21.510
  503BOLB   C4B12060  19.570   8.550  21.920
  503BOLB   NC212061  18.710   7.120  23.830
  503BOLB   PO212062  18.960   7.500  23.760
  503BOLB   GL312063  19.060   7.280  23.300
  503BOLB   GL412064  18.690   7.280  23.200
  503BOLB   C1C12065  19.340   7.340  22.970
  503BOLB   C2C12066  19.600   7.320  22.600
  503BOLB   C3C12067  20.050   7.520  22.320
  503BOLB   C4C12068  20.190   7.840  22.050
  503BOLB   C1D12069  18.560   7.330  22.690
  503BOLB   C2D12070  18.740   7.570  22.340
  503BOLB   C3D12071  18.690   7.570  21.970
  503BOLB   C4D12072  18.670   7.910  21.670
  504BOLB   NC112073  16.190  22.300  16.150
  504BOLB   PO112074  16.370  22.070  16.600
  504BOLB   GL112075  16.090  22.440  16.640
  504BOLB   GL212076  15.920  22.580  16.390
  504BOLB   C1A12077  15.790  22.640  16.870
  504BOLB   C2A12078  15.650  22.950  17.240
  504BOLB   C3A12079  15.340  23.090  17.630
  504BOLB   C4A12080  14.930  23.070  17.760
  504BOLB   C1B12081  15.910  23.050  16.440
  504BOLB   C2B12082  15.630  23.380  16.490
  504BOLB   C3B12083  15.230  23.430  16.520
  504BOLB   C4B12084  15.040  23.620  16.910
  504BOLB   NC212085  12.950  24.260  18.550
  504BOLB   PO212086  12.880  24.530  18.200
  504BOLB   GL312087  13.260  24.260  18.150
  504BOLB   GL412088  13.130  24.190  17.850
  504BOLB   C1C12089  13.550  23.840  18.200
  504BOLB   C2C12090  13.950  23.630  18.200
  504BOLB   C3C12091  14.280  23.470  17.990
  504BOLB   C4C12092  14.630  23.180  17.950
  504BOLB   C1D12093  13.140  23.870  17.400
  504BOLB   C2D12094  13.160  23.420  17.430
  504BOLB   C3D12095  13.300  23.040  17.200
  504BOLB   C4D12096  13.430  22.690  17.290
  505BOLB   NC112097  19.200  20.770  17.300
  505BOLB   PO112098  19.160  20.960  17.740
  505BOLB   GL112099  19.100  21.190  18.160
  505BOLB   GL212100  19.030  20.980  18.430
  505BOLB   C1A12101  19.120  21.540  18.470
  505BOLB   C2A12102  18.780  21.880  18.560
  505BOLB   C3A12103  18.430  22.030  18.810
  505BOLB   C4A12104  18.350  22.350  19.130
  505BOLB   C1B12105  18.820  21.240  18.750
  505BOLB   C2B12106  18.500  21.500  18.950
  505BOLB   C3B12107  18.430  21.820  19.270
  505BOLB   C4B12108  18.680  22.150  19.480
  505BOLB   NC212109  17.390  24.120  20.730
  505BOLB   PO212110  17.780  23.800  20.790
  505BOLB   GL312111  17.860  23.430  20.600
  505BOLB   GL412112  18.200  23.350  20.650
  505BOLB   C1C12113  17.690  23.100  20.470
  505BOLB   C2C12114  17.830  22.740  20.210
  505BOLB   C3C12115  17.890  22.390  20.010
  505BOLB   C4C12116  18.090  22.220  19.610
  505BOLB   C1D12117  18.230  22.910  20.570
  505BOLB   C2D12118  18.270  22.460  20.330
  505BOLB   C3D12119  18.320  22.090  20.030
  505BOLB   C4D12120  18.310  21.750  19.790
  506BOLB   NC112121  25.280  15.920  19.430
  506BOLB   PO112122  25.190  15.610  19.450
  506BOLB   GL112123  25.340  15.730  19.890
  506BOLB   GL212124  25.310  16.050  19.860
  506BOLB   C1A12125  25.430  15.580  20.310
  506BOLB   C2A12126  25.350  15.810  20.650
  506BOLB   C3A12127  25.620  16.010  20.860
  506BOLB   C4A12128  25.700  16.540  20.920
  506BOLB   C1B12129  25.360  16.120  20.270
  506BOLB   C2B12130  25.360  16.370  20.490
  506BOLB   C3B12131  25.190  16.680  20.860
  506BOLB   C4B12132  25.340  16.780  21.200
  506BOLB   NC212133  27.070  16.130  23.130
  506BOLB   PO212134  26.720  16.100  22.880
  506BOLB   GL312135  26.470  16.060  22.550
  506BOLB   GL412136  26.570  16.150  22.270
  506BOLB   C1C12137  26.060  16.270  22.470
  506BOLB   C2C12138  25.920  16.470  22.080
  506BOLB   C3C12139  26.020  16.750  21.710
  506BOLB   C4C12140  25.940  16.810  21.220
  506BOLB   C1D12141  26.240  16.060  21.950
  506BOLB   C2D12142  25.990  15.960  21.550
  506BOLB   C3D12143  25.910  15.840  21.180
  506BOLB   C4D12144  26.110  15.700  20.800
  507BOLB   NC112145  27.440  16.890  15.090
  507BOLB   PO112146  27.470  17.030  14.720
  507BOLB   GL112147  27.870  17.240  14.780
  507BOLB   GL212148  27.800  17.270  15.070
  507BOLB   C1A12149  28.320  17.050  14.810
  507BOLB   C2A12150  28.730  17.250  14.780
  507BOLB   C3A12151  29.100  17.550  14.760
  507BOLB   C4A12152  29.480  17.680  14.780
  507BOLB   C1B12153  28.290  17.470  15.040
  507BOLB   C2B12154  28.690  17.660  15.040
  507BOLB   C3B12155  29.000  17.900  15.150
  507BOLB   C4B12156  29.350  18.030  15.210
  507BOLB   NC212157  32.160  17.740  15.060
  507BOLB   PO212158  31.740  18.140  15.100
  507BOLB   GL312159  31.340  18.040  15.010
  507BOLB   GL412160  31.240  17.940  15.360
  507BOLB   C1C12161  30.890  18.100  14.970
  507BOLB   C2C12162  30.590  18.060  14.770
  507BOLB   C3C12163  30.390  17.890  14.510
  507BOLB   C4C12164  29.930  17.740  14.560
  507BOLB   C1D12165  30.800  18.070  15.490
  507BOLB   C2D12166  30.440  18.270  15.300
  507BOLB   C3D12167  30.160  18.550  15.340
  507BOLB   C4D12168  29.870  18.670  15.020
  508BOLB   NC112169  14.750  18.850  17.870
  508BOLB   PO112170  14.570  18.590  18.180
  508BOLB   GL112171  14.310  18.960  18.250
  508BOLB   GL212172  14.550  19.210  18.200
  508BOLB   C1A12173  14.230  19.100  18.650
  508BOLB   C2A12174  14.060  19.180  19.040
  508BOLB   C3A12175  13.850  19.400  19.360
  508BOLB   C4A12176  13.710  19.760  19.600
  508BOLB   C1B12177  14.320  19.520  18.470
  508BOLB   C2B12178  14.190  19.720  18.800
  508BOLB   C3B12179  14.090  20.060  19.120
  508BOLB   C4B12180  14.390  20.330  19.240
  508BOLB   NC212181  12.530  20.290  21.310
  508BOLB   PO212182  12.200  20.530  21.260
  508BOLB   GL312183  12.360  20.580  20.880
  508BOLB   GL412184  12.120  20.580  20.690
  508BOLB   C1C12185  12.780  20.580  20.690
  508BOLB   C2C12186  13.130  20.280  20.430
  508BOLB   C3C12187  13.270  19.990  20.140
  508BOLB   C4C12188  13.330  19.910  19.730
  508BOLB   C1D12189  12.310  20.740  20.360
  508BOLB   C2D12190  12.590  20.670  20.000
  508BOLB   C3D12191  12.890  20.670  19.630
  508BOLB   C4D12192  13.270  20.960  19.590
  509BOLB   NC112193  17.390  12.420  20.640
  509BOLB   PO112194  17.790  12.250  20.670
  509BOLB   GL112195  17.640  12.210  21.030
  509BOLB   GL212196  17.280  12.120  21.310
  509BOLB   C1A12197  17.810  12.140  21.420
  509BOLB   C2A12198  17.580  12.220  21.860
  509BOLB   C3A12199  17.550  12.400  22.210
  509BOLB   C4A12200  17.240  12.290  22.300
  509BOLB   C1B12201  16.940  11.800  21.450
  509BOLB   C2B12202  16.720  11.720  21.830
  509BOLB   C3B12203  16.510  11.760  22.200
  509BOLB   C4B12204  16.590  11.940  22.580
  509BOLB   NC212205  15.690  12.060  24.310
  509BOLB   PO212206  15.950  12.370  24.460
  509BOLB   GL312207  16.140  12.240  24.060
  509BOLB   GL412208  16.030  11.910  23.920
  509BOLB   C1C12209  16.370  12.100  23.690
  509BOLB   C2C12210  16.780  11.970  23.410
  509BOLB   C3C12211  16.890  12.030  22.990
  509BOLB   C4C12212  17.040  12.200  22.680
  509BOLB   C1D12213  15.920  11.660  23.540
  509BOLB   C2D12214  16.060  11.410  23.110
  509BOLB   C3D12215  16.180  11.470  22.680
  509BOLB   C4D12216  15.990  11.580  22.300
  510BOLB   NC112217  21.260  16.820  20.000
  510BOLB   PO112218  21.530  17.130  19.740
  510BOLB   GL112219  21.330  17.290  20.160
  510BOLB   GL212220  21.310  17.050  20.470
  510BOLB   C1A12221  21.240  17.540  20.410
  510BOLB   C2A12222  21.230  17.760  20.910
  510BOLB   C3A12223  21.440  17.760  21.400
  510BOLB   C4A12224  21.410  18.150  21.500
  510BOLB   C1B12225  21.250  17.240  20.840
  510BOLB   C2B12226  21.460  17.310  21.190
  510BOLB   C3B12227  21.750  17.340  21.640
  510BOLB   C4B12228  22.000  17.320  21.970
  510BOLB   NC212229  21.630  18.420  23.730
  510BOLB   PO212230  21.800  18.730  23.860
  510BOLB   GL312231  21.560  18.700  23.330
  510BOLB   GL412232  21.300  18.490  23.290
  510BOLB   C1C12233  21.760  18.690  22.880
  510BOLB   C2C12234  21.660  18.830  22.510
  510BOLB   C3C12235  21.470  18.600  22.140
  510BOLB   C4C12236  21.550  18.230  21.850
  510BOLB   C1D12237  21.060  18.360  22.970
  510BOLB   C2D12238  20.910  18.130  22.550
  510BOLB   C3D12239  20.900  18.260  22.010
  510BOLB   C4D12240  21.000  18.460  21.610
  511BOLB   NC112241  25.370  19.910  15.250
  511BOLB   PO112242  25.720  20.100  15.450
  511BOLB   GL112243  25.850  20.430  15.620
  511BOLB   GL212244  25.550  20.660  15.660
  511BOLB   C1A12245  26.020  20.710  15.790
  511BOLB   C2A12246  26.350  21.060  15.850
  511BOLB   C3A12247  26.420  21.310  16.140
  511BOLB   C4A12248  26.360  21.700  16.410
  511BOLB   C1B12249  25.610  21.090  15.690
  511BOLB   C2B12250  25.910  21.350  15.860
  511BOLB   C3B12251  25.920  21.750  16.040
  511BOLB   C4B12252  25.880  21.820  16.520
  511BOLB   NC212253  27.090  23.900  16.960
  511BOLB   PO212254  26.880  23.650  17.190
  511BOLB   GL312255  26.410  23.390  17.360
  511BOLB   GL412256  26.580  23.310  17.580
  511BOLB   C1C12257  26.160  22.970  17.190
  511BOLB   C2C12258  26.020  22.730  16.940
  511BOLB   C3C12259  26.010  22.280  16.780
  511BOLB   C4C12260  26.310  22.100  16.530
  511BOLB   C1D12261  26.650  22.980  17.230
  511BOLB   C2D12262  26.440  22.570  17.160
  511BOLB   C3D12263  26.480  22.190  17.000
  511BOLB   C4D12264  26.230  21.850  17.010
  512BOLB   NC112265  25.990  13.740  19.250
  512BOLB   PO112266  25.880  14.090  18.970
  512BOLB   GL112267  26.140  14.260  19.290
  512BOLB   GL212268  26.400  14.090  19.150
  512BOLB   C1A12269  26.480  14.250  19.590
  512BOLB   C2A12270  26.770  14.280  19.880
  512BOLB   C3A12271  27.130  14.430  20.150
  512BOLB   C4A12272  27.540  14.520  20.040
  512BOLB   C1B12273  26.840  13.810  19.240
  512BOLB   C2B12274  27.240  13.760  19.280
  512BOLB   C3B12275  27.670  13.630  19.460
  512BOLB   C4B12276  28.130  13.550  19.420
  512BOLB   NC212277  29.980  14.000  20.230
  512BOLB   PO212278  29.720  13.890  20.480
  512BOLB   GL312279  29.280  14.060  20.500
  512BOLB   GL412280  28.970  14.100  20.780
  512BOLB   C1C12281  28.960  14.320  20.340
  512BOLB   C2C12282  28.680  14.500  20.110
  512BOLB   C3C12283  28.290  14.500  19.880
  512BOLB   C4C12284  27.920  14.570  19.810
  512BOLB   C1D12285  28.860  14.480  20.840
  512BOLB   C2D12286  28.710  14.720  20.600
  512BOLB   C3D12287  28.330  14.790  20.360
  512BOLB   C4D12288  27.930  14.860  20.220
  513BOLB   NC112289  27.620  13.870  16.730
  513BOLB   PO112290  27.590  14.240  17.040
  513BOLB   GL112291  27.680  14.470  17.390
  513BOLB   GL212292  27.940  14.600  17.360
  513BOLB   C1A12293  27.820  14.460  17.800
  513BOLB   C2A12294  28.160  14.460  18.230
  513BOLB   C3A12295  28.440  14.250  18.530
  513BOLB   C4A12296  28.540  14.180  18.930
  513BOLB   C1B12297  28.010  14.890  17.620
  513BOLB   C2B12298  28.160  15.280  17.830
  513BOLB   C3B12299  28.520  15.440  18.070
  513BOLB   C4B12300  28.980  15.400  18.180
  513BOLB   NC212301  30.750  13.970  20.330
  513BOLB   PO212302  30.470  14.040  20.050
  513BOLB   GL312303  30.020  14.210  19.720
  513BOLB   GL412304  29.980  13.980  19.470
  513BOLB   C1C12305  29.690  14.570  19.630
  513BOLB   C2C12306  29.420  14.700  19.350
  513BOLB   C3C12307  29.180  14.340  19.400
  513BOLB   C4C12308  28.870  14.250  19.210
  513BOLB   C1D12309  29.600  14.160  19.170
  513BOLB   C2D12310  29.330  14.370  18.940
  513BOLB   C3D12311  29.000  14.710  19.150
  513BOLB   C4D12312  29.130  15.070  19.030
  514BOLB   NC112313  24.550   9.770  19.380
  514BOLB   PO112314  24.250  10.040  19.620
  514BOLB   GL112315  24.420   9.730  19.880
  514BOLB   GL212316  24.500   9.980  20.060
  514BOLB   C1A12317  24.570   9.480  20.190
  514BOLB   C2A12318  24.800   9.490  20.600
  514BOLB   C3A12319  24.690   9.710  20.930
  514BOLB   C4A12320  24.660   9.910  21.370
  514BOLB   C1B12321  24.490   9.910  20.490
  514BOLB   C2B12322  24.610  10.150  20.880
  514BOLB   C3B12323  25.070   9.930  21.160
  514BOLB   C4B12324  25.120  10.030  21.640
  514BOLB   NC212325  24.650  10.340  24.250
  514BOLB   PO212326  24.900  10.490  23.860
  514BOLB   GL312327  24.880  10.500  23.440
  514BOLB   GL412328  24.850  10.160  23.340
  514BOLB   C1C12329  24.680  10.510  22.940
  514BOLB   C2C12330  24.890  10.250  22.500
  514BOLB   C3C12331  24.770   9.930  22.270
  514BOLB   C4C12332  24.610   9.930  21.820
  514BOLB   C1D12333  25.090  10.190  22.930
  514BOLB   C2D12334  25.370   9.980  22.620
  514BOLB   C3D12335  25.770  10.250  22.430
  514BOLB   C4D12336  26.240  10.200  22.450
  515BOLB   NC112337  18.590   7.340  19.760
  515BOLB   PO112338  18.640   6.980  19.580
  515BOLB   GL112339  18.460   6.610  19.720
  515BOLB   GL212340  18.700   6.370  19.780
  515BOLB   C1A12341  18.190   6.470  20.000
  515BOLB   C2A12342  18.150   6.120  20.320
  515BOLB   C3A12343  18.210   5.870  20.710
  515BOLB   C4A12344  18.110   5.690  21.100
  515BOLB   C1B12345  18.620   6.060  19.990
  515BOLB   C2B12346  18.510   5.750  20.290
  515BOLB   C3B12347  18.740   5.370  20.400
  515BOLB   C4B12348  18.910   5.070  20.280
  515BOLB   NC212349  18.360   4.580  22.850
  515BOLB   PO212350  18.590   4.220  22.950
  515BOLB   GL312351  18.720   4.400  22.520
  515BOLB   GL412352  18.920   4.650  22.520
  515BOLB   C1C12353  18.610   4.610  22.130
  515BOLB   C2C12354  18.440   4.930  22.020
  515BOLB   C3C12355  18.340   5.380  21.770
  515BOLB   C4C12356  18.090   5.680  21.510
  515BOLB   C1D12357  18.890   4.990  22.270
  515BOLB   C2D12358  18.980   5.180  21.920
  515BOLB   C3D12359  19.330   5.190  21.710
  515BOLB   C4D12360  19.500   5.590  21.450
  516BOLB   NC112361  24.950  21.040  13.870
  516BOLB   PO112362  25.020  21.030  14.340
  516BOLB   GL112363  25.190  21.370  14.280
  516BOLB   GL212364  25.160  21.470  13.930
  516BOLB   C1A12365  25.320  21.810  14.300
  516BOLB   C2A12366  25.720  21.920  14.240
  516BOLB   C3A12367  26.070  22.040  14.340
  516BOLB   C4A12368  26.260  22.390  14.120
  516BOLB   C1B12369  25.600  21.520  13.940
  516BOLB   C2B12370  25.960  21.360  14.140
  516BOLB   C3B12371  26.370  21.430  14.140
  516BOLB   C4B12372  26.780  21.540  14.150
  516BOLB   NC212373  28.290  23.580  14.830
  516BOLB   PO212374  28.330  23.650  14.380
  516BOLB   GL312375  28.040  23.320  14.320
  516BOLB   GL412376  28.190  23.120  14.610
  516BOLB   C1C12377  27.780  23.070  14.030
  516BOLB   C2C12378  27.370  23.000  13.950
  516BOLB   C3C12379  26.830  22.880  14.120
  516BOLB   C4C12380  26.600  22.510  14.170
  516BOLB   C1D12381  28.340  22.650  14.730
  516BOLB   C2D12382  28.180  22.310  14.940
  516BOLB   C3D12383  27.840  22.090  15.080
  516BOLB   C4D12384  27.380  21.950  15.070
  517BOLB   NC112385  26.410  18.200  12.020
  517BOLB   PO112386  26.840  18.330  12.080
  517BOLB   GL112387  27.030  18.260  11.710
  517BOLB   GL212388  27.150  18.570  11.660
  517BOLB   C1A12389  27.440  18.140  11.390
  517BOLB   C2A12390  27.770  17.970  11.220
  517BOLB   C3A12391  28.060  18.170  10.880
  517BOLB   C4A12392  28.130  18.430  10.590
  517BOLB   C1B12393  27.540  18.750  11.750
  517BOLB   C2B12394  27.850  18.870  11.960
  517BOLB   C3B12395  28.270  18.660  11.870
  517BOLB   C4B12396  28.690  18.540  11.880
  517BOLB   NC212397  30.220  19.050   9.300
  517BOLB   PO212398  29.880  19.050   9.540
  517BOLB   GL312399  29.560  18.760   9.710
  517BOLB   GL412400  29.370  18.990   9.980
  517BOLB   C1C12401  29.410  18.410   9.910
  517BOLB   C2C12402  29.230  18.370  10.210
  517BOLB   C3C12403  28.830  18.390  10.300
  517BOLB   C4C12404  28.470  18.480  10.340
  517BOLB   C1D12405  29.160  18.860  10.370
  517BOLB   C2D12406  28.740  18.880  10.560
  517BOLB   C3D12407  28.640  19.260  10.770
  517BOLB   C4D12408  28.270  19.500  10.790
  518BOLB   NC112409  18.170  23.070  15.010
  518BOLB   PO112410  17.900  23.410  15.140
  518BOLB   GL112411  17.790  23.900  15.120
  518BOLB   GL212412  17.580  24.120  15.070
  518BOLB   C1A12413  17.890  24.320  15.420
  518BOLB   C2A12414  18.100  24.550  15.760
  518BOLB   C3A12415  17.820  24.690  16.200
  518BOLB   C4A12416  17.540  24.940  16.500
  518BOLB   C1B12417  17.430  24.430  15.170
  518BOLB   C2B12418  17.300  24.820  15.180
  518BOLB   C3B12419  17.220  25.370  15.160
  518BOLB   C4B12420  17.060  25.630  15.430
  518BOLB   NC212421  16.700  25.710  18.550
  518BOLB   PO212422  16.440  26.100  18.330
  518BOLB   GL312423  16.530  25.820  18.030
  518BOLB   GL412424  16.830  25.730  18.020
  518BOLB   C1C12425  16.520  25.710  17.650
  518BOLB   C2C12426  16.560  25.510  17.300
  518BOLB   C3C12427  16.960  25.470  17.010
  518BOLB   C4C12428  17.290  25.180  16.820
  518BOLB   C1D12429  16.830  25.340  17.960
  518BOLB   C2D12430  16.950  24.910  17.750
  518BOLB   C3D12431  17.000  24.450  17.510
  518BOLB   C4D12432  17.000  23.930  17.440
  519BOLB   NC112433  20.100  23.780  13.670
  519BOLB   PO112434  20.490  23.760  13.830
  519BOLB   GL112435  20.620  24.140  13.640
  519BOLB   GL212436  20.290  24.230  13.460
  519BOLB   C1A12437  20.570  24.590  13.600
  519BOLB   C2A12438  20.460  24.970  13.750
  519BOLB   C3A12439  20.560  25.470  13.660
  519BOLB   C4A12440  20.840  25.520  13.380
  519BOLB   C1B12441  20.080  24.470  13.710
  519BOLB   C2B12442  19.930  24.810  13.920
  519BOLB   C3B12443  19.840  25.210  14.010
  519BOLB   C4B12444  19.790  25.460  14.430
  519BOLB   NC212445  22.010  27.650  13.370
  519BOLB   PO212446  21.840  27.530  13.090
  519BOLB   GL312447  21.600  27.260  13.230
  519BOLB   GL412448  21.710  27.280  13.660
  519BOLB   C1C12449  21.570  26.810  13.120
  519BOLB   C2C12450  21.320  26.500  12.870
  519BOLB   C3C12451  21.240  26.140  13.010
  519BOLB   C4C12452  21.010  25.860  13.180
  519BOLB   C1D12453  21.670  26.860  13.590
  519BOLB   C2D12454  21.490  26.460  13.520
  519BOLB   C3D12455  21.210  26.110  13.560
  519BOLB   C4D12456  21.330  25.640  13.510
  520BOLB   NC112457  15.830   9.410  19.890
  520BOLB   PO112458  15.560   9.100  19.850
  520BOLB   GL112459  15.340   8.860  20.050
  520BOLB   GL212460  15.140   8.670  19.930
  520BOLB   C1A12461  15.390   8.760  20.440
  520BOLB   C2A12462  15.400   8.820  20.820
  520BOLB   C3A12463  15.410   8.840  21.340
  520BOLB   C4A12464  15.460   8.670  21.740
  520BOLB   C1B12465  14.820   8.410  20.200
  520BOLB   C2B12466  14.510   8.100  20.330
  520BOLB   C3B12467  14.210   7.800  20.310
  520BOLB   C4B12468  14.320   7.340  20.180
  520BOLB   NC212469  14.880   8.680  23.890
  520BOLB   PO212470  15.250   8.860  23.940
  520BOLB   GL312471  15.400   8.770  23.490
  520BOLB   GL412472  15.690   8.920  23.510
  520BOLB   C1C12473  15.190   8.790  23.090
  520BOLB   C2C12474  15.260   8.520  22.770
  520BOLB   C3C12475  15.350   8.220  22.420
  520BOLB   C4C12476  15.250   8.280  21.970
  520BOLB   C1D12477  15.730   9.360  23.380
  520BOLB   C2D12478  16.060   9.520  23.080
  520BOLB   C3D12479  16.410   9.530  22.890
  520BOLB   C4D12480  16.470   9.790  22.500
  521BOLB   NC112481  26.160  19.690  11.010
  521BOLB   PO112482  25.970  19.470  10.640
  521BOLB   GL112483  26.350  19.700  10.530
  521BOLB   GL212484  26.130  20.000  10.500
  521BOLB   C1A12485  26.620  19.970  10.290
  521BOLB   C2A12486  26.910  20.360  10.330
  521BOLB   C3A12487  27.030  20.540   9.980
  521BOLB   C4A12488  27.360  20.720   9.710
  521BOLB   C1B12489  26.180  20.280  10.150
  521BOLB   C2B12490  26.530  20.380  10.000
  521BOLB   C3B12491  26.700  20.090   9.620
  521BOLB   C4B12492  26.870  19.930   9.270
  521BOLB   NC212493  30.000  20.300   9.260
  521BOLB   PO212494  29.670  20.570   9.210
  521BOLB   GL312495  29.220  20.470   9.420
  521BOLB   GL412496  29.300  20.310   9.670
  521BOLB   C1C12497  28.810  20.400   9.530
  521BOLB   C2C12498  28.400  20.400   9.560
  521BOLB   C3C12499  28.080  20.710   9.790
  521BOLB   C4C12500  27.800  20.840   9.910
  521BOLB   C1D12501  28.950  19.970   9.680
  521BOLB   C2D12502  28.990  19.600   9.980
  521BOLB   C3D12503  28.820  19.090  10.080
  521BOLB   C4D12504  28.970  18.620   9.790
  522BOLB   NC112505  17.430  22.600  15.420
  522BOLB   PO112506  17.580  22.960  15.660
  522BOLB   GL112507  17.720  23.360  15.850
  522BOLB   GL212508  17.970  23.530  15.660
  522BOLB   C1A12509  17.600  23.710  16.060
  522BOLB   C2A12510  17.900  23.980  16.230
  522BOLB   C3A12511  18.160  24.400  16.230
  522BOLB   C4A12512  18.180  24.700  16.520
  522BOLB   C1B12513  18.140  23.940  15.610
  522BOLB   C2B12514  18.400  24.110  15.800
  522BOLB   C3B12515  18.610  24.470  16.010
  522BOLB   C4B12516  18.380  24.830  16.060
  522BOLB   NC212517  17.250  27.030  16.940
  522BOLB   PO212518  17.060  26.830  17.170
  522BOLB   GL312519  17.170  26.440  17.180
  522BOLB   GL412520  17.530  26.200  17.340
  522BOLB   C1C12521  17.190  25.920  17.100
  522BOLB   C2C12522  17.580  25.700  16.870
  522BOLB   C3C12523  17.820  25.330  16.640
  522BOLB   C4C12524  18.090  25.130  16.520
  522BOLB   C1D12525  17.920  25.970  17.210
  522BOLB   C2D12526  18.310  25.650  17.060
  522BOLB   C3D12527  18.600  25.510  16.880
  522BOLB   C4D12528  18.800  25.170  16.710
  523BOLB   NC112529  21.410   8.010  20.150
  523BOLB   PO112530  21.010   7.980  19.760
  523BOLB   GL112531  21.030   7.660  20.110
  523BOLB   GL212532  21.080   7.730  20.420
  523BOLB   C1A12533  21.130   7.240  20.510
  523BOLB   C2A12534  21.230   7.150  20.880
  523BOLB   C3A12535  21.550   7.030  21.140
  523BOLB   C4A12536  21.920   7.110  21.220
  523BOLB   C1B12537  20.910   7.620  20.870
  523BOLB   C2B12538  20.990   7.370  21.280
  523BOLB   C3B12539  20.930   7.600  21.720
  523BOLB   C4B12540  20.990   7.990  21.940
  523BOLB   NC212541  23.180   7.340  23.230
  523BOLB   PO212542  23.080   6.880  23.040
  523BOLB   GL312543  22.770   7.310  22.970
  523BOLB   GL412544  22.760   7.560  23.140
  523BOLB   C1C12545  22.450   7.510  22.660
  523BOLB   C2C12546  22.190   7.420  22.420
  523BOLB   C3C12547  22.170   7.360  22.000
  523BOLB   C4C12548  21.980   7.340  21.680
  523BOLB   C1D12549  22.880   7.840  22.730
  523BOLB   C2D12550  22.920   7.990  22.290
  523BOLB   C3D12551  22.890   7.980  21.900
  523BOLB   C4D12552  23.050   7.630  21.700
  524BOLB   NC112553  24.250  21.430  13.950
  524BOLB   PO112554  24.270  21.650  14.400
  524BOLB   GL112555  23.980  22.060  14.510
  524BOLB   GL212556  23.680  22.290  14.580
  524BOLB   C1A12557  24.070  22.530  14.380
  524BOLB   C2A12558  24.300  22.950  14.460
  524BOLB   C3A12559  24.830  23.000  14.440
  524BOLB   C4A12560  25.290  22.880  14.470
  524BOLB   C1B12561  24.120  22.380  14.840
  524BOLB   C2B12562  24.220  22.510  15.290
  524BOLB   C3B12563  24.200  22.470  15.680
  524BOLB   C4B12564  24.210  22.790  16.040
  524BOLB   NC212565  26.350  25.090  15.620
  524BOLB   PO212566  26.190  25.030  15.100
  524BOLB   GL312567  25.960  24.590  15.050
  524BOLB   GL412568  25.770  24.750  15.140
  524BOLB   C1C12569  25.890  24.210  15.050
  524BOLB   C2C12570  25.920  23.780  14.860
  524BOLB   C3C12571  25.710  23.540  14.640
  524BOLB   C4C12572  25.620  23.070  14.550
  524BOLB   C1D12573  25.440  24.430  15.090
  524BOLB   C2D12574  25.270  23.940  14.950
  524BOLB   C3D12575  25.270  23.450  14.880
  524BOLB   C4D12576  25.150  22.980  14.970
  525BOLB   NC112577  27.560  23.960  12.760
  525BOLB   PO112578  27.730  23.760  12.480
  525BOLB   GL112579  27.570  23.500  12.300
  525BOLB   GL212580  27.630  23.430  11.920
  525BOLB   C1A12581  27.400  23.170  12.530
  525BOLB   C2A12582  27.180  23.110  12.840
  525BOLB   C3A12583  26.870  22.950  13.090
  525BOLB   C4A12584  26.810  22.650  13.320
  525BOLB   C1B12585  27.220  23.320  11.970
  525BOLB   C2B12586  27.000  23.050  12.240
  525BOLB   C3B12587  26.730  22.880  12.560
  525BOLB   C4B12588  26.480  22.670  12.920
  525BOLB   NC212589  27.780  23.700  14.180
  525BOLB   PO212590  27.870  23.680  14.660
  525BOLB   GL312591  27.700  23.270  14.650
  525BOLB   GL412592  27.820  22.900  14.910
  525BOLB   C1C12593  27.590  22.880  14.460
  525BOLB   C2C12594  27.190  22.670  14.380
  525BOLB   C3C12595  27.170  22.470  14.030
  525BOLB   C4C12596  26.940  22.540  13.730
  525BOLB   C1D12597  27.740  22.460  14.770
  525BOLB   C2D12598  27.520  22.210  14.680
  525BOLB   C3D12599  27.120  21.920  14.560
  525BOLB   C4D12600  26.620  21.900  14.410
  526BOLB   NC112601  20.490  19.280  18.720
  526BOLB   PO112602  20.050  19.420  18.830
  526BOLB   GL112603  20.000  19.570  19.270
  526BOLB   GL212604  19.850  19.890  19.320
  526BOLB   C1A12605  20.090  19.660  19.700
  526BOLB   C2A12606  20.100  19.950  20.090
  526BOLB   C3A12607  20.070  20.320  20.370
  526BOLB   C4A12608  20.000  20.660  20.670
  526BOLB   C1B12609  19.860  20.150  19.680
  526BOLB   C2B12610  20.000  20.380  19.860
  526BOLB   C3B12611  20.080  20.790  20.110
  526BOLB   C4B12612  20.120  21.060  20.350
  526BOLB   NC212613  21.060  22.030  22.720
  526BOLB   PO212614  21.030  22.350  22.310
  526BOLB   GL312615  20.970  22.170  21.830
  526BOLB   GL412616  20.750  22.190  21.730
  526BOLB   C1C12617  20.900  21.820  21.400
  526BOLB   C2C12618  20.690  21.550  21.200
  526BOLB   C3C12619  20.540  21.160  20.930
  526BOLB   C4C12620  20.280  20.910  20.860
  526BOLB   C1D12621  20.520  22.100  21.420
  526BOLB   C2D12622  20.330  21.910  21.090
  526BOLB   C3D12623  20.350  21.610  20.770
  526BOLB   C4D12624  20.650  21.390  20.550
  527BOLB   NC112625  24.380  17.080   8.180
  527BOLB   PO112626  23.980  17.090   7.850
  527BOLB   GL112627  24.280  16.850   7.660
  527BOLB   GL212628  24.080  16.690   7.490
  527BOLB   C1A12629  24.660  16.920   7.370
  527BOLB   C2A12630  24.860  17.030   6.990
  527BOLB   C3A12631  24.980  17.140   6.570
  527BOLB   C4A12632  24.850  17.180   6.110
  527BOLB   C1B12633  24.330  16.820   7.050
  527BOLB   C2B12634  24.590  16.820   6.640
  527BOLB   C3B12635  24.400  16.960   6.290
  527BOLB   C4B12636  24.400  17.080   5.850
  527BOLB   NC212637  25.450  18.950   4.120
  527BOLB   PO212638  25.780  18.840   4.360
  527BOLB   GL312639  25.430  18.690   4.730
  527BOLB   GL412640  25.520  18.290   4.880
  527BOLB   C1C12641  25.020  18.370   4.790
  527BOLB   C2C12642  25.090  18.060   5.090
  527BOLB   C3C12643  24.790  17.930   5.480
  527BOLB   C4C12644  24.820  17.550   5.790
  527BOLB   C1D12645  25.510  18.370   5.230
  527BOLB   C2D12646  25.160  18.340   5.510
  527BOLB   C3D12647  24.800  18.320   5.760
  527BOLB   C4D12648  24.360  18.420   5.680
  528BOLB   NC112649  17.090  22.210   9.690
  528BOLB   PO112650  17.600  22.350   9.900
  528BOLB   GL112651  17.400  22.600   9.610
  528BOLB   GL212652  17.280  22.480   9.280
  528BOLB   C1A12653  17.270  23.020   9.430
  528BOLB   C2A12654  17.230  23.320   9.120
  528BOLB   C3A12655  17.250  23.610   8.770
  528BOLB   C4A12656  17.130  24.060   8.550
  528BOLB   C1B12657  17.420  22.810   8.960
  528BOLB   C2B12658  17.480  23.120   8.550
  528BOLB   C3B12659  17.440  23.480   8.270
  528BOLB   C4B12660  17.520  23.890   8.200
  528BOLB   NC212661  16.690  25.530   7.560
  528BOLB   PO212662  16.970  25.580   7.190
  528BOLB   GL312663  17.190  25.500   7.570
  528BOLB   GL412664  17.060  25.200   7.560
  528BOLB   C1C12665  17.550  25.380   7.820
  528BOLB   C2C12666  17.740  25.110   8.000
  528BOLB   C3C12667  17.630  24.660   8.160
  528BOLB   C4C12668  17.310  24.370   8.240
  528BOLB   C1D12669  17.140  24.810   7.350
  528BOLB   C2D12670  17.180  24.420   7.420
  528BOLB   C3D12671  17.300  24.320   7.770
  528BOLB   C4D12672  17.710  24.310   7.850
  529BOLB   NC112673  12.840   8.890  17.640
  529BOLB   PO112674  12.640   8.830  17.180
  529BOLB   GL112675  12.330   8.630  17.430
  529BOLB   GL212676  11.970   8.770  17.480
  529BOLB   C1A12677  12.180   8.210  17.420
  529BOLB   C2A12678  12.200   7.730  17.390
  529BOLB   C3A12679  12.330   7.400  17.500
  529BOLB   C4A12680  12.070   7.010  17.510
  529BOLB   C1B12681  11.560   8.730  17.650
  529BOLB   C2B12682  11.130   8.800  17.850
  529BOLB   C3B12683  10.770   9.080  17.870
  529BOLB   C4B12684  10.580   9.490  18.110
  529BOLB   NC212685  10.100   6.630  19.200
  529BOLB   PO212686  10.440   6.710  19.450
  529BOLB   GL312687  10.550   6.920  19.140
  529BOLB   GL412688  10.430   7.230  19.210
  529BOLB   C1C12689  10.970   6.930  18.780
  529BOLB   C2C12690  11.410   6.950  18.660
  529BOLB   C3C12691  11.590   7.060  18.300
  529BOLB   C4C12692  11.890   7.100  17.950
  529BOLB   C1D12693  10.780   7.350  19.080
  529BOLB   C2D12694  10.930   7.690  18.900
  529BOLB   C3D12695  11.340   7.900  18.790
  529BOLB   C4D12696  11.660   7.920  18.490
  530BOLB   NC112697  16.340  11.040  20.160
  530BOLB   PO112698  16.440  10.580  19.990
  530BOLB   GL112699  16.530  10.430  20.420
  530BOLB   GL212700  16.250  10.540  20.590
  530BOLB   C1A12701  16.660  10.410  20.890
  530BOLB   C2A12702  16.730  10.290  21.320
  530BOLB   C3A12703  16.650  10.350  21.820
  530BOLB   C4A12704  16.650  10.290  22.150
  530BOLB   C1B12705  16.170  10.590  21.060
  530BOLB   C2B12706  16.110  10.460  21.580
  530BOLB   C3B12707  15.730  10.380  21.790
  530BOLB   C4B12708  15.340  10.700  21.730
  530BOLB   NC212709  15.540  10.280  24.320
  530BOLB   PO212710  15.810  10.100  24.600
  530BOLB   GL312711  15.890   9.970  24.100
  530BOLB   GL412712  16.220   9.880  24.020
  530BOLB   C1C12713  15.880   9.790  23.650
  530BOLB   C2C12714  16.140   9.920  23.370
  530BOLB   C3C12715  16.290  10.060  22.930
  530BOLB   C4C12716  16.420  10.290  22.600
  530BOLB   C1D12717  16.280  10.190  23.760
  530BOLB   C2D12718  16.420  10.560  23.640
  530BOLB   C3D12719  16.530  10.920  23.810
  530BOLB   C4D12720  16.740  11.220  23.840
  531BOLB   NC112721  24.280  21.040  12.660
  531BOLB   PO112722  24.270  21.490  12.840
  531BOLB   GL112723  24.580  21.780  12.980
  531BOLB   GL212724  24.610  21.720  13.290
  531BOLB   C1A12725  25.010  21.920  13.020
  531BOLB   C2A12726  25.320  22.140  12.840
  531BOLB   C3A12727  25.810  22.200  12.680
  531BOLB   C4A12728  26.090  22.380  12.370
  531BOLB   C1B12729  24.760  22.020  13.470
  531BOLB   C2B12730  25.100  22.350  13.540
  531BOLB   C3B12731  25.260  22.670  13.730
  531BOLB   C4B12732  25.490  22.910  13.990
  531BOLB   NC212733  28.890  23.080  11.740
  531BOLB   PO212734  28.490  23.350  11.880
  531BOLB   GL312735  28.070  23.210  12.110
  531BOLB   GL412736  28.190  23.190  12.500
  531BOLB   C1C12737  27.660  23.000  12.100
  531BOLB   C2C12738  27.390  22.690  12.210
  531BOLB   C3C12739  26.890  22.530  12.210
  531BOLB   C4C12740  26.460  22.580  12.220
  531BOLB   C1D12741  27.940  22.820  12.470
  531BOLB   C2D12742  27.720  22.380  12.490
  531BOLB   C3D12743  27.400  22.240  12.610
  531BOLB   C4D12744  27.100  22.060  12.360
  532BOLB   NC112745  25.330  16.720  18.890
  532BOLB   PO112746  24.890  16.710  19.070
  532BOLB   GL112747  24.790  16.690  19.520
  532BOLB   GL212748  24.890  16.380  19.660
  532BOLB   C1A12749  24.730  16.770  19.950
  532BOLB   C2A12750  24.830  17.140  20.170
  532BOLB   C3A12751  24.830  17.260  20.560
  532BOLB   C4A12752  25.040  17.210  20.980
  532BOLB   C1B12753  25.140  16.540  19.930
  532BOLB   C2B12754  25.190  16.850  20.250
  532BOLB   C3B12755  25.300  17.060  20.580
  532BOLB   C4B12756  25.590  17.150  20.950
  532BOLB   NC212757  25.740  18.290  22.960
  532BOLB   PO212758  25.360  18.000  23.120
  532BOLB   GL312759  25.150  18.080  22.750
  532BOLB   GL412760  25.060  17.710  22.670
  532BOLB   C1C12761  25.040  18.060  22.350
  532BOLB   C2C12762  25.180  17.880  22.080
  532BOLB   C3C12763  25.240  17.530  21.700
  532BOLB   C4C12764  25.270  17.280  21.350
  532BOLB   C1D12765  24.950  17.500  22.420
  532BOLB   C2D12766  24.890  17.380  22.020
  532BOLB   C3D12767  25.130  17.040  21.760
  532BOLB   C4D12768  25.560  17.100  21.700
  533BOLB   NC112769  16.570  15.620  19.880
  533BOLB   PO112770  16.290  15.800  19.640
  533BOLB   GL112771  16.140  15.840  20.050
  533BOLB   GL212772  15.870  15.760  19.980
  533BOLB   C1A12773  16.150  15.610  20.470
  533BOLB   C2A12774  16.090  15.300  20.740
  533BOLB   C3A12775  15.940  15.100  21.170
  533BOLB   C4A12776  15.890  14.990  21.700
  533BOLB   C1B12777  15.760  16.050  20.310
  533BOLB   C2B12778  15.840  16.220  20.680
  533BOLB   C3B12779  15.810  16.540  20.900
  533BOLB   C4B12780  15.680  16.990  20.950
  533BOLB   NC212781  13.920  15.570  23.420
  533BOLB   PO212782  14.310  15.630  23.560
  533BOLB   GL312783  14.370  15.650  23.200
  533BOLB   GL412784  14.210  15.830  22.960
  533BOLB   C1C12785  14.750  15.520  22.930
  533BOLB   C2C12786  15.100  15.330  22.620
  533BOLB   C3C12787  15.320  15.350  22.270
  533BOLB   C4C12788  15.640  15.110  22.020
  533BOLB   C1D12789  14.470  15.870  22.610
  533BOLB   C2D12790  14.540  15.710  22.140
  533BOLB   C3D12791  14.910  15.870  21.800
  533BOLB   C4D12792  15.150  15.550  21.490
  534BOLB   NC112793  15.520   8.570  19.170
  534BOLB   PO112794  15.900   8.720  19.370
  534BOLB   GL112795  15.570   8.580  19.690
  534BOLB   GL212796  15.550   8.310  19.660
  534BOLB   C1A12797  15.630   8.410  20.140
  534BOLB   C2A12798  15.540   8.370  20.660
  534BOLB   C3A12799  15.470   8.130  20.980
  534BOLB   C4A12800  15.210   7.910  21.150
  534BOLB   C1B12801  15.210   8.190  19.990
  534BOLB   C2B12802  14.960   7.850  20.110
  534BOLB   C3B12803  14.690   7.610  20.420
  534BOLB   C4B12804  14.420   7.210  20.610
  534BOLB   NC212805  13.430   6.050  22.450
  534BOLB   PO212806  13.770   6.350  22.620
  534BOLB   GL312807  14.150   6.470  22.230
  534BOLB   GL412808  14.080   6.640  21.950
  534BOLB   C1C12809  14.560   6.680  22.070
  534BOLB   C2C12810  14.830   6.910  21.740
  534BOLB   C3C12811  15.040   7.160  21.390
  534BOLB   C4C12812  14.920   7.550  21.270
  534BOLB   C1D12813  13.850   6.870  21.740
  534BOLB   C2D12814  13.780   7.030  21.400
  534BOLB   C3D12815  13.970   7.320  21.150
  534BOLB   C4D12816  13.990   7.530  20.740
  535BOLB   NC112817  20.430  20.340  18.890
  535BOLB   PO112818  20.310  20.630  18.630
  535BOLB   GL112819  20.340  20.860  18.970
  535BOLB   GL212820  20.440  20.740  19.200
  535BOLB   C1A12821  20.250  21.100  19.420
  535BOLB   C2A12822  20.030  21.300  19.770
  535BOLB   C3A12823  19.720  21.300  20.040
  535BOLB   C4A12824  19.530  21.380  20.320
  535BOLB   C1B12825  20.820  20.920  19.460
  535BOLB   C2B12826  21.050  21.200  19.620
  535BOLB   C3B12827  21.540  21.180  19.670
  535BOLB   C4B12828  21.920  21.190  19.500
  535BOLB   NC212829  20.020  23.260  22.080
  535BOLB   PO212830  20.170  22.840  21.940
  535BOLB   GL312831  19.910  22.690  21.560
  535BOLB   GL412832  20.270  22.620  21.430
  535BOLB   C1C12833  19.630  22.390  21.370
  535BOLB   C2C12834  19.400  22.240  21.000
  535BOLB   C3C12835  19.280  22.030  20.640
  535BOLB   C4C12836  19.260  21.720  20.330
  535BOLB   C1D12837  19.990  22.460  21.070
  535BOLB   C2D12838  19.860  22.060  20.910
  535BOLB   C3D12839  19.790  21.770  20.630
  535BOLB   C4D12840  20.040  21.560  20.280
  536BOLB   NC112841  19.660  16.970  19.300
  536BOLB   PO112842  19.880  16.840  19.650
  536BOLB   GL112843  19.970  16.970  20.110
  536BOLB   GL212844  19.630  17.100  20.280
  536BOLB   C1A12845  20.080  17.090  20.520
  536BOLB   C2A12846  20.000  16.900  20.980
  536BOLB   C3A12847  19.920  17.020  21.390
  536BOLB   C4A12848  19.980  17.360  21.770
  536BOLB   C1B12849  19.580  17.030  20.720
  536BOLB   C2B12850  19.440  17.160  21.100
  536BOLB   C3B12851  19.010  17.230  21.340
  536BOLB   C4B12852  18.720  17.600  21.290
  536BOLB   NC212853  19.600  19.330  23.420
  536BOLB   PO212854  19.890  18.950  23.390
  536BOLB   GL312855  19.830  18.760  23.060
  536BOLB   GL412856  20.090  18.800  22.910
  536BOLB   C1C12857  19.570  18.490  22.790
  536BOLB   C2C12858  19.450  18.390  22.460
  536BOLB   C3C12859  19.670  18.190  22.020
  536BOLB   C4C12860  19.810  17.790  21.840
  536BOLB   C1D12861  19.920  18.740  22.490
  536BOLB   C2D12862  19.930  18.690  22.070
  536BOLB   C3D12863  19.840  18.710  21.630
  536BOLB   C4D12864  19.590  18.680  21.230
  537BOLB   NC112865  22.300  18.280  19.060
  537BOLB   PO112866  22.670  18.300  19.190
  537BOLB   GL112867  22.720  18.680  19.420
  537BOLB   GL212868  22.950  18.610  19.570
  537BOLB   C1A12869  22.640  19.030  19.710
  537BOLB   C2A12870  22.810  19.300  20.160
  537BOLB   C3A12871  23.130  19.380  20.450
  537BOLB   C4A12872  23.300  19.480  20.820
  537BOLB   C1B12873  22.850  18.700  19.990
  537BOLB   C2B12874  22.510  18.840  20.160
  537BOLB   C3B12875  22.320  19.030  20.540
  537BOLB   C4B12876  22.150  19.320  20.480
  537BOLB   NC212877  23.140  20.290  23.070
  537BOLB   PO212878  22.730  20.170  22.870
  537BOLB   GL312879  22.640  19.800  22.600
  537BOLB   GL412880  22.660  19.510  22.700
  537BOLB   C1C12881  22.830  19.730  22.140
  537BOLB   C2C12882  23.150  19.860  21.910
  537BOLB   C3C12883  23.340  19.840  21.470
  537BOLB   C4C12884  23.460  19.810  20.990
  537BOLB   C1D12885  22.590  19.260  22.300
  537BOLB   C2D12886  22.850  18.940  22.190
  537BOLB   C3D12887  22.860  18.620  21.950
  537BOLB   C4D12888  22.710  18.450  21.540
  538BOLB   NC112889  26.250  18.660  10.770
  538BOLB   PO112890  26.630  18.620  10.850
  538BOLB   GL112891  27.060  18.770  10.870
  538BOLB   GL212892  27.230  18.540  10.970
  538BOLB   C1A12893  27.440  18.980  10.800
  538BOLB   C2A12894  27.810  19.210  11.090
  538BOLB   C3A12895  27.970  19.540  11.350
  538BOLB   C4A12896  28.150  19.870  11.220
  538BOLB   C1B12897  27.520  18.590  11.260
  538BOLB   C2B12898  27.860  18.870  11.410
  538BOLB   C3B12899  28.350  19.030  11.460
  538BOLB   C4B12900  28.620  19.240  11.720
  538BOLB   NC212901  30.290  20.040  10.140
  538BOLB   PO212902  30.550  20.190  10.490
  538BOLB   GL312903  30.230  20.200  10.860
  538BOLB   GL412904  30.250  20.000  11.120
  538BOLB   C1C12905  29.750  20.070  10.940
  538BOLB   C2C12906  29.230  20.110  11.120
  538BOLB   C3C12907  28.950  20.140  10.970
  538BOLB   C4C12908  28.510  19.890  10.970
  538BOLB   C1D12909  30.100  19.610  11.060
  538BOLB   C2D12910  29.790  19.340  11.110
  538BOLB   C3D12911  29.360  19.230  11.280
  538BOLB   C4D12912  29.480  18.830  11.590
  539BOLB   NC112913  19.090   7.250  10.030
  539BOLB   PO112914  19.070   6.820  10.010
  539BOLB   GL112915  19.000   6.490   9.710
  539BOLB   GL212916  18.800   6.550   9.550
  539BOLB   C1A12917  19.150   6.230   9.400
  539BOLB   C2A12918  19.310   5.970   9.130
  539BOLB   C3A12919  19.680   5.800   9.030
  539BOLB   C4A12920  19.840   5.450   9.040
  539BOLB   C1B12921  18.710   6.570   9.120
  539BOLB   C2B12922  18.580   6.380   8.710
  539BOLB   C3B12923  18.410   6.570   8.440
  539BOLB   C4B12924  18.060   7.000   8.280
  539BOLB   NC212925  18.810   4.300   7.470
  539BOLB   PO212926  19.120   3.920   7.640
  539BOLB   GL312927  18.990   4.190   8.010
  539BOLB   GL412928  18.730   3.990   8.230
  539BOLB   C1C12929  19.230   4.480   8.150
  539BOLB   C2C12930  19.440   4.770   8.380
  539BOLB   C3C12931  19.640   5.190   8.340
  539BOLB   C4C12932  19.870   5.340   8.610
  539BOLB   C1D12933  19.190   3.950   8.460
  539BOLB   C2D12934  19.390   4.250   8.730
  539BOLB   C3D12935  19.230   4.450   9.120
  539BOLB   C4D12936  19.340   4.660   9.460
  540BOLB   NC112937  17.970  14.150  20.060
  540BOLB   PO112938  17.980  14.220  20.390
  540BOLB   GL112939  17.950  14.460  20.760
  540BOLB   GL212940  17.810  14.360  21.040
  540BOLB   C1A12941  18.220  14.750  21.110
  540BOLB   C2A12942  18.350  15.110  21.500
  540BOLB   C3A12943  18.490  15.330  21.830
  540BOLB   C4A12944  18.530  15.220  22.290
  540BOLB   C1B12945  17.910  14.430  21.390
  540BOLB   C2B12946  18.220  14.620  21.700
  540BOLB   C3B12947  18.310  14.880  22.000
  540BOLB   C4B12948  18.060  15.290  22.180
  540BOLB   NC212949  18.890  14.840  24.910
  540BOLB   PO212950  18.690  14.560  24.590
  540BOLB   GL312951  18.580  14.530  24.140
  540BOLB   GL412952  18.870  14.590  24.070
  540BOLB   C1C12953  18.600  14.420  23.680
  540BOLB   C2C12954  18.890  14.560  23.460
  540BOLB   C3C12955  18.830  14.880  23.130
  540BOLB   C4C12956  18.600  15.090  22.760
  540BOLB   C1D12957  19.100  14.250  23.830
  540BOLB   C2D12958  19.040  14.130  23.390
  540BOLB   C3D12959  18.830  14.340  23.020
  540BOLB   C4D12960  18.540  14.570  22.780
  541BOLB   NC112961  19.990  18.570  19.370
  541BOLB   PO112962  20.450  18.700  19.380
  541BOLB   GL112963  20.260  18.850  19.710
  541BOLB   GL212964  20.010  19.090  19.650
  541BOLB   C1A12965  20.460  18.940  20.050
  541BOLB   C2A12966  20.590  19.170  20.420
  541BOLB   C3A12967  20.460  19.180  20.900
  541BOLB   C4A12968  20.480  19.250  21.360
  541BOLB   C1B12969  20.060  19.260  20.060
  541BOLB   C2B12970  20.090  19.340  20.480
  541BOLB   C3B12971  20.100  19.560  20.940
  541BOLB   C4B12972  20.010  19.630  21.310
  541BOLB   NC212973  21.270  18.830  23.680
  541BOLB   PO212974  21.000  18.750  23.620
  541BOLB   GL312975  20.860  18.830  23.200
  541BOLB   GL412976  21.170  19.020  23.180
  541BOLB   C1C12977  20.760  19.010  22.840
  541BOLB   C2C12978  20.720  19.260  22.440
  541BOLB   C3C12979  20.640  19.410  22.010
  541BOLB   C4C12980  20.390  19.500  21.750
  541BOLB   C1D12981  21.280  18.770  22.910
  541BOLB   C2D12982  21.280  18.460  22.550
  541BOLB   C3D12983  21.300  18.130  22.290
  541BOLB   C4D12984  21.210  17.850  22.180
  542BOLB   NC112985  21.600  22.450  16.760
  542BOLB   PO112986  22.010  22.360  16.580
  542BOLB   GL112987  22.110  22.680  16.860
  542BOLB   GL212988  22.010  22.740  17.150
  542BOLB   C1A12989  22.310  23.000  16.830
  542BOLB   C2A12990  22.460  23.300  16.800
  542BOLB   C3A12991  22.710  23.670  16.960
  542BOLB   C4A12992  22.840  24.100  17.070
  542BOLB   C1B12993  21.850  22.980  17.360
  542BOLB   C2B12994  21.930  23.340  17.580
  542BOLB   C3B12995  21.820  23.700  17.850
  542BOLB   C4B12996  21.750  24.150  17.990
  542BOLB   NC212997  23.170  26.730  17.080
  542BOLB   PO212998  22.860  26.410  17.140
  542BOLB   GL312999  22.640  26.060  16.970
  542BOLB   GL413000  22.610  25.680  17.110
  542BOLB   C1C13001  22.750  25.760  16.610
  542BOLB   C2C13002  22.750  25.360  16.690
  542BOLB   C3C13003  22.970  25.010  16.870
  542BOLB   C4C13004  22.790  24.450  16.900
  542BOLB   C1D13005  22.610  25.210  17.140
  542BOLB   C2D13006  22.490  24.880  16.840
  542BOLB   C3D13007  22.200  24.430  16.620
  542BOLB   C4D13008  21.820  24.400  16.390
  543BOLB   NC113009  19.760  16.410  19.990
  543BOLB   PO113010  20.230  16.520  19.980
  543BOLB   GL113011  20.270  16.560  20.360
  543BOLB   GL213012  20.460  16.840  20.400
  543BOLB   C1A13013  20.240  16.500  20.730
  543BOLB   C2A13014  20.320  16.480  21.160
  543BOLB   C3A13015  20.230  16.650  21.600
  543BOLB   C4A13016  20.150  16.910  22.020
  543BOLB   C1B13017  20.480  16.910  20.900
  543BOLB   C2B13018  20.680  16.880  21.320
  543BOLB   C3B13019  20.920  17.030  21.580
  543BOLB   C4B13020  21.230  17.270  21.710
  543BOLB   NC213021  19.570  16.640  24.120
  543BOLB   PO213022  19.310  16.940  24.260
  543BOLB   GL313023  19.230  16.980  23.860
  543BOLB   GL413024  18.980  16.950  23.650
  543BOLB   C1C13025  19.500  17.060  23.500
  543BOLB   C2C13026  19.800  16.900  23.180
  543BOLB   C3C13027  19.940  17.020  22.800
  543BOLB   C4C13028  20.110  17.120  22.440
  543BOLB   C1D13029  18.890  16.900  23.180
  543BOLB   C2D13030  19.070  16.820  22.740
  543BOLB   C3D13031  19.070  16.880  22.290
  543BOLB   C4D13032  18.910  17.010  21.890
  544BOLB   NC113033  24.570  15.190  18.970
  544BOLB   PO113034  24.460  15.030  19.410
  544BOLB   GL113035  24.780  14.990  19.830
  544BOLB   GL213036  24.790  15.310  19.940
  544BOLB   C1A13037  24.710  15.120  20.350
  544BOLB   C2A13038  24.830  14.980  20.750
  544BOLB   C3A13039  24.950  14.910  21.250
  544BOLB   C4A13040  25.260  14.730  21.580
  544BOLB   C1B13041  25.140  15.200  20.160
  544BOLB   C2B13042  25.260  15.040  20.510
  544BOLB   C3B13043  25.350  14.940  20.880
  544BOLB   C4B13044  25.660  14.990  21.230
  544BOLB   NC213045  26.070  15.810  23.700
  544BOLB   PO213046  26.270  15.890  23.240
  544BOLB   GL313047  26.150  15.770  22.820
  544BOLB   GL413048  26.160  15.690  22.510
  544BOLB   C1C13049  25.870  15.330  22.690
  544BOLB   C2C13050  25.760  14.880  22.590
  544BOLB   C3C13051  25.560  14.640  22.290
  544BOLB   C4C13052  25.530  14.630  21.850
  544BOLB   C1D13053  25.870  15.590  22.270
  544BOLB   C2D13054  25.940  15.630  21.890
  544BOLB   C3D13055  25.770  15.510  21.550
  544BOLB   C4D13056  25.980  15.360  21.190
  545BOLB   NC113057  20.880   9.860  19.930
  545BOLB   PO113058  20.450   9.780  20.050
  545BOLB   GL113059  20.500   9.790  20.490
  545BOLB   GL213060  20.500  10.080  20.660
  545BOLB   C1A13061  20.490   9.780  21.070
  545BOLB   C2A13062  20.810   9.890  21.370
  545BOLB   C3A13063  21.110  10.140  21.600
  545BOLB   C4A13064  21.360  10.020  21.940
  545BOLB   C1B13065  20.930  10.110  20.880
  545BOLB   C2B13066  21.320  10.150  21.120
  545BOLB   C3B13067  21.450  10.530  21.290
  545BOLB   C4B13068  21.560  10.640  21.660
  545BOLB   NC213069  21.290   9.560  24.440
  545BOLB   PO213070  21.640   9.510  24.190
  545BOLB   GL313071  21.350   9.830  23.970
  545BOLB   GL413072  21.090   9.780  23.940
  545BOLB   C1C13073  21.470  10.220  23.620
  545BOLB   C2C13074  21.470  10.140  23.210
  545BOLB   C3C13075  21.440   9.910  22.800
  545BOLB   C4C13076  21.480   9.990  22.380
  545BOLB   C1D13077  20.710   9.930  23.830
  545BOLB   C2D13078  20.540   9.990  23.390
  545BOLB   C3D13079  20.470  10.030  22.990
  545BOLB   C4D13080  20.240  10.220  22.650
  546BOLB   NC113081  12.580  20.240  16.160
  546BOLB   PO113082  12.510  19.880  15.960
  546BOLB   GL113083  12.130  20.080  16.020
  546BOLB   GL213084  12.060  20.370  15.720
  546BOLB   C1A13085  11.760  20.350  16.200
  546BOLB   C2A13086  11.450  20.580  16.420
  546BOLB   C3A13087  11.230  20.700  16.660
  546BOLB   C4A13088  10.840  20.560  16.790
  546BOLB   C1B13089  11.830  20.770  15.930
  546BOLB   C2B13090  11.660  21.190  15.960
  546BOLB   C3B13091  11.400  21.390  15.670
  546BOLB   C4B13092  11.040  21.300  15.540
  546BOLB   NC213093   8.400  20.900  17.380
  546BOLB   PO213094   8.830  20.950  17.490
  546BOLB   GL313095   9.210  20.870  17.550
  546BOLB   GL413096   9.210  20.580  17.810
  546BOLB   C1C13097   9.510  20.910  17.230
  546BOLB   C2C13098   9.770  20.590  17.160
  546BOLB   C3C13099  10.090  20.460  16.970
  546BOLB   C4C13100  10.500  20.540  17.090
  546BOLB   C1D13101   9.180  20.350  17.500
  546BOLB   C2D13102   9.160  20.010  17.150
  546BOLB   C3D13103   9.440  19.680  16.900
  546BOLB   C4D13104   9.780  19.390  16.800
  547BOLB   NC113105  14.610  12.100  19.120
  547BOLB   PO113106  14.990  11.850  19.230
  547BOLB   GL113107  15.070  11.550  19.640
  547BOLB   GL213108  15.210  11.810  19.950
  547BOLB   C1A13109  14.980  11.370  20.020
  547BOLB   C2A13110  15.060  11.290  20.400
  547BOLB   C3A13111  14.930  11.260  20.800
  547BOLB   C4A13112  14.860  11.250  21.220
  547BOLB   C1B13113  14.930  11.800  20.380
  547BOLB   C2B13114  14.650  12.010  20.700
  547BOLB   C3B13115  14.420  12.370  20.730
  547BOLB   C4B13116  14.250  12.610  21.020
  547BOLB   NC213117  14.330  10.820  23.430
  547BOLB   PO213118  13.870  10.620  23.300
  547BOLB   GL313119  13.940  10.660  22.870
  547BOLB   GL413120  13.750  10.430  22.660
  547BOLB   C1C13121  14.160  10.670  22.480
  547BOLB   C2C13122  14.360  10.950  22.120
  547BOLB   C3C13123  14.710  11.230  21.920
  547BOLB   C4C13124  14.860  11.270  21.640
  547BOLB   C1D13125  13.780  10.180  22.270
  547BOLB   C2D13126  13.840  10.080  21.860
  547BOLB   C3D13127  14.150   9.940  21.600
  547BOLB   C4D13128  14.520  10.160  21.520
  548BOLB   NC113129  16.280  18.180  18.750
  548BOLB   PO113130  16.410  18.530  18.910
  548BOLB   GL113131  16.500  18.770  19.270
  548BOLB   GL213132  16.060  18.850  19.310
  548BOLB   C1A13133  16.630  18.890  19.720
  548BOLB   C2A13134  16.470  18.980  20.100
  548BOLB   C3A13135  16.470  19.410  20.320
  548BOLB   C4A13136  16.500  19.760  20.470
  548BOLB   C1B13137  15.910  19.200  19.410
  548BOLB   C2B13138  15.890  19.400  19.780
  548BOLB   C3B13139  16.010  19.210  20.170
  548BOLB   C4B13140  15.740  19.160  20.580
  548BOLB   NC213141  16.530  21.600  22.500
  548BOLB   PO213142  16.380  21.130  22.560
  548BOLB   GL313143  16.410  20.820  22.200
  548BOLB   GL413144  16.260  20.560  22.310
  548BOLB   C1C13145  16.540  20.690  21.860
  548BOLB   C2C13146  16.630  20.450  21.490
  548BOLB   C3C13147  16.820  20.200  21.100
  548BOLB   C4C13148  16.820  19.950  20.700
  548BOLB   C1D13149  16.510  20.210  22.090
  548BOLB   C2D13150  16.600  20.060  21.780
  548BOLB   C3D13151  16.330  20.050  21.360
  548BOLB   C4D13152  16.370  19.920  20.930
  549BOLB   NC113153  20.250  20.600  18.090
  549BOLB   PO113154  19.930  20.810  18.300
  549BOLB   GL113155  19.860  21.020  18.720
  549BOLB   GL213156  19.900  20.850  19.120
  549BOLB   C1A13157  19.700  21.310  18.970
  549BOLB   C2A13158  19.630  21.360  19.370
  549BOLB   C3A13159  19.750  21.720  19.630
  549BOLB   C4A13160  19.640  22.180  19.660
  549BOLB   C1B13161  19.890  20.770  19.560
  549BOLB   C2B13162  19.610  20.910  19.820
  549BOLB   C3B13163  19.240  21.190  19.940
  549BOLB   C4B13164  19.240  21.510  19.790
  549BOLB   NC213165  18.740  24.010  21.670
  549BOLB   PO213166  18.940  23.820  21.290
  549BOLB   GL313167  19.080  23.590  20.900
  549BOLB   GL413168  19.230  23.220  21.030
  549BOLB   C1C13169  19.480  23.480  20.670
  549BOLB   C2C13170  19.720  23.110  20.640
  549BOLB   C3C13171  19.850  22.800  20.290
  549BOLB   C4C13172  19.850  22.500  19.910
  549BOLB   C1D13173  19.180  23.100  20.620
  549BOLB   C2D13174  19.350  22.820  20.340
  549BOLB   C3D13175  19.420  22.760  19.960
  549BOLB   C4D13176  19.290  22.530  19.630
  550BOLB   NC113177  13.120  12.430  18.300
  550BOLB   PO113178  12.800  12.730  18.150
  550BOLB   GL113179  12.680  12.520  18.620
  550BOLB   GL213180  12.890  12.410  18.790
  550BOLB   C1A13181  12.460  12.230  18.940
  550BOLB   C2A13182  12.190  12.070  19.180
  550BOLB   C3A13183  11.970  12.070  19.520
  550BOLB   C4A13184  11.920  12.110  19.990
  550BOLB   C1B13185  12.800  12.630  19.170
  550BOLB   C2B13186  12.400  12.670  19.170
  550BOLB   C3B13187  11.920  12.500  19.280
  550BOLB   C4B13188  11.830  12.550  19.670
  550BOLB   NC213189  10.090  11.280  21.610
  550BOLB   PO213190  10.590  11.320  21.640
  550BOLB   GL313191  10.910  11.670  21.710
  550BOLB   GL413192  11.140  11.410  21.570
  550BOLB   C1C13193  11.120  11.890  21.390
  550BOLB   C2C13194  11.580  11.870  21.190
  550BOLB   C3C13195  11.730  11.920  20.790
  550BOLB   C4C13196  11.600  11.980  20.340
  550BOLB   C1D13197  11.370  11.350  21.220
  550BOLB   C2D13198  11.460  11.450  20.840
  550BOLB   C3D13199  11.650  11.440  20.460
  550BOLB   C4D13200  11.860  11.180  20.150
  551BOLB   NC113201  15.210  20.580   9.430
  551BOLB   PO113202  14.840  20.820   9.250
  551BOLB   GL113203  14.540  21.030   9.190
  551BOLB   GL213204  14.510  21.360   9.300
  551BOLB   C1A13205  14.410  21.260   8.870
  551BOLB   C2A13206  14.280  21.590   8.560
  551BOLB   C3A13207  14.040  21.850   8.280
  551BOLB   C4A13208  14.180  22.100   7.930
  551BOLB   C1B13209  14.240  21.730   9.110
  551BOLB   C2B13210  13.950  22.020   9.200
  551BOLB   C3B13211  13.690  22.400   9.290
  551BOLB   C4B13212  13.880  22.800   9.370
  551BOLB   NC213213  13.710  24.340   6.560
  551BOLB   PO213214  13.680  23.900   6.760
  551BOLB   GL313215  14.030  23.660   6.910
  551BOLB   GL413216  13.830  23.570   7.180
  551BOLB   C1C13217  14.270  23.360   7.020
  551BOLB   C2C13218  14.410  22.990   7.270
  551BOLB   C3C13219  14.180  22.680   7.460
  551BOLB   C4C13220  14.190  22.340   7.600
  551BOLB   C1D13221  14.130  23.300   7.510
  551BOLB   C2D13222  14.110  23.020   7.860
  551BOLB   C3D13223  14.120  22.900   8.280
  551BOLB   C4D13224  14.130  23.140   8.580
  552BOLB   NC113225  21.820  23.180  13.630
  552BOLB   PO113226  22.210  22.850  13.810
  552BOLB   GL113227  22.330  23.190  13.740
  552BOLB   GL213228  22.720  23.170  13.790
  552BOLB   C1A13229  22.330  23.600  13.900
  552BOLB   C2A13230  22.570  23.800  14.330
  552BOLB   C3A13231  22.740  24.050  14.590
  552BOLB   C4A13232  22.630  24.480  14.590
  552BOLB   C1B13233  22.750  23.500  13.480
  552BOLB   C2B13234  23.020  23.830  13.370
  552BOLB   C3B13235  23.360  24.170  13.510
  552BOLB   C4B13236  23.590  24.250  13.960
  552BOLB   NC213237  22.840  27.160  14.780
  552BOLB   PO213238  22.750  27.130  15.200
  552BOLB   GL313239  22.610  26.730  15.120
  552BOLB   GL413240  22.760  26.590  15.350
  552BOLB   C1C13241  22.570  26.270  15.040
  552BOLB   C2C13242  22.550  25.880  15.040
  552BOLB   C3C13243  22.490  25.370  14.900
  552BOLB   C4C13244  22.660  24.910  14.800
  552BOLB   C1D13245  22.480  26.190  15.490
  552BOLB   C2D13246  22.210  25.920  15.790
  552BOLB   C3D13247  22.020  25.590  15.940
  552BOLB   C4D13248  21.950  25.210  15.980
  553BOLB   NC113249  15.080  16.400  19.340
  553BOLB   PO113250  15.240  15.990  19.400
  553BOLB   GL113251  14.900  16.070  19.670
  553BOLB   GL213252  14.540  15.960  19.520
  553BOLB   C1A13253  14.880  16.300  19.980
  553BOLB   C2A13254  14.900  16.500  20.460
  553BOLB   C3A13255  14.830  16.820  20.750
  553BOLB   C4A13256  14.720  17.250  20.950
  553BOLB   C1B13257  14.390  16.250  19.860
  553BOLB   C2B13258  14.050  16.520  20.080
  553BOLB   C3B13259  13.610  16.590  20.200
  553BOLB   C4B13260  13.260  16.850  20.370
  553BOLB   NC213261  14.400  18.840  23.100
  553BOLB   PO213262  14.230  18.570  22.700
  553BOLB   GL313263  14.460  18.400  22.300
  553BOLB   GL413264  14.750  18.470  22.090
  553BOLB   C1C13265  14.320  18.530  21.890
  553BOLB   C2C13266  14.300  18.400  21.510
  553BOLB   C3C13267  14.460  18.040  21.370
  553BOLB   C4C13268  14.650  17.640  21.230
  553BOLB   C1D13269  14.760  18.410  21.690
  553BOLB   C2D13270  14.800  18.430  21.260
  553BOLB   C3D13271  14.790  18.670  20.950
  553BOLB   C4D13272  14.980  18.670  20.440
  554BOLB   NC113273  20.510  16.110  19.840
  554BOLB   PO113274  20.620  16.180  20.220
  554BOLB   GL113275  20.700  16.400  20.570
  554BOLB   GL213276  20.930  16.620  20.460
  554BOLB   C1A13277  20.780  16.400  21.110
  554BOLB   C2A13278  20.770  16.350  21.580
  554BOLB   C3A13279  20.730  16.590  21.880
  554BOLB   C4A13280  21.050  16.860  22.050
  554BOLB   C1B13281  21.030  16.700  20.820
  554BOLB   C2B13282  21.200  16.860  21.190
  554BOLB   C3B13283  21.400  16.810  21.620
  554BOLB   C4B13284  21.640  16.970  21.940
  554BOLB   NC213285  20.700  17.000  24.300
  554BOLB   PO213286  21.000  16.820  23.990
  554BOLB   GL313287  21.390  16.880  23.830
  554BOLB   GL413288  21.390  16.580  23.750
  554BOLB   C1C13289  21.700  16.980  23.570
  554BOLB   C2C13290  21.710  17.050  23.170
  554BOLB   C3C13291  21.590  17.110  22.770
  554BOLB   C4C13292  21.350  16.880  22.340
  554BOLB   C1D13293  21.200  16.530  23.410
  554BOLB   C2D13294  20.890  16.390  23.140
  554BOLB   C3D13295  20.990  16.140  22.790
  554BOLB   C4D13296  21.010  16.470  22.320
  555BOLB   NC113297  15.690  11.270  19.740
  555BOLB   PO113298  16.070  11.440  19.890
  555BOLB   GL113299  15.870  11.230  20.260
  555BOLB   GL213300  15.550  11.090  20.220
  555BOLB   C1A13301  15.810  11.340  20.680
  555BOLB   C2A13302  15.830  11.370  21.190
  555BOLB   C3A13303  15.980  11.320  21.570
  555BOLB   C4A13304  16.300  11.320  21.930
  555BOLB   C1B13305  15.390  10.820  20.560
  555BOLB   C2B13306  15.400  11.080  20.910
  555BOLB   C3B13307  15.350  11.150  21.290
  555BOLB   C4B13308  15.330  11.200  21.770
  555BOLB   NC213309  15.770  11.060  24.310
  555BOLB   PO213310  15.570  10.750  24.040
  555BOLB   GL313311  15.590  10.740  23.640
  555BOLB   GL413312  15.250  10.760  23.560
  555BOLB   C1C13313  15.700  10.730  23.240
  555BOLB   C2C13314  15.930  10.980  22.820
  555BOLB   C3C13315  16.200  10.970  22.460
  555BOLB   C4C13316  16.360  11.190  22.210
  555BOLB   C1D13317  15.200  10.910  23.150
  555BOLB   C2D13318  15.070  11.310  22.950
  555BOLB   C3D13319  15.080  11.510  22.610
  555BOLB   C4D13320  15.030  11.540  22.200
  556BOLB   NC113321  25.340  16.130  18.570
  556BOLB   PO113322  25.500  16.270  18.960
  556BOLB   GL113323  25.870  16.080  19.140
  556BOLB   GL213324  25.670  16.160  19.410
  556BOLB   C1A13325  26.110  16.250  19.480
  556BOLB   C2A13326  26.450  16.260  19.680
  556BOLB   C3A13327  26.830  16.390  19.870
  556BOLB   C4A13328  27.200  16.530  19.840
  556BOLB   C1B13329  25.840  16.150  19.890
  556BOLB   C2B13330  25.860  15.800  20.280
  556BOLB   C3B13331  26.100  15.410  20.340
  556BOLB   C4B13332  26.190  15.190  20.750
  556BOLB   NC213333  27.430  16.120  22.390
  556BOLB   PO213334  27.520  16.490  22.220
  556BOLB   GL313335  27.490  16.680  21.850
  556BOLB   GL413336  27.220  16.820  21.820
  556BOLB   C1C13337  27.390  16.810  21.400
  556BOLB   C2C13338  27.380  16.920  20.960
  556BOLB   C3C13339  27.510  16.960  20.500
  556BOLB   C4C13340  27.330  16.830  20.120
  556BOLB   C1D13341  26.900  16.850  21.380
  556BOLB   C2D13342  26.840  16.460  21.140
  556BOLB   C3D13343  27.030  16.400  20.800
  556BOLB   C4D13344  27.020  16.610  20.470
  557BOLB   NC113345  25.130  19.340  15.780
  557BOLB   PO113346  25.350  19.430  16.080
  557BOLB   GL113347  25.630  19.710  16.130
  557BOLB   GL213348  25.740  20.000  15.960
  557BOLB   C1A13349  25.820  19.990  16.450
  557BOLB   C2A13350  26.340  20.150  16.400
  557BOLB   C3A13351  26.470  20.540  16.360
  557BOLB   C4A13352  26.720  20.950  16.300
  557BOLB   C1B13353  25.850  20.340  16.110
  557BOLB   C2B13354  26.000  20.480  16.560
  557BOLB   C3B13355  26.190  20.530  16.950
  557BOLB   C4B13356  26.400  20.870  17.200
  557BOLB   NC213357  28.500  22.110  17.090
  557BOLB   PO213358  28.320  22.160  17.520
  557BOLB   GL313359  28.170  21.760  17.460
  557BOLB   GL413360  27.950  21.560  17.680
  557BOLB   C1C13361  27.990  21.570  17.140
  557BOLB   C2C13362  27.600  21.500  16.930
  557BOLB   C3C13363  27.280  21.210  16.790
  557BOLB   C4C13364  27.090  21.080  16.390
  557BOLB   C1D13365  27.580  21.360  17.400
  557BOLB   C2D13366  27.150  21.250  17.260
  557BOLB   C3D13367  26.670  21.290  17.110
  557BOLB   C4D13368  26.270  21.400  17.280
  558BOLB   NC113369  18.350  17.080  20.030
  558BOLB   PO113370  18.830  17.070  19.930
  558BOLB   GL113371  18.860  17.320  20.180
  558BOLB   GL213372  19.120  17.110  20.310
  558BOLB   C1A13373  18.640  17.410  20.620
  558BOLB   C2A13374  18.490  17.760  20.830
  558BOLB   C3A13375  18.370  17.920  21.160
  558BOLB   C4A13376  18.260  17.930  21.630
  558BOLB   C1B13377  19.110  17.220  20.750
  558BOLB   C2B13378  19.030  17.590  20.890
  558BOLB   C3B13379  19.270  17.700  21.190
  558BOLB   C4B13380  19.210  18.020  21.480
  558BOLB   NC213381  18.700  18.600  23.850
  558BOLB   PO213382  19.140  18.400  23.820
  558BOLB   GL313383  18.970  18.430  23.390
  558BOLB   GL413384  19.190  18.270  23.270
  558BOLB   C1C13385  18.640  18.370  22.930
  558BOLB   C2C13386  18.430  18.440  22.600
  558BOLB   C3C13387  18.110  18.350  22.280
  558BOLB   C4C13388  18.070  18.000  22.100
  558BOLB   C1D13389  19.160  18.270  22.860
  558BOLB   C2D13390  19.000  18.180  22.460
  558BOLB   C3D13391  19.110  18.190  22.080
  558BOLB   C4D13392  19.280  18.490  21.770
  559BOLB   NC113393  18.740  21.660  17.230
  559BOLB   PO113394  18.630  21.840  17.580
  559BOLB   GL113395  18.890  21.950  18.000
  559BOLB   GL213396  19.330  21.880  18.070
  559BOLB   C1A13397  18.840  22.320  18.200
  559BOLB   C2A13398  18.730  22.760  18.300
  559BOLB   C3A13399  18.930  23.120  18.120
  559BOLB   C4A13400  18.950  23.590  18.190
  559BOLB   C1B13401  19.430  22.170  18.310
  559BOLB   C2B13402  19.250  22.550  18.400
  559BOLB   C3B13403  19.510  22.930  18.510
  559BOLB   C4B13404  19.240  23.350  18.590
  559BOLB   NC213405  17.880  25.110  20.070
  559BOLB   PO213406  18.240  25.200  19.780
  559BOLB   GL313407  18.200  24.840  19.570
  559BOLB   GL413408  17.900  24.720  19.500
  559BOLB   C1C13409  18.300  24.680  19.140
  559BOLB   C2C13410  18.260  24.370  18.830
  559BOLB   C3C13411  18.210  24.180  18.390
  559BOLB   C4C13412  18.590  23.830  18.300
  559BOLB   C1D13413  17.820  24.440  19.110
  559BOLB   C2D13414  17.720  24.490  18.740
  559BOLB   C3D13415  17.810  24.670  18.300
  559BOLB   C4D13416  17.780  24.540  17.860
  560BOLB   NC113417  27.240  13.160  16.850
  560BOLB   PO113418  27.640  13.400  16.920
  560BOLB   GL113419  27.840  13.360  17.370
  560BOLB   GL213420  28.100  13.540  17.510
  560BOLB   C1A13421  28.030  13.090  17.640
  560BOLB   C2A13422  28.410  13.010  17.840
  560BOLB   C3A13423  28.860  12.900  18.080
  560BOLB   C4A13424  29.280  13.130  18.250
  560BOLB   C1B13425  28.370  13.470  17.890
  560BOLB   C2B13426  28.460  13.380  18.190
  560BOLB   C3B13427  28.760  13.280  18.410
  560BOLB   C4B13428  28.830  13.300  18.850
  560BOLB   NC213429  30.820  14.970  19.760
  560BOLB   PO213430  30.690  14.700  19.310
  560BOLB   GL313431  30.460  14.320  19.390
  560BOLB   GL413432  30.080  14.390  19.210
  560BOLB   C1C13433  30.360  13.940  19.130
  560BOLB   C2C13434  30.050  13.930  18.850
  560BOLB   C3C13435  29.900  13.760  18.550
  560BOLB   C4C13436  29.640  13.460  18.320
  560BOLB   C1D13437  29.870  14.480  18.810
  560BOLB   C2D13438  29.560  14.100  18.670
  560BOLB   C3D13439  29.160  14.020  18.520
  560BOLB   C4D13440  29.090  13.760  18.290
  561BOLB   NC113441  26.090  13.080  18.160
  561BOLB   PO113442  26.590  13.050  18.270
  561BOLB   GL113443  26.880  12.900  18.600
  561BOLB   GL213444  26.950  13.130  18.670
  561BOLB   C1A13445  27.310  12.710  18.630
  561BOLB   C2A13446  27.740  12.570  18.800
  561BOLB   C3A13447  27.930  12.580  19.170
  561BOLB   C4A13448  28.010  12.570  19.660
  561BOLB   C1B13449  27.170  13.210  18.890
  561BOLB   C2B13450  27.630  13.170  19.040
  561BOLB   C3B13451  27.940  13.080  19.360
  561BOLB   C4B13452  27.840  13.070  19.780
  561BOLB   NC213453  29.820  13.110  20.750
  561BOLB   PO213454  30.000  13.510  20.590
  561BOLB   GL313455  29.500  13.390  20.420
  561BOLB   GL413456  29.440  13.540  20.160
  561BOLB   C1C13457  29.240  13.090  20.470
  561BOLB   C2C13458  28.890  12.880  20.290
  561BOLB   C3C13459  28.440  12.830  20.330
  561BOLB   C4C13460  28.120  12.740  20.050
  561BOLB   C1D13461  29.070  13.370  20.140
  561BOLB   C2D13462  28.620  13.290  20.060
  561BOLB   C3D13463  28.340  13.150  19.720
  561BOLB   C4D13464  28.420  12.930  19.500
  562BOLB   NC113465   9.990   4.980  17.450
  562BOLB   PO113466   9.890   5.160  17.060
  562BOLB   GL113467  10.200   5.440  16.870
  562BOLB   GL213468  10.090   5.680  16.700
  562BOLB   C1A13469  10.550   5.780  16.950
  562BOLB   C2A13470  10.860   6.060  17.110
  562BOLB   C3A13471  10.960   6.550  17.030
  562BOLB   C4A13472  10.810   6.880  16.720
  562BOLB   C1B13473  10.120   6.100  16.960
  562BOLB   C2B13474  10.440   6.380  17.320
  562BOLB   C3B13475  10.900   6.690  17.500
  562BOLB   C4B13476  11.230   6.680  17.480
  562BOLB   NC213477   9.710   5.330  16.550
  562BOLB   PO213478   9.810   5.030  16.250
  562BOLB   GL313479  10.070   5.440  16.210
  562BOLB   GL413480  10.210   5.360  15.860
  562BOLB   C1C13481  10.090   5.890  16.130
  562BOLB   C2C13482   9.990   6.230  16.300
  562BOLB   C3C13483  10.180   6.530  16.440
  562BOLB   C4C13484  10.400   6.900  16.570
  562BOLB   C1D13485  10.560   5.400  15.890
  562BOLB   C2D13486  10.940   5.560  15.760
  562BOLB   C3D13487  11.090   5.950  15.660
  562BOLB   C4D13488  11.200   6.390  15.420
  563BOLB   NC113489  23.450  22.430  13.550
  563BOLB   PO113490  23.870  22.230  13.590
  563BOLB   GL113491  24.030  22.610  13.670
  563BOLB   GL213492  23.810  22.700  13.790
  563BOLB   C1A13493  24.110  23.010  13.600
  563BOLB   C2A13494  23.860  23.300  13.690
  563BOLB   C3A13495  23.870  23.700  13.820
  563BOLB   C4A13496  24.090  24.040  13.770
  563BOLB   C1B13497  24.320  22.780  13.990
  563BOLB   C2B13498  24.480  23.100  14.030
  563BOLB   C3B13499  24.740  23.480  14.220
  563BOLB   C4B13500  24.880  23.580  14.580
  563BOLB   NC213501  24.150  26.350  13.870
  563BOLB   PO213502  24.310  26.270  14.350
  563BOLB   GL313503  24.210  25.930  14.320
  563BOLB   GL413504  23.960  25.880  14.120
  563BOLB   C1C13505  23.990  25.510  14.520
  563BOLB   C2C13506  23.820  25.090  14.280
  563BOLB   C3C13507  23.950  24.720  14.250
  563BOLB   C4C13508  24.070  24.460  13.860
  563BOLB   C1D13509  23.610  25.680  13.940
  563BOLB   C2D13510  23.460  25.240  13.860
  563BOLB   C3D13511  23.690  24.760  13.790
  563BOLB   C4D13512  23.780  24.490  13.430
  564BOLB   NC113513  13.530  20.440  16.760
  564BOLB   PO113514  13.490  20.170  17.130
  564BOLB   GL113515  13.110  20.190  17.290
  564BOLB   GL213516  12.890  20.040  17.220
  564BOLB   C1A13517  12.920  20.590  17.600
  564BOLB   C2A13518  12.810  21.010  17.680
  564BOLB   C3A13519  12.890  21.410  17.910
  564BOLB   C4A13520  12.910  21.630  18.380
  564BOLB   C1B13521  12.590  20.290  17.430
  564BOLB   C2B13522  12.340  20.520  17.690
  564BOLB   C3B13523  12.330  20.650  18.120
  564BOLB   C4B13524  12.010  21.010  18.260
  564BOLB   NC213525  12.090  23.220  19.210
  564BOLB   PO213526  12.110  23.720  18.990
  564BOLB   GL313527  12.290  23.470  18.820
  564BOLB   GL413528  12.210  23.410  18.390
  564BOLB   C1C13529  12.530  23.100  18.650
  564BOLB   C2C13530  12.580  22.770  18.360
  564BOLB   C3C13531  12.620  22.390  18.180
  564BOLB   C4C13532  12.780  22.030  18.340
  564BOLB   C1D13533  12.520  23.190  18.070
  564BOLB   C2D13534  12.750  23.110  17.860
  564BOLB   C3D13535  13.090  22.970  17.630
  564BOLB   C4D13536  13.530  23.060  17.730
  565BOLB   NC113537  21.970  22.270  15.630
  565BOLB   PO113538  22.060  22.180  16.120
  565BOLB   GL113539  22.370  22.450  16.240
  565BOLB   GL213540  22.250  22.740  16.390
  565BOLB   C1A13541  22.800  22.550  16.240
  565BOLB   C2A13542  23.080  22.830  16.140
  565BOLB   C3A13543  23.350  23.180  16.330
  565BOLB   C4A13544  23.360  23.380  16.540
  565BOLB   C1B13545  22.600  22.940  16.460
  565BOLB   C2B13546  23.040  22.830  16.730
  565BOLB   C3B13547  23.260  22.920  17.070
  565BOLB   C4B13548  23.280  23.190  17.520
  565BOLB   NC213549  24.860  24.640  18.040
  565BOLB   PO213550  25.040  24.730  17.600
  565BOLB   GL313551  24.770  24.420  17.420
  565BOLB   GL413552  24.640  24.330  17.730
  565BOLB   C1C13553  24.480  24.350  17.130
  565BOLB   C2C13554  24.120  24.160  16.850
  565BOLB   C3C13555  24.020  23.810  16.940
  565BOLB   C4C13556  23.630  23.670  16.780
  565BOLB   C1D13557  24.220  24.100  17.540
  565BOLB   C2D13558  23.810  23.970  17.550
  565BOLB   C3D13559  23.410  23.830  17.670
  565BOLB   C4D13560  22.990  23.820  17.560
  566BOLB   NC113561  28.560  13.290  15.680
  566BOLB   PO113562  28.790  13.250  15.370
  566BOLB   GL113563  29.070  13.550  15.540
  566BOLB   GL213564  29.300  13.390  15.330
  566BOLB   C1A13565  29.300  13.800  15.900
  566BOLB   C2A13566  29.670  13.890  15.970
  566BOLB   C3A13567  30.010  13.870  15.890
  566BOLB   C4A13568  30.310  13.930  16.190
  566BOLB   C1B13569  29.700  13.440  15.460
  566BOLB   C2B13570  30.020  13.360  15.750
  566BOLB   C3B13571  30.430  13.420  15.980
  566BOLB   C4B13572  30.780  13.690  16.200
  566BOLB   NC213573  32.200  14.330  17.360
  566BOLB   PO213574  32.250  13.850  17.420
  566BOLB   GL313575  31.840  13.960  17.340
  566BOLB   GL413576  31.800  13.820  17.010
  566BOLB   C1C13577  31.340  14.190  17.260
  566BOLB   C2C13578  30.940  14.170  17.010
  566BOLB   C3C13579  30.490  14.010  17.020
  566BOLB   C4C13580  30.250  13.830  16.650
  566BOLB   C1D13581  31.530  13.940  16.710
  566BOLB   C2D13582  31.130  13.970  16.510
  566BOLB   C3D13583  30.740  14.160  16.480
  566BOLB   C4D13584  30.380  14.400  16.590
  567BOLB   NC113585  22.540  19.440  18.480
  567BOLB   PO113586  22.320  19.140  18.860
  567BOLB   GL113587  22.530  19.420  18.990
  567BOLB   GL213588  22.550  19.490  19.410
  567BOLB   C1A13589  22.930  19.680  19.170
  567BOLB   C2A13590  23.100  19.940  19.410
  567BOLB   C3A13591  23.310  20.070  19.740
  567BOLB   C4A13592  23.540  19.920  20.220
  567BOLB   C1B13593  22.830  19.540  19.660
  567BOLB   C2B13594  23.150  19.670  20.070
  567BOLB   C3B13595  23.160  19.860  20.520
  567BOLB   C4B13596  23.000  19.900  20.900
  567BOLB   NC213597  25.090  20.860  22.490
  567BOLB   PO213598  24.710  20.860  22.360
  567BOLB   GL313599  24.580  20.600  22.110
  567BOLB   GL413600  24.210  20.410  22.220
  567BOLB   C1C13601  24.360  20.360  21.730
  567BOLB   C2C13602  23.910  20.320  21.490
  567BOLB   C3C13603  23.760  20.270  21.040
  567BOLB   C4C13604  23.560  20.110  20.610
  567BOLB   C1D13605  23.940  20.080  22.040
  567BOLB   C2D13606  23.850  19.860  21.650
  567BOLB   C3D13607  23.760  19.590  21.360
  567BOLB   C4D13608  23.590  19.300  21.180
  568BOLB   NC113609  11.190  16.770  16.980
  568BOLB   PO113610  10.950  16.680  16.670
  568BOLB   GL113611  10.580  16.540  16.800
  568BOLB   GL213612  10.400  16.390  16.650
  568BOLB   C1A13613  10.200  16.800  16.870
  568BOLB   C2A13614   9.780  16.920  16.720
  568BOLB   C3A13615   9.350  17.070  16.810
  568BOLB   C4A13616   9.040  17.490  16.600
  568BOLB   C1B13617  10.410  16.140  17.060
  568BOLB   C2B13618  10.320  16.150  17.460
  568BOLB   C3B13619  10.240  16.060  17.970
  568BOLB   C4B13620  10.270  15.720  18.200
  568BOLB   NC213621   7.870  18.650  18.460
  568BOLB   PO213622   7.960  18.240  18.650
  568BOLB   GL313623   8.260  17.960  18.430
  568BOLB   GL413624   8.160  17.540  18.260
  568BOLB   C1C13625   8.420  17.930  18.040
  568BOLB   C2C13626   8.310  17.760  17.590
  568BOLB   C3C13627   8.470  17.820  17.220
  568BOLB   C4C13628   8.720  17.840  16.850
  568BOLB   C1D13629   8.570  17.450  17.940
  568BOLB   C2D13630   8.980  17.430  17.680
  568BOLB   C3D13631   9.340  17.620  17.550
  568BOLB   C4D13632   9.360  18.000  17.780
  569BOLB   NC113633  27.580  17.510  15.430
  569BOLB   PO113634  27.280  17.640  15.710
  569BOLB   GL113635  27.520  17.760  16.090
  569BOLB   GL213636  27.330  17.990  16.180
  569BOLB   C1A13637  27.930  17.930  16.250
  569BOLB   C2A13638  28.240  18.030  16.520
  569BOLB   C3A13639  28.400  18.200  16.910
  569BOLB   C4A13640  28.750  18.400  17.150
  569BOLB   C1B13641  27.270  18.390  16.220
  569BOLB   C2B13642  27.140  18.750  15.970
  569BOLB   C3B13643  27.200  19.140  15.710
  569BOLB   C4B13644  27.540  19.360  15.660
  569BOLB   NC213645  31.140  17.980  17.560
  569BOLB   PO213646  31.190  17.930  17.160
  569BOLB   GL313647  30.780  18.110  17.260
  569BOLB   GL413648  30.610  18.080  16.910
  569BOLB   C1C13649  30.250  18.210  17.160
  569BOLB   C2C13650  29.840  18.110  17.050
  569BOLB   C3C13651  29.440  18.160  17.190
  569BOLB   C4C13652  29.090  18.430  17.310
  569BOLB   C1D13653  30.400  17.740  17.150
  569BOLB   C2D13654  30.060  17.640  17.000
  569BOLB   C3D13655  29.540  17.660  17.050
  569BOLB   C4D13656  29.200  17.720  16.740
  570BOLB   NC113657  20.200   8.050  20.220
  570BOLB   PO113658  19.840   8.380  20.280
  570BOLB   GL113659  19.550   8.060  20.400
  570BOLB   GL213660  19.410   8.330  20.590
  570BOLB   C1A13661  19.440   7.730  20.660
  570BOLB   C2A13662  19.200   7.540  20.940
  570BOLB   C3A13663  18.980   7.500  21.350
  570BOLB   C4A13664  18.560   7.490  21.410
  570BOLB   C1B13665  19.280   8.210  21.010
  570BOLB   C2B13666  19.060   8.500  21.260
  570BOLB   C3B13667  19.060   8.590  21.650
  570BOLB   C4B13668  19.030   8.420  22.020
  570BOLB   NC213669  17.120   6.300  23.100
  570BOLB   PO213670  17.130   6.610  23.380
  570BOLB   GL313671  17.510   6.820  23.140
  570BOLB   GL413672  17.860   6.760  23.260
  570BOLB   C1C13673  17.590   6.810  22.610
  570BOLB   C2C13674  17.530   7.090  22.210
  570BOLB   C3C13675  17.830   7.180  21.890
  570BOLB   C4C13676  18.120   7.300  21.540
  570BOLB   C1D13677  17.970   7.070  22.950
  570BOLB   C2D13678  18.030   7.220  22.430
  570BOLB   C3D13679  18.290   7.260  22.050
  570BOLB   C4D13680  18.540   7.100  21.720
  571BOLB   NC113681  28.550  12.870  14.350
  571BOLB   PO113682  28.590  12.500  14.270
  571BOLB   GL113683  29.010  12.480  14.400
  571BOLB   GL213684  29.080  12.810  14.530
  571BOLB   C1A13685  29.480  12.460  14.520
  571BOLB   C2A13686  29.810  12.580  14.690
  571BOLB   C3A13687  30.170  12.630  15.010
  571BOLB   C4A13688  30.590  12.530  15.030
  571BOLB   C1B13689  29.510  12.940  14.550
  571BOLB   C2B13690  29.970  13.070  14.650
  571BOLB   C3B13691  30.320  13.260  14.620
  571BOLB   C4B13692  30.620  13.260  14.460
  571BOLB   NC213693  33.050  12.070  16.030
  571BOLB   PO213694  32.750  12.340  15.810
  571BOLB   GL313695  32.390  12.620  15.810
  571BOLB   GL413696  32.510  12.790  15.530
  571BOLB   C1C13697  32.010  12.650  15.580
  571BOLB   C2C13698  31.780  12.410  15.290
  571BOLB   C3C13699  31.280  12.230  15.200
  571BOLB   C4C13700  30.920  12.390  15.350
  571BOLB   C1D13701  32.280  13.110  15.430
  571BOLB   C2D13702  31.880  13.350  15.380
  571BOLB   C3D13703  31.430  13.360  15.450
  571BOLB   C4D13704  31.070  13.370  15.280
  572BOLB   NC113705  21.090  16.270  20.100
  572BOLB   PO113706  21.510  16.290  20.070
  572BOLB   GL113707  21.660  16.190  20.550
  572BOLB   GL213708  21.480  16.570  20.540
  572BOLB   C1A13709  21.840  16.250  20.950
  572BOLB   C2A13710  21.740  16.310  21.410
  572BOLB   C3A13711  21.930  16.600  21.660
  572BOLB   C4A13712  22.190  16.750  21.980
  572BOLB   C1B13713  21.640  16.750  20.970
  572BOLB   C2B13714  21.840  16.960  21.330
  572BOLB   C3B13715  22.180  17.080  21.510
  572BOLB   C4B13716  22.550  16.970  21.680
  572BOLB   NC213717  22.780  17.260  24.370
  572BOLB   PO213718  22.560  17.380  24.070
  572BOLB   GL313719  22.630  17.630  23.770
  572BOLB   GL413720  22.360  17.730  23.610
  572BOLB   C1C13721  22.730  17.710  23.320
  572BOLB   C2C13722  22.480  17.670  22.920
  572BOLB   C3C13723  22.560  17.410  22.560
  572BOLB   C4C13724  22.360  17.070  22.220
  572BOLB   C1D13725  22.230  17.380  23.320
  572BOLB   C2D13726  22.100  17.210  22.950
  572BOLB   C3D13727  22.030  17.400  22.660
  572BOLB   C4D13728  22.150  17.650  22.300
  573BOLB   NC113729  21.790  20.900  18.930
  573BOLB   PO113730  22.070  21.020  18.550
  573BOLB   GL113731  22.180  21.250  18.840
  573BOLB   GL213732  22.030  21.530  18.770
  573BOLB   C1A13733  22.370  21.310  19.270
  573BOLB   C2A13734  22.420  21.110  19.690
  573BOLB   C3A13735  22.480  21.170  20.120
  573BOLB   C4A13736  22.660  21.180  20.380
  573BOLB   C1B13737  22.360  21.740  18.960
  573BOLB   C2B13738  22.520  22.010  19.260
  573BOLB   C3B13739  22.710  22.010  19.620
  573BOLB   C4B13740  22.610  22.060  20.100
  573BOLB   NC213741  24.200  20.970  22.280
  573BOLB   PO213742  23.890  20.740  22.450
  573BOLB   GL313743  23.840  20.620  21.950
  573BOLB   GL413744  24.120  20.800  21.810
  573BOLB   C1C13745  23.660  20.800  21.630
  573BOLB   C2C13746  23.560  20.690  21.220
  573BOLB   C3C13747  23.080  20.820  21.050
  573BOLB   C4C13748  22.890  20.970  20.670
  573BOLB   C1D13749  24.080  20.730  21.390
  573BOLB   C2D13750  24.280  20.480  20.990
  573BOLB   C3D13751  24.280  20.090  20.680
  573BOLB   C4D13752  24.370  19.780  20.520
  574BOLB   NC113753  13.160  16.890  18.040
  574BOLB   PO113754  12.970  16.630  17.680
  574BOLB   GL113755  12.840  16.480  18.100
  574BOLB   GL213756  12.530  16.460  17.950
  574BOLB   C1A13757  12.700  16.550  18.470
  574BOLB   C2A13758  12.520  16.600  18.840
  574BOLB   C3A13759  12.520  16.970  19.180
  574BOLB   C4A13760  12.250  17.130  19.500
  574BOLB   C1B13761  12.230  16.290  18.270
  574BOLB   C2B13762  11.980  16.260  18.470
  574BOLB   C3B13763  11.750  16.320  18.890
  574BOLB   C4B13764  11.630  16.200  19.390
  574BOLB   NC213765  11.010  16.940  21.650
  574BOLB   PO213766  10.980  17.340  21.450
  574BOLB   GL313767  11.290  17.320  21.130
  574BOLB   GL413768  11.520  17.070  21.300
  574BOLB   C1C13769  11.420  17.630  20.840
  574BOLB   C2C13770  11.680  17.700  20.610
  574BOLB   C3C13771  11.990  17.710  20.210
  574BOLB   C4C13772  12.180  17.530  19.800
  574BOLB   C1D13773  11.390  16.870  20.890
  574BOLB   C2D13774  11.660  16.740  20.470
  574BOLB   C3D13775  11.920  16.750  20.170
  574BOLB   C4D13776  12.070  16.600  19.780
  575BOLB   NC113777  22.640  20.320  18.480
  575BOLB   PO113778  22.400  20.000  18.730
  575BOLB   GL113779  22.550  19.940  18.970
  575BOLB   GL213780  22.770  20.220  18.960
  575BOLB   C1A13781  22.630  20.130  19.390
  575BOLB   C2A13782  22.930  20.420  19.620
  575BOLB   C3A13783  23.150  20.630  19.940
  575BOLB   C4A13784  23.440  20.990  20.070
  575BOLB   C1B13785  23.020  20.550  19.120
  575BOLB   C2B13786  23.300  20.830  19.480
  575BOLB   C3B13787  23.580  21.100  19.620
  575BOLB   C4B13788  23.670  21.410  19.410
  575BOLB   NC213789  24.500  21.360  22.440
  575BOLB   PO213790  24.560  21.320  22.130
  575BOLB   GL313791  24.600  21.070  21.810
  575BOLB   GL413792  24.870  20.940  21.530
  575BOLB   C1C13793  24.240  21.220  21.460
  575BOLB   C2C13794  23.810  21.140  21.250
  575BOLB   C3C13795  23.510  21.070  20.880
  575BOLB   C4C13796  23.680  21.180  20.410
  575BOLB   C1D13797  24.550  20.690  21.350
  575BOLB   C2D13798  24.560  20.270  21.280
  575BOLB   C3D13799  24.720  19.850  21.260
  575BOLB   C4D13800  24.480  19.620  21.020
  576BOLB   NC113801  18.950  17.670  19.330
  576BOLB   PO113802  19.120  17.450  19.690
  576BOLB   GL113803  19.180  17.690  20.110
  576BOLB   GL213804  19.350  17.550  20.430
  576BOLB   C1A13805  18.880  17.820  20.420
  576BOLB   C2A13806  18.910  18.080  20.850
  576BOLB   C3A13807  18.770  18.160  21.330
  576BOLB   C4A13808  18.780  17.960  21.790
  576BOLB   C1B13809  19.420  17.900  20.620
  576BOLB   C2B13810  19.540  18.120  21.040
  576BOLB   C3B13811  19.750  18.110  21.440
  576BOLB   C4B13812  20.090  18.300  21.820
  576BOLB   NC213813  18.410  17.780  24.070
  576BOLB   PO213814  18.370  18.260  24.130
  576BOLB   GL313815  18.270  18.370  23.690
  576BOLB   GL413816  18.470  18.480  23.410
  576BOLB   C1C13817  18.090  18.150  23.440
  576BOLB   C2C13818  18.010  17.970  23.010
  576BOLB   C3C13819  18.350  17.960  22.680
  576BOLB   C4C13820  18.540  18.080  22.240
  576BOLB   C1D13821  18.660  18.040  23.260
  576BOLB   C2D13822  18.920  17.850  23.050
  576BOLB   C3D13823  19.240  17.710  22.760
  576BOLB   C4D13824  19.370  17.830  22.340
  577BOLB   NC113825  16.440  10.070  19.980
  577BOLB   PO113826  16.280   9.690  19.750
  577BOLB   GL113827  16.150   9.750  20.190
  577BOLB   GL213828  16.150  10.050  20.410
  577BOLB   C1A13829  16.130   9.610  20.580
  577BOLB   C2A13830  15.960   9.590  21.060
  577BOLB   C3A13831  15.730   9.730  21.370
  577BOLB   C4A13832  15.590   9.910  21.650
  577BOLB   C1B13833  16.110  10.130  20.870
  577BOLB   C2B13834  15.880  10.210  21.210
  577BOLB   C3B13835  15.410  10.240  21.330
  577BOLB   C4B13836  14.980  10.320  21.410
  577BOLB   NC213837  14.780  10.950  24.070
  577BOLB   PO213838  15.060  10.590  24.140
  577BOLB   GL313839  15.180  10.310  23.770
  577BOLB   GL413840  15.560  10.260  23.820
  577BOLB   C1C13841  15.270  10.300  23.350
  577BOLB   C2C13842  15.480  10.250  22.910
  577BOLB   C3C13843  15.590  10.040  22.540
  577BOLB   C4C13844  15.690  10.010  22.070
  577BOLB   C1D13845  15.860  10.290  23.490
  577BOLB   C2D13846  15.980  10.390  23.120
  577BOLB   C3D13847  15.920  10.450  22.680
  577BOLB   C4D13848  15.790  10.460  22.280
  578BOLB   NC113849  23.580  13.860  19.630
  578BOLB   PO113850  23.720  14.060  19.940
  578BOLB   GL113851  23.850  14.070  20.390
  578BOLB   GL213852  24.050  13.880  20.380
  578BOLB   C1A13853  23.700  13.920  20.800
  578BOLB   C2A13854  23.870  13.940  21.270
  578BOLB   C3A13855  23.860  13.900  21.680
  578BOLB   C4A13856  23.870  14.190  22.030
  578BOLB   C1B13857  24.240  14.110  20.700
  578BOLB   C2B13858  24.370  14.120  21.120
  578BOLB   C3B13859  24.710  14.080  21.460
  578BOLB   C4B13860  25.040  13.850  21.570
  578BOLB   NC213861  24.110  14.910  24.530
  578BOLB   PO213862  24.210  15.190  24.180
  578BOLB   GL313863  24.240  14.950  23.780
  578BOLB   GL413864  24.450  14.620  23.770
  578BOLB   C1C13865  23.950  14.880  23.610
  578BOLB   C2C13866  23.810  14.520  23.320
  578BOLB   C3C13867  23.730  14.370  22.840
  578BOLB   C4C13868  23.730  14.130  22.440
  578BOLB   C1D13869  24.650  14.900  23.490
  578BOLB   C2D13870  24.640  15.270  23.110
  578BOLB   C3D13871  24.710  15.220  22.710
  578BOLB   C4D13872  24.620  15.080  22.380
  579BOLB   NC113873  19.040  23.250  13.070
  579BOLB   PO113874  18.840  23.570  13.170
  579BOLB   GL113875  18.950  23.960  13.160
  579BOLB   GL213876  18.830  24.060  12.760
  579BOLB   C1A13877  18.930  24.430  13.230
  579BOLB   C2A13878  18.990  24.880  13.520
  579BOLB   C3A13879  19.000  25.310  13.580
  579BOLB   C4A13880  19.010  25.760  13.660
  579BOLB   C1B13881  18.990  24.470  12.740
  579BOLB   C2B13882  19.080  24.850  13.060
  579BOLB   C3B13883  19.280  25.260  13.130
  579BOLB   C4B13884  19.340  25.650  13.250
  579BOLB   NC213885  19.770  28.180  13.060
  579BOLB   PO213886  19.720  28.000  12.720
  579BOLB   GL313887  19.550  27.630  12.730
  579BOLB   GL413888  19.460  27.620  12.470
  579BOLB   C1C13889  19.360  27.210  13.050
  579BOLB   C2C13890  19.160  26.860  13.140
  579BOLB   C3C13891  18.920  26.650  13.420
  579BOLB   C4C13892  18.910  26.250  13.570
  579BOLB   C1D13893  19.250  27.170  12.460
  579BOLB   C2D13894  19.300  26.730  12.390
  579BOLB   C3D13895  19.170  26.420  12.000
  579BOLB   C4D13896  19.250  26.260  11.610
  580BOLB   NC113897  13.680  17.370  18.150
  580BOLB   PO113898  13.280  17.390  17.980
  580BOLB   GL113899  13.130  17.520  18.300
  580BOLB   GL213900  12.860  17.830  18.200
  580BOLB   C1A13901  13.050  17.600  18.720
  580BOLB   C2A13902  12.680  17.420  19.030
  580BOLB   C3A13903  12.320  17.620  19.260
  580BOLB   C4A13904  11.890  17.750  19.400
  580BOLB   C1B13905  12.600  18.060  18.460
  580BOLB   C2B13906  12.500  17.960  18.940
  580BOLB   C3B13907  12.540  18.230  19.230
  580BOLB   C4B13908  12.470  17.980  19.640
  580BOLB   NC213909  12.530  18.810  21.870
  580BOLB   PO213910  12.360  18.550  21.580
  580BOLB   GL313911  12.360  18.680  21.250
  580BOLB   GL413912  12.100  18.820  21.100
  580BOLB   C1C13913  12.470  18.450  20.840
  580BOLB   C2C13914  12.350  18.410  20.430
  580BOLB   C3C13915  12.140  18.270  20.020
  580BOLB   C4C13916  11.940  18.040  19.750
  580BOLB   C1D13917  11.930  18.950  20.770
  580BOLB   C2D13918  11.770  19.180  20.560
  580BOLB   C3D13919  11.920  19.300  20.210
  580BOLB   C4D13920  12.070  19.520  19.850
  581BOLB   NC113921  22.630  14.810  20.480
  581BOLB   PO113922  22.710  15.180  20.240
  581BOLB   GL113923  22.950  15.360  20.630
  581BOLB   GL213924  22.740  15.710  20.760
  581BOLB   C1A13925  23.130  15.570  21.050
  581BOLB   C2A13926  23.280  15.680  21.510
  581BOLB   C3A13927  23.500  16.020  21.780
  581BOLB   C4A13928  23.680  16.330  22.110
  581BOLB   C1B13929  22.690  15.820  21.170
  581BOLB   C2B13930  22.740  15.840  21.510
  581BOLB   C3B13931  22.940  16.000  21.810
  581BOLB   C4B13932  22.840  16.080  22.280
  581BOLB   NC213933  25.470  17.760  23.520
  581BOLB   PO213934  25.300  17.450  23.240
  581BOLB   GL313935  25.130  17.210  22.950
  581BOLB   GL413936  25.320  17.190  22.700
  581BOLB   C1C13937  24.840  17.020  22.690
  581BOLB   C2C13938  24.590  16.960  22.340
  581BOLB   C3C13939  24.410  16.610  22.140
  581BOLB   C4C13940  24.040  16.470  22.110
  581BOLB   C1D13941  25.160  16.990  22.300
  581BOLB   C2D13942  25.390  16.650  21.990
  581BOLB   C3D13943  25.230  16.480  21.610
  581BOLB   C4D13944  25.290  16.310  21.170
  582BOLB   NC113945  18.880  22.290  17.180
  582BOLB   PO113946  18.470  22.180  17.060
  582BOLB   GL113947  18.420  22.610  17.190
  582BOLB   GL213948  18.710  22.730  17.200
  582BOLB   C1A13949  18.340  22.940  17.420
  582BOLB   C2A13950  18.030  23.210  17.660
  582BOLB   C3A13951  17.590  23.430  17.660
  582BOLB   C4A13952  17.250  23.700  17.810
  582BOLB   C1B13953  18.820  23.050  17.510
  582BOLB   C2B13954  18.790  23.440  17.770
  582BOLB   C3B13955  18.800  23.920  17.770
  582BOLB   C4B13956  19.020  24.160  17.520
  582BOLB   NC213957  17.220  25.620  18.980
  582BOLB   PO213958  16.830  25.530  19.000
  582BOLB   GL313959  16.840  25.140  18.660
  582BOLB   GL413960  16.670  24.940  18.760
  582BOLB   C1C13961  16.540  25.100  18.320
  582BOLB   C2C13962  16.480  24.770  18.010
  582BOLB   C3C13963  16.680  24.410  17.960
  582BOLB   C4C13964  16.940  23.980  17.970
  582BOLB   C1D13965  16.810  24.480  18.900
  582BOLB   C2D13966  16.920  24.150  18.640
  582BOLB   C3D13967  16.960  23.790  18.430
  582BOLB   C4D13968  17.100  23.490  18.210
  583BOLB   NC113969  11.990  11.100  12.810
  583BOLB   PO113970  11.740  10.750  12.450
  583BOLB   GL113971  11.250  10.660  12.270
  583BOLB   GL213972  11.180  10.810  12.510
  583BOLB   C1A13973  10.930  10.210  12.230
  583BOLB   C2A13974  10.530  10.050  12.340
  583BOLB   C3A13975  10.280   9.770  12.340
  583BOLB   C4A13976  10.300   9.470  12.030
  583BOLB   C1B13977  10.750  10.780  12.240
  583BOLB   C2B13978  10.560  10.370  11.890
  583BOLB   C3B13979  10.150  10.210  11.800
  583BOLB   C4B13980  10.080   9.790  11.530
  583BOLB   NC213981   8.730   7.390  10.840
  583BOLB   PO213982   8.980   7.840  10.920
  583BOLB   GL313983   9.370   7.840  11.060
  583BOLB   GL413984   9.490   8.050  10.820
  583BOLB   C1C13985   9.600   8.190  11.290
  583BOLB   C2C13986   9.920   8.570  11.290
  583BOLB   C3C13987  10.200   8.910  11.430
  583BOLB   C4C13988  10.190   9.330  11.540
  583BOLB   C1D13989   9.860   7.980  10.920
  583BOLB   C2D13990  10.140   8.150  11.110
  583BOLB   C3D13991  10.370   8.380  11.430
  583BOLB   C4D13992  10.800   8.610  11.550
  584BOLB   NC113993  19.180  22.710  16.200
  584BOLB   PO113994  18.930  23.090  16.200
  584BOLB   GL113995  18.860  23.430  16.420
  584BOLB   GL213996  18.920  23.290  16.700
  584BOLB   C1A13997  18.930  23.750  16.750
  584BOLB   C2A13998  19.230  23.780  17.130
  584BOLB   C3A13999  19.290  23.750  17.540
  584BOLB   C4A14000  19.330  23.960  17.880
  584BOLB   C1B14001  19.340  23.410  16.750
  584BOLB   C2B14002  19.710  23.730  16.860
  584BOLB   C3B14003  19.770  24.250  16.890
  584BOLB   C4B14004  19.700  24.670  17.080
  584BOLB   NC214005  18.640  25.930  18.830
  584BOLB   PO214006  18.350  25.610  18.950
  584BOLB   GL314007  18.640  25.250  18.910
  584BOLB   GL414008  19.100  25.210  19.060
  584BOLB   C1C14009  18.500  24.880  18.750
  584BOLB   C2C14010  18.260  24.700  18.420
  584BOLB   C3C14011  18.650  24.420  18.260
  584BOLB   C4C14012  18.980  24.150  18.190
  584BOLB   C1D14013  19.270  24.730  19.050
  584BOLB   C2D14014  19.270  24.320  18.860
  584BOLB   C3D14015  19.450  23.820  18.900
  584BOLB   C4D14016  19.730  23.520  18.640
  585BOLB   NC114017  25.670   8.720  11.390
  585BOLB   PO114018  26.070   8.710  11.680
  585BOLB   GL114019  26.380   8.470  11.580
  585BOLB   GL214020  26.650   8.630  11.590
  585BOLB   C1A14021  26.800   8.140  11.340
  585BOLB   C2A14022  26.940   7.750  11.520
  585BOLB   C3A14023  27.050   7.470  11.300
  585BOLB   C4A14024  27.030   6.980  11.190
  585BOLB   C1B14025  26.820   8.300  11.830
  585BOLB   C2B14026  26.910   7.900  12.020
  585BOLB   C3B14027  27.050   7.440  11.890
  585BOLB   C4B14028  26.820   7.110  11.630
  585BOLB   NC214029  28.000   5.230  10.040
  585BOLB   PO214030  28.440   5.290   9.950
  585BOLB   GL314031  28.170   5.670  10.080
  585BOLB   GL414032  28.040   5.700  10.450
  585BOLB   C1C14033  27.930   6.080  10.140
  585BOLB   C2C14034  27.710   6.270  10.310
  585BOLB   C3C14035  27.380   6.640  10.400
  585BOLB   C4C14036  27.210   6.860  10.810
  585BOLB   C1D14037  28.200   5.960  10.720
  585BOLB   C2D14038  28.240   5.930  11.100
  585BOLB   C3D14039  28.200   6.130  11.470
  585BOLB   C4D14040  27.900   6.190  11.720
  586BOLB   NC114041  19.030  18.550  18.860
  586BOLB   PO114042  18.650  18.860  18.820
  586BOLB   GL114043  18.590  19.200  19.110
  586BOLB   GL214044  18.480  19.050  19.420
  586BOLB   C1A14045  18.820  19.420  19.430
  586BOLB   C2A14046  19.080  19.560  19.860
  586BOLB   C3A14047  19.280  19.590  20.320
  586BOLB   C4A14048  19.040  19.890  20.620
  586BOLB   C1B14049  18.620  19.080  19.860
  586BOLB   C2B14050  18.650  19.280  20.290
  586BOLB   C3B14051  18.540  19.220  20.730
  586BOLB   C4B14052  18.410  19.290  21.130
  586BOLB   NC214053  19.860  21.340  22.740
  586BOLB   PO214054  19.860  21.660  22.340
  586BOLB   GL314055  19.910  21.320  22.010
  586BOLB   GL414056  20.160  21.500  21.920
  586BOLB   C1C14057  19.640  21.000  21.780
  586BOLB   C2C14058  19.400  20.700  21.410
  586BOLB   C3C14059  19.300  20.160  21.390
  586BOLB   C4C14060  19.220  19.950  21.060
  586BOLB   C1D14061  20.600  21.630  21.790
  586BOLB   C2D14062  21.070  21.630  21.830
  586BOLB   C3D14063  21.440  21.740  21.670
  586BOLB   C4D14064  21.330  22.060  21.350
  587BOLB   NC114065  13.530   7.320  16.490
  587BOLB   PO114066  13.220   7.250  16.180
  587BOLB   GL114067  12.820   7.140  16.320
  587BOLB   GL214068  12.570   7.310  16.300
  587BOLB   C1A14069  12.810   6.720  16.620
  587BOLB   C2A14070  12.850   6.380  16.620
  587BOLB   C3A14071  12.680   5.950  16.700
  587BOLB   C4A14072  12.460   5.570  16.770
  587BOLB   C1B14073  12.360   7.150  16.640
  587BOLB   C2B14074  12.010   6.990  16.660
  587BOLB   C3B14075  11.560   6.810  16.730
  587BOLB   C4B14076  11.220   6.610  16.580
  587BOLB   NC214077  11.390   4.040  16.990
  587BOLB   PO214078  11.110   4.280  17.160
  587BOLB   GL314079  11.400   4.490  16.880
  587BOLB   GL414080  11.650   4.530  16.970
  587BOLB   C1C14081  11.550   4.640  16.480
  587BOLB   C2C14082  11.820   4.870  16.260
  587BOLB   C3C14083  12.260   5.140  16.180
  587BOLB   C4C14084  12.520   5.210  16.490
  587BOLB   C1D14085  11.760   4.960  16.800
  587BOLB   C2D14086  11.990   5.310  16.600
  587BOLB   C3D14087  12.070   5.660  16.460
  587BOLB   C4D14088  12.220   6.090  16.490
  588BOLB   NC114089  30.410   7.130  18.990
  588BOLB   PO114090  30.280   7.630  19.050
  588BOLB   GL114091  29.940   7.520  18.920
  588BOLB   GL214092  29.830   7.400  18.700
  588BOLB   C1A14093  29.550   7.770  18.830
  588BOLB   C2A14094  29.220   7.780  18.560
  588BOLB   C3A14095  28.770   7.680  18.550
  588BOLB   C4A14096  28.330   7.830  18.430
  588BOLB   C1B14097  29.570   7.480  18.360
  588BOLB   C2B14098  29.460   7.120  18.060
  588BOLB   C3B14099  29.330   6.820  17.740
  588BOLB   C4B14100  29.030   6.680  17.580
  588BOLB   NC214101  26.650   9.390  17.990
  588BOLB   PO214102  26.870   9.120  18.250
  588BOLB   GL314103  26.740   8.800  18.560
  588BOLB   GL414104  27.040   8.770  18.720
  588BOLB   C1C14105  26.770   8.380  18.740
  588BOLB   C2C14106  27.100   8.080  18.680
  588BOLB   C3C14107  27.540   7.910  18.700
  588BOLB   C4C14108  27.950   7.850  18.560
  588BOLB   C1D14109  27.070   8.510  18.370
  588BOLB   C2D14110  27.190   8.120  18.160
  588BOLB   C3D14111  27.680   7.920  18.090
  588BOLB   C4D14112  28.070   7.960  18.000
  589BOLB   NC114113  28.540  12.420  15.910
  589BOLB   PO114114  28.250  12.620  16.160
  589BOLB   GL114115  28.610  12.700  16.390
  589BOLB   GL214116  28.660  12.500  16.610
  589BOLB   C1A14117  29.050  12.490  16.280
  589BOLB   C2A14118  29.420  12.540  16.590
  589BOLB   C3A14119  29.830  12.570  16.900
  589BOLB   C4A14120  30.080  12.620  17.280
  589BOLB   C1B14121  28.910  12.320  16.750
  589BOLB   C2B14122  29.290  12.090  17.010
  589BOLB   C3B14123  29.690  11.860  16.870
  589BOLB   C4B14124  30.100  11.650  16.800
  589BOLB   NC214125  32.490  13.630  18.340
  589BOLB   PO214126  32.140  13.450  17.910
  589BOLB   GL314127  31.880  13.560  17.540
  589BOLB   GL414128  31.920  13.410  17.290
  589BOLB   C1C14129  31.430  13.660  17.430
  589BOLB   C2C14130  31.150  13.350  17.590
  589BOLB   C3C14131  30.830  13.050  17.380
  589BOLB   C4C14132  30.440  12.870  17.410
  589BOLB   C1D14133  31.590  13.140  17.430
  589BOLB   C2D14134  31.250  12.970  17.220
  589BOLB   C3D14135  30.920  13.100  16.870
  589BOLB   C4D14136  30.590  13.060  16.870
  590BOLB   NC114137  23.050  12.710  19.530
  590BOLB   PO114138  23.180  12.660  19.890
  590BOLB   GL114139  23.510  12.750  20.220
  590BOLB   GL214140  23.620  12.550  20.490
  590BOLB   C1A14141  23.770  12.990  20.580
  590BOLB   C2A14142  23.970  13.020  20.970
  590BOLB   C3A14143  24.400  12.900  21.180
  590BOLB   C4A14144  24.480  12.920  21.590
  590BOLB   C1B14145  23.660  12.580  20.990
  590BOLB   C2B14146  24.020  12.670  21.370
  590BOLB   C3B14147  24.050  12.750  21.880
  590BOLB   C4B14148  24.200  12.700  22.390
  590BOLB   NC214149  25.320  13.280  23.950
  590BOLB   PO214150  25.660  13.070  24.050
  590BOLB   GL314151  25.510  12.960  23.650
  590BOLB   GL414152  25.760  12.750  23.550
  590BOLB   C1C14153  25.250  13.080  23.280
  590BOLB   C2C14154  25.110  13.060  22.850
  590BOLB   C3C14155  24.840  13.100  22.440
  590BOLB   C4C14156  24.800  13.100  22.070
  590BOLB   C1D14157  25.590  12.670  23.250
  590BOLB   C2D14158  25.590  12.800  22.870
  590BOLB   C3D14159  25.450  12.720  22.400
  590BOLB   C4D14160  25.410  12.820  21.960
  591BOLB   NC114161  17.660   5.120  15.720
  591BOLB   PO114162  18.050   5.100  15.330
  591BOLB   GL114163  18.260   4.690  15.250
  591BOLB   GL214164  18.070   4.580  14.990
  591BOLB   C1A14165  18.170   4.170  15.160
  591BOLB   C2A14166  18.030   3.890  15.230
  591BOLB   C3A14167  17.780   3.580  15.280
  591BOLB   C4A14168  17.620   3.130  15.290
  591BOLB   C1B14169  17.720   4.360  15.110
  591BOLB   C2B14170  17.540   4.030  15.060
  591BOLB   C3B14171  17.210   3.750  14.970
  591BOLB   C4B14172  16.950   3.500  15.170
  591BOLB   NC214173  16.880   0.810  15.050
  591BOLB   PO214174  16.930   0.910  14.590
  591BOLB   GL314175  17.250   1.110  14.840
  591BOLB   GL414176  17.540   1.120  14.740
  591BOLB   C1C14177  17.340   1.550  15.030
  591BOLB   C2C14178  17.220   1.970  15.060
  591BOLB   C3C14179  17.270   2.420  15.030
  591BOLB   C4C14180  17.360   2.730  15.300
  591BOLB   C1D14181  17.470   1.600  14.600
  591BOLB   C2D14182  17.510   2.020  14.630
  591BOLB   C3D14183  17.460   2.450  14.490
  591BOLB   C4D14184  17.190   2.650  14.170
  592BOLB   NC114185  15.140   5.940  13.770
  592BOLB   PO114186  15.170   5.560  13.650
  592BOLB   GL114187  14.780   5.550  13.560
  592BOLB   GL214188  14.720   5.530  13.170
  592BOLB   C1A14189  14.570   5.110  13.620
  592BOLB   C2A14190  14.460   4.800  13.870
  592BOLB   C3A14191  14.310   4.430  13.700
  592BOLB   C4A14192  14.330   4.080  13.590
  592BOLB   C1B14193  14.540   5.110  13.150
  592BOLB   C2B14194  14.350   4.730  13.170
  592BOLB   C3B14195  14.240   4.340  13.130
  592BOLB   C4B14196  13.970   4.020  12.970
  592BOLB   NC214197  12.690   3.100  12.370
  592BOLB   PO214198  12.720   2.820  12.750
  592BOLB   GL314199  13.090   2.930  12.890
  592BOLB   GL414200  13.000   3.270  13.030
  592BOLB   C1C14201  13.490   3.140  13.060
  592BOLB   C2C14202  13.830   3.520  13.150
  592BOLB   C3C14203  14.260   3.600  13.110
  592BOLB   C4C14204  14.320   3.850  13.240
  592BOLB   C1D14205  13.250   3.600  13.190
  592BOLB   C2D14206  13.350   3.950  13.110
  592BOLB   C3D14207  13.480   4.300  13.210
  592BOLB   C4D14208  13.680   4.500  12.970
  593BOLB   NC114209  27.270   9.410  12.400
  593BOLB   PO114210  27.180   9.750  12.160
  593BOLB   GL114211  27.510   9.610  11.990
  593BOLB   GL214212  27.820   9.620  12.100
  593BOLB   C1A14213  27.650   9.260  11.700
  593BOLB   C2A14214  27.920   8.910  11.560
  593BOLB   C3A14215  27.710   8.810  11.190
  593BOLB   C4A14216  27.770   8.400  10.910
  593BOLB   C1B14217  28.280   9.480  11.750
  593BOLB   C2B14218  28.540   9.210  11.410
  593BOLB   C3B14219  29.000   8.920  11.490
  593BOLB   C4B14220  28.970   8.560  11.650
  593BOLB   NC214221  29.600   6.120  10.240
  593BOLB   PO214222  29.400   6.440  10.370
  593BOLB   GL314223  29.210   6.700  10.530
  593BOLB   GL414224  29.320   7.050  10.540
  593BOLB   C1C14225  28.860   7.070  10.700
  593BOLB   C2C14226  28.530   7.390  10.980
  593BOLB   C3C14227  28.310   7.740  10.820
  593BOLB   C4C14228  28.010   7.990  10.830
  593BOLB   C1D14229  29.110   7.440  10.400
  593BOLB   C2D14230  29.190   7.750  10.180
  593BOLB   C3D14231  28.990   8.050  10.090
  593BOLB   C4D14232  28.510   8.110   9.970
  594BOLB   NC114233  14.900  15.060  19.300
  594BOLB   PO114234  14.710  14.640  19.100
  594BOLB   GL114235  14.530  14.710  19.420
  594BOLB   GL214236  14.550  14.990  19.720
  594BOLB   C1A14237  14.080  14.910  19.630
  594BOLB   C2A14238  13.870  15.020  19.970
  594BOLB   C3A14239  13.450  14.970  20.210
  594BOLB   C4A14240  13.140  14.870  20.470
  594BOLB   C1B14241  14.340  15.200  20.020
  594BOLB   C2B14242  14.410  15.420  20.340
  594BOLB   C3B14243  14.550  15.520  20.770
  594BOLB   C4B14244  14.320  15.710  21.190
  594BOLB   NC214245  12.220  15.550  22.590
  594BOLB   PO214246  11.990  16.000  22.410
  594BOLB   GL314247  12.210  15.920  21.960
  594BOLB   GL414248  12.340  15.500  22.060
  594BOLB   C1C14249  12.410  15.910  21.610
  594BOLB   C2C14250  12.340  15.710  21.170
  594BOLB   C3C14251  12.600  15.380  20.940
  594BOLB   C4C14252  12.890  14.980  20.820
  594BOLB   C1D14253  12.620  15.490  21.650
  594BOLB   C2D14254  12.850  15.180  21.380
  594BOLB   C3D14255  13.220  15.020  21.280
  594BOLB   C4D14256  13.450  15.060  20.820
  595BOLB   NC114257  25.920  15.080   9.690
  595BOLB   PO114258  26.000  15.370   9.270
  595BOLB   GL114259  26.430  15.550   9.020
  595BOLB   GL214260  26.550  15.310   8.770
  595BOLB   C1A14261  26.800  15.730   8.880
  595BOLB   C2A14262  27.110  16.060   8.800
  595BOLB   C3A14263  27.450  16.380   8.530
  595BOLB   C4A14264  27.950  16.170   8.760
  595BOLB   C1B14265  26.960  15.380   8.590
  595BOLB   C2B14266  27.330  15.320   8.260
  595BOLB   C3B14267  27.460  15.210   7.830
  595BOLB   C4B14268  27.540  14.870   7.850
  595BOLB   NC214269  29.740  16.420   7.430
  595BOLB   PO214270  30.030  16.250   7.770
  595BOLB   GL314271  29.640  16.100   7.840
  595BOLB   GL414272  29.330  16.040   7.550
  595BOLB   C1C14273  29.250  16.030   8.090
  595BOLB   C2C14274  28.890  15.930   8.280
  595BOLB   C3C14275  28.580  15.770   8.430
  595BOLB   C4C14276  28.190  15.860   8.450
  595BOLB   C1D14277  28.930  16.060   7.640
  595BOLB   C2D14278  28.600  15.950   7.820
  595BOLB   C3D14279  28.220  16.030   7.990
  595BOLB   C4D14280  27.790  16.170   8.220
  596BOLB   NC114281  26.010  16.680  17.880
  596BOLB   PO114282  26.280  16.410  17.870
  596BOLB   GL114283  26.310  16.710  18.280
  596BOLB   GL214284  26.240  16.720  18.630
  596BOLB   C1A14285  26.700  16.920  18.500
  596BOLB   C2A14286  26.880  17.150  18.780
  596BOLB   C3A14287  26.930  17.210  19.270
  596BOLB   C4A14288  26.950  17.610  19.520
  596BOLB   C1B14289  26.380  17.000  18.850
  596BOLB   C2B14290  26.350  17.060  19.210
  596BOLB   C3B14291  26.460  17.150  19.700
  596BOLB   C4B14292  26.560  16.910  20.020
  596BOLB   NC214293  28.380  19.730  20.260
  596BOLB   PO214294  28.620  19.430  20.180
  596BOLB   GL314295  28.230  19.210  20.080
  596BOLB   GL414296  28.340  18.870  20.050
  596BOLB   C1C14297  27.750  18.920  20.100
  596BOLB   C2C14298  27.470  18.620  19.940
  596BOLB   C3C14299  27.400  18.230  19.810
  596BOLB   C4C14300  27.070  17.880  19.860
  596BOLB   C1D14301  28.130  18.620  19.890
  596BOLB   C2D14302  27.790  18.530  19.590
  596BOLB   C3D14303  27.590  18.350  19.250
  596BOLB   C4D14304  27.500  18.130  18.850
  597BOLB   NC114305  21.950  14.650   7.980
  597BOLB   PO114306  21.890  14.650   7.470
  597BOLB   GL114307  21.810  14.520   7.030
  597BOLB   GL214308  22.040  14.340   6.920
  597BOLB   C1A14309  21.710  14.660   6.580
  597BOLB   C2A14310  21.720  14.630   6.210
  597BOLB   C3A14311  21.570  14.780   5.760
  597BOLB   C4A14312  21.280  14.900   5.440
  597BOLB   C1B14313  22.190  14.470   6.470
  597BOLB   C2B14314  22.200  14.880   6.180
  597BOLB   C3B14315  22.460  15.000   5.840
  597BOLB   C4B14316  22.620  15.330   5.630
  597BOLB   NC214317  21.350  14.870   3.060
  597BOLB   PO214318  20.990  15.270   2.910
  597BOLB   GL314319  20.970  15.060   3.380
  597BOLB   GL414320  21.180  15.300   3.370
  597BOLB   C1C14321  21.100  15.020   3.810
  597BOLB   C2C14322  20.950  15.070   4.200
  597BOLB   C3C14323  21.140  15.100   4.610
  597BOLB   C4C14324  21.170  14.780   4.940
  597BOLB   C1D14325  21.130  15.490   3.660
  597BOLB   C2D14326  21.070  15.520   4.130
  597BOLB   C3D14327  21.420  15.580   4.490
  597BOLB   C4D14328  21.630  15.390   4.850
  598BOLB   NC114329  15.980   7.400  18.490
  598BOLB   PO114330  16.230   7.410  18.840
  598BOLB   GL114331  16.160   7.180  19.210
  598BOLB   GL214332  16.320   7.360  19.450
  598BOLB   C1A14333  15.900   6.970  19.490
  598BOLB   C2A14334  15.630   6.660  19.640
  598BOLB   C3A14335  15.550   6.610  20.090
  598BOLB   C4A14336  15.500   6.520  20.520
  598BOLB   C1B14337  16.330   7.140  19.890
  598BOLB   C2B14338  16.220   6.800  19.930
  598BOLB   C3B14339  16.010   6.410  19.830
  598BOLB   C4B14340  15.810   6.150  19.880
  598BOLB   NC214341  14.940   5.910  22.390
  598BOLB   PO214342  15.050   5.660  21.980
  598BOLB   GL314343  14.860   6.070  21.910
  598BOLB   GL414344  14.480   6.180  21.970
  598BOLB   C1C14345  14.880   6.380  21.750
  598BOLB   C2C14346  15.110   6.650  21.410
  598BOLB   C3C14347  15.430   6.590  21.230
  598BOLB   C4C14348  15.620   6.500  20.880
  598BOLB   C1D14349  14.390   6.440  21.570
  598BOLB   C2D14350  14.550   6.740  21.240
  598BOLB   C3D14351  14.580   6.720  20.740
  598BOLB   C4D14352  14.240   6.820  20.330
  599BOLB   NC114353  15.990  13.420  19.830
  599BOLB   PO114354  15.980  13.620  20.130
  599BOLB   GL114355  16.080  13.770  20.450
  599BOLB   GL214356  16.080  13.970  20.470
  599BOLB   C1A14357  15.950  13.520  20.790
  599BOLB   C2A14358  15.840  13.420  21.220
  599BOLB   C3A14359  15.820  13.110  21.630
  599BOLB   C4A14360  15.840  12.740  21.870
  599BOLB   C1B14361  16.020  14.100  20.910
  599BOLB   C2B14362  15.730  14.030  21.160
  599BOLB   C3B14363  15.480  14.210  21.560
  599BOLB   C4B14364  15.040  14.200  21.610
  599BOLB   NC214365  14.410  11.170  23.810
  599BOLB   PO214366  14.860  11.210  23.590
  599BOLB   GL314367  15.100  11.560  23.380
  599BOLB   GL414368  15.260  11.550  23.660
  599BOLB   C1C14369  15.400  11.700  23.080
  599BOLB   C2C14370  15.400  12.040  22.860
  599BOLB   C3C14371  15.610  12.210  22.580
  599BOLB   C4C14372  15.660  12.330  22.070
  599BOLB   C1D14373  15.610  11.300  23.320
  599BOLB   C2D14374  15.530  11.280  22.880
  599BOLB   C3D14375  15.500  11.280  22.470
  599BOLB   C4D14376  15.700  11.440  21.980
  600BOLB   NC114377  25.350  19.820  11.000
  600BOLB   PO114378  25.720  19.860  10.900
  600BOLB   GL114379  26.020  20.180  10.940
  600BOLB   GL214380  26.170  20.250  11.180
  600BOLB   C1A14381  26.320  20.440  10.620
  600BOLB   C2A14382  26.650  20.260  10.730
  600BOLB   C3A14383  27.140  20.360  10.780
  600BOLB   C4A14384  27.390  20.510  10.450
  600BOLB   C1B14385  26.430  20.530  11.060
  600BOLB   C2B14386  26.660  20.910  11.130
  600BOLB   C3B14387  26.880  21.180  11.050
  600BOLB   C4B14388  27.360  21.110  11.190
  600BOLB   NC214389  28.770  20.520   8.630
  600BOLB   PO214390  28.910  20.730   9.050
  600BOLB   GL314391  28.560  20.610   9.060
  600BOLB   GL414392  28.350  20.790   9.210
  600BOLB   C1C14393  28.280  20.270   8.990
  600BOLB   C2C14394  27.910  20.330   9.270
  600BOLB   C3C14395  27.690  20.360   9.640
  600BOLB   C4C14396  27.580  20.360  10.090
  600BOLB   C1D14397  28.060  20.740   8.970
  600BOLB   C2D14398  27.920  20.540   8.720
  600BOLB   C3D14399  27.550  20.360   8.680
  600BOLB   C4D14400  27.450  19.940   8.790
  601BOLB   NC114401  22.500  20.830  18.450
  601BOLB   PO114402  22.610  20.590  18.060
  601BOLB   GL114403  23.000  20.820  18.210
  601BOLB   GL214404  23.270  21.100  18.000
  601BOLB   C1A14405  23.380  20.820  18.390
  601BOLB   C2A14406  23.540  21.170  18.530
  601BOLB   C3A14407  23.650  21.290  18.820
  601BOLB   C4A14408  23.620  21.690  19.000
  601BOLB   C1B14409  23.470  21.490  18.090
  601BOLB   C2B14410  23.580  21.750  18.450
  601BOLB   C3B14411  23.900  22.040  18.690
  601BOLB   C4B14412  24.310  21.950  18.720
  601BOLB   NC214413  23.380  23.440  20.920
  601BOLB   PO214414  23.840  23.090  21.020
  601BOLB   GL314415  23.670  22.810  20.710
  601BOLB   GL414416  23.530  22.510  20.820
  601BOLB   C1C14417  23.370  22.710  20.360
  601BOLB   C2C14418  23.190  22.470  19.920
  601BOLB   C3C14419  23.360  22.280  19.460
  601BOLB   C4C14420  23.580  22.060  19.210
  601BOLB   C1D14421  23.180  22.330  20.600
  601BOLB   C2D14422  23.150  22.070  20.290
  601BOLB   C3D14423  22.990  21.760  20.180
  601BOLB   C4D14424  23.150  21.380  20.330
  602BOLB   NC114425  12.520  19.690  17.040
  602BOLB   PO114426  12.850  19.490  17.250
  602BOLB   GL114427  12.660  19.730  17.610
  602BOLB   GL214428  12.380  19.850  17.480
  602BOLB   C1A14429  12.600  19.620  18.060
  602BOLB   C2A14430  12.860  19.880  18.300
  602BOLB   C3A14431  12.800  20.130  18.530
  602BOLB   C4A14432  12.550  20.520  18.540
  602BOLB   C1B14433  12.120  20.250  17.240
  602BOLB   C2B14434  11.890  20.580  17.420
  602BOLB   C3B14435  11.900  20.710  17.860
  602BOLB   C4B14436  11.630  21.130  17.920
  602BOLB   NC214437  10.780  22.400  19.190
  602BOLB   PO214438  10.620  22.050  19.160
  602BOLB   GL314439  11.050  22.090  18.970
  602BOLB   GL414440  11.240  22.250  19.170
  602BOLB   C1C14441  11.340  21.670  18.970
  602BOLB   C2C14442  11.490  21.230  18.900
  602BOLB   C3C14443  11.820  20.940  18.740
  602BOLB   C4C14444  12.250  20.820  18.630
  602BOLB   C1D14445  11.710  22.070  18.860
  602BOLB   C2D14446  11.880  22.110  18.460
  602BOLB   C3D14447  11.770  21.940  18.050
  602BOLB   C4D14448  11.730  21.590  17.800
  603BOLB   NC114449  22.010  17.260  19.510
  603BOLB   PO114450  22.260  16.990  19.740
  603BOLB   GL114451  22.300  16.930  20.220
  603BOLB   GL214452  22.630  16.770  20.330
  603BOLB   C1A14453  22.370  17.120  20.620
  603BOLB   C2A14454  22.360  17.200  20.980
  603BOLB   C3A14455  22.120  17.520  21.240
  603BOLB   C4A14456  21.920  17.790  21.520
  603BOLB   C1B14457  22.740  16.800  20.830
  603BOLB   C2B14458  22.790  17.030  21.260
  603BOLB   C3B14459  22.650  17.390  21.460
  603BOLB   C4B14460  22.820  17.870  21.560
  603BOLB   NC214461  22.910  18.930  24.080
  603BOLB   PO214462  22.760  18.980  23.630
  603BOLB   GL314463  22.760  18.750  23.260
  603BOLB   GL414464  22.460  18.600  23.170
  603BOLB   C1C14465  22.680  18.710  22.710
  603BOLB   C2C14466  22.540  18.500  22.330
  603BOLB   C3C14467  22.260  18.230  22.300
  603BOLB   C4C14468  22.120  17.920  21.910
  603BOLB   C1D14469  22.140  18.350  22.830
  603BOLB   C2D14470  21.900  17.950  22.680
  603BOLB   C3D14471  21.680  17.910  22.350
  603BOLB   C4D14472  21.650  17.690  21.990
  604BOLB   NC114473  18.020  11.360  20.720
  604BOLB   PO114474  17.510  11.360  20.590
  604BOLB   GL114475  17.650  11.210  21.080
  604BOLB   GL214476  17.910  11.000  21.060
  604BOLB   C1A14477  17.660  11.220  21.560
  604BOLB   C2A14478  17.560  11.280  22.000
  604BOLB   C3A14479  17.370  11.210  22.340
  604BOLB   C4A14480  16.990  10.980  22.500
  604BOLB   C1B14481  17.870  10.800  21.440
  604BOLB   C2B14482  18.010  10.560  21.830
  604BOLB   C3B14483  17.820  10.420  22.140
  604BOLB   C4B14484  17.410  10.200  22.220
  604BOLB   NC214485  16.240  11.890  24.420
  604BOLB   PO214486  15.890  11.560  24.240
  604BOLB   GL314487  16.020  11.410  23.960
  604BOLB   GL414488  15.700  11.240  23.900
  604BOLB   C1C14489  16.340  11.580  23.700
  604BOLB   C2C14490  16.390  11.720  23.280
  604BOLB   C3C14491  16.590  11.360  23.000
  604BOLB   C4C14492  16.760  11.000  22.860
  604BOLB   C1D14493  16.070  11.120  23.520
  604BOLB   C2D14494  16.360  10.960  23.130
  604BOLB   C3D14495  16.430  10.570  23.040
  604BOLB   C4D14496  16.570  10.240  23.300
  605BOLB   NC114497  26.820  16.410  16.900
  605BOLB   PO114498  27.140  16.630  17.250
  605BOLB   GL114499  27.040  16.750  17.710
  605BOLB   GL214500  27.370  16.710  17.810
  605BOLB   C1A14501  27.120  16.860  18.280
  605BOLB   C2A14502  27.340  16.950  18.570
  605BOLB   C3A14503  27.410  17.270  18.810
  605BOLB   C4A14504  27.690  17.470  19.000
  605BOLB   C1B14505  27.720  16.800  18.030
  605BOLB   C2B14506  27.860  17.010  18.300
  605BOLB   C3B14507  27.960  17.070  18.730
  605BOLB   C4B14508  28.370  17.140  18.880
  605BOLB   NC214509  28.870  18.990  20.090
  605BOLB   PO214510  29.210  18.760  19.990
  605BOLB   GL314511  28.730  18.570  19.900
  605BOLB   GL414512  28.600  18.680  19.550
  605BOLB   C1C14513  28.640  18.150  19.770
  605BOLB   C2C14514  28.440  17.800  19.900
  605BOLB   C3C14515  28.130  17.620  19.810
  605BOLB   C4C14516  27.880  17.500  19.450
  605BOLB   C1D14517  28.210  18.420  19.430
  605BOLB   C2D14518  28.140  18.310  19.100
  605BOLB   C3D14519  28.160  18.180  18.630
  605BOLB   C4D14520  28.340  17.750  18.480
  606BOLB   NC114521  19.350  10.970  20.160
  606BOLB   PO114522  18.920  10.910  20.410
  606BOLB   GL114523  18.880  10.890  20.790
  606BOLB   GL214524  19.000  11.080  21.070
  606BOLB   C1A14525  18.780  10.620  21.210
  606BOLB   C2A14526  18.870  10.440  21.620
  606BOLB   C3A14527  18.880  10.200  22.020
  606BOLB   C4A14528  18.860  10.070  22.400
  606BOLB   C1B14529  19.030  10.920  21.520
  606BOLB   C2B14530  18.950  10.810  21.990
  606BOLB   C3B14531  18.830  10.610  22.390
  606BOLB   C4B14532  19.010  10.640  22.750
  606BOLB   NC214533  18.980  10.610  24.850
  606BOLB   PO214534  19.390  10.510  24.710
  606BOLB   GL314535  19.670  10.510  24.330
  606BOLB   GL414536  19.930  10.540  24.260
  606BOLB   C1C14537  19.590  10.430  23.850
  606BOLB   C2C14538  19.480  10.420  23.450
  606BOLB   C3C14539  19.170  10.340  23.140
  606BOLB   C4C14540  18.870  10.160  22.880
  606BOLB   C1D14541  20.030  10.680  23.870
  606BOLB   C2D14542  19.940  10.770  23.500
  606BOLB   C3D14543  20.040  10.920  23.060
  606BOLB   C4D14544  19.870  11.060  22.650
  607BOLB   NC114545  16.590  23.170  14.170
  607BOLB   PO114546  16.560  23.190  14.600
  607BOLB   GL114547  16.220  23.410  14.510
  607BOLB   GL214548  16.320  23.710  14.270
  607BOLB   C1A14549  16.030  23.820  14.720
  607BOLB   C2A14550  16.170  24.150  14.880
  607BOLB   C3A14551  16.410  24.410  15.150
  607BOLB   C4A14552  16.300  24.700  15.430
  607BOLB   C1B14553  16.500  24.120  14.420
  607BOLB   C2B14554  16.770  24.400  14.390
  607BOLB   C3B14555  16.670  24.900  14.490
  607BOLB   C4B14556  16.830  25.040  14.870
  607BOLB   NC214557  14.880  26.090  17.270
  607BOLB   PO214558  15.300  26.100  17.020
  607BOLB   GL314559  15.330  26.020  16.590
  607BOLB   GL414560  15.120  25.980  16.420
  607BOLB   C1C14561  15.670  25.740  16.450
  607BOLB   C2C14562  15.750  25.600  16.130
  607BOLB   C3C14563  16.030  25.190  16.020
  607BOLB   C4C14564  16.080  24.840  15.760
  607BOLB   C1D14565  15.190  25.600  16.170
  607BOLB   C2D14566  15.370  25.310  16.010
  607BOLB   C3D14567  15.240  24.900  16.110
  607BOLB   C4D14568  15.300  24.470  15.990
  608BOLB   NC114569  20.390  13.090  20.500
  608BOLB   PO114570  20.520  12.670  20.410
  608BOLB   GL114571  20.380  12.710  20.850
  608BOLB   GL214572  20.500  12.850  21.050
  608BOLB   C1A14573  20.220  12.440  21.200
  608BOLB   C2A14574  20.080  12.650  21.540
  608BOLB   C3A14575  19.970  12.660  21.980
  608BOLB   C4A14576  19.950  12.760  22.410
  608BOLB   C1B14577  20.520  12.840  21.480
  608BOLB   C2B14578  20.440  12.860  21.880
  608BOLB   C3B14579  20.440  12.740  22.310
  608BOLB   C4B14580  20.310  12.550  22.720
  608BOLB   NC214581  19.920  12.920  25.240
  608BOLB   PO214582  20.000  12.990  24.780
  608BOLB   GL314583  19.850  12.860  24.400
  608BOLB   GL414584  19.740  12.520  24.450
  608BOLB   C1C14585  19.810  12.900  23.960
  608BOLB   C2C14586  19.730  12.990  23.570
  608BOLB   C3C14587  19.560  13.080  23.080
  608BOLB   C4C14588  19.750  12.750  22.820
  608BOLB   C1D14589  19.500  12.530  24.120
  608BOLB   C2D14590  19.500  12.590  23.660
  608BOLB   C3D14591  19.710  12.610  23.250
  608BOLB   C4D14592  19.270  12.680  22.910
  609BOLB   NC114593  15.990  21.880  15.590
  609BOLB   PO114594  15.860  22.210  15.770
  609BOLB   GL114595  15.560  22.360  16.130
  609BOLB   GL214596  15.310  22.360  16.010
  609BOLB   C1A14597  15.440  22.720  16.340
  609BOLB   C2A14598  15.420  22.960  16.750
  609BOLB   C3A14599  15.420  23.290  16.990
  609BOLB   C4A14600  15.550  23.720  16.910
  609BOLB   C1B14601  14.990  22.710  15.940
  609BOLB   C2B14602  15.050  23.050  16.240
  609BOLB   C3B14603  15.450  23.200  16.050
  609BOLB   C4B14604  15.710  22.890  15.920
  609BOLB   NC214605  14.210  25.340  17.990
  609BOLB   PO214606  14.450  25.670  17.710
  609BOLB   GL314607  14.660  25.470  17.490
  609BOLB   GL414608  14.860  25.560  17.290
  609BOLB   C1C14609  14.780  25.020  17.300
  609BOLB   C2C14610  15.000  24.790  17.220
  609BOLB   C3C14611  15.370  24.550  17.060
  609BOLB   C4C14612  15.660  24.210  17.020
  609BOLB   C1D14613  14.810  25.310  16.900
  609BOLB   C2D14614  14.590  24.990  16.690
  609BOLB   C3D14615  14.770  24.620  16.390
  609BOLB   C4D14616  14.490  24.250  16.460
  610BOLB   NC114617  17.080  22.280  16.280
  610BOLB   PO114618  17.130  22.590  16.520
  610BOLB   GL114619  17.100  22.930  16.730
  610BOLB   GL214620  17.110  22.930  17.070
  610BOLB   C1A14621  17.220  23.400  16.810
  610BOLB   C2A14622  17.250  23.800  16.740
  610BOLB   C3A14623  17.100  24.250  16.670
  610BOLB   C4A14624  17.030  24.730  16.580
  610BOLB   C1B14625  16.650  22.940  16.980
  610BOLB   C2B14626  16.220  23.090  16.800
  610BOLB   C3B14627  15.870  23.210  16.900
  610BOLB   C4B14628  15.760  23.470  17.320
  610BOLB   NC214629  16.560  26.990  17.280
  610BOLB   PO214630  16.740  26.630  17.550
  610BOLB   GL314631  16.760  26.160  17.500
  610BOLB   GL414632  16.980  25.950  17.530
  610BOLB   C1C14633  16.700  25.950  17.080
  610BOLB   C2C14634  16.580  25.820  16.680
  610BOLB   C3C14635  16.740  25.510  16.380
  610BOLB   C4C14636  16.970  25.140  16.310
  610BOLB   C1D14637  17.070  25.600  17.550
  610BOLB   C2D14638  17.220  25.270  17.500
  610BOLB   C3D14639  17.410  24.760  17.540
  610BOLB   C4D14640  17.700  24.490  17.350
  611BOLB   NC114641  19.540  21.780  17.630
  611BOLB   PO114642  19.490  21.380  17.890
  611BOLB   GL114643  19.770  21.660  18.080
  611BOLB   GL214644  19.880  21.450  18.390
  611BOLB   C1A14645  19.920  21.940  18.300
  611BOLB   C2A14646  19.940  22.270  18.660
  611BOLB   C3A14647  20.160  22.440  19.060
  611BOLB   C4A14648  20.470  22.740  19.150
  611BOLB   C1B14649  19.590  21.580  18.570
  611BOLB   C2B14650  19.300  21.910  18.720
  611BOLB   C3B14651  19.080  22.230  18.730
  611BOLB   C4B14652  18.770  22.440  18.860
  611BOLB   NC214653  20.790  23.680  21.840
  611BOLB   PO214654  20.660  23.650  21.410
  611BOLB   GL314655  20.590  23.370  21.160
  611BOLB   GL414656  20.280  23.380  21.070
  611BOLB   C1C14657  20.530  23.080  20.760
  611BOLB   C2C14658  20.610  23.110  20.370
  611BOLB   C3C14659  20.620  23.020  19.900
  611BOLB   C4C14660  20.620  22.990  19.490
  611BOLB   C1D14661  20.090  22.940  20.900
  611BOLB   C2D14662  20.310  22.660  20.550
  611BOLB   C3D14663  20.450  22.600  20.150
  611BOLB   C4D14664  20.530  22.150  19.870
  612BOLB   NC114665  17.220  11.580  20.270
  612BOLB   PO114666  16.900  11.400  20.330
  612BOLB   GL114667  16.970  11.320  20.810
  612BOLB   GL214668  17.180  11.100  20.950
  612BOLB   C1A14669  16.800  11.260  21.230
  612BOLB   C2A14670  16.680  11.280  21.570
  612BOLB   C3A14671  16.780  11.170  22.010
  612BOLB   C4A14672  16.760  11.440  22.430
  612BOLB   C1B14673  17.270  10.940  21.290
  612BOLB   C2B14674  17.440  10.810  21.690
  612BOLB   C3B14675  17.500  10.790  22.100
  612BOLB   C4B14676  17.490  10.690  22.490
  612BOLB   NC214677  17.070  10.680  24.670
  612BOLB   PO214678  16.650  10.980  24.570
  612BOLB   GL314679  17.030  11.130  24.330
  612BOLB   GL414680  17.360  10.710  24.190
  612BOLB   C1C14681  17.260  11.250  23.980
  612BOLB   C2C14682  17.140  11.480  23.590
  612BOLB   C3C14683  17.230  11.420  23.190
  612BOLB   C4C14684  17.030  11.500  22.810
  612BOLB   C1D14685  17.010  10.800  23.910
  612BOLB   C2D14686  16.950  10.570  23.540
  612BOLB   C3D14687  16.920  10.570  23.140
  612BOLB   C4D14688  16.940  10.380  22.620
  613BOLB   NC114689  18.850  19.200  18.520
  613BOLB   PO114690  19.240  19.050  18.780
  613BOLB   GL114691  19.250  19.200  19.230
  613BOLB   GL214692  19.570  19.330  19.380
  613BOLB   C1A14693  19.150  19.100  19.650
  613BOLB   C2A14694  19.070  19.120  20.170
  613BOLB   C3A14695  19.060  19.270  20.640
  613BOLB   C4A14696  19.010  19.470  21.010
  613BOLB   C1B14697  19.600  19.480  19.710
  613BOLB   C2B14698  19.730  19.640  20.100
  613BOLB   C3B14699  19.830  19.750  20.490
  613BOLB   C4B14700  19.720  19.860  20.950
  613BOLB   NC214701  19.170  19.270  23.190
  613BOLB   PO214702  18.850  19.470  23.340
  613BOLB   GL314703  18.750  19.450  22.860
  613BOLB   GL414704  18.440  19.300  22.680
  613BOLB   C1C14705  19.020  19.310  22.580
  613BOLB   C2C14706  18.830  19.130  22.270
  613BOLB   C3C14707  18.770  19.230  21.880
  613BOLB   C4C14708  18.840  19.290  21.450
  613BOLB   C1D14709  18.000  19.260  22.550
  613BOLB   C2D14710  17.900  19.140  22.130
  613BOLB   C3D14711  17.760  19.150  21.750
  613BOLB   C4D14712  17.480  19.060  21.460
  614BOLB   NC114713  19.670   7.390  19.830
  614BOLB   PO114714  19.520   6.970  19.720
  614BOLB   GL114715  19.280   6.710  20.040
  614BOLB   GL214716  18.890   6.770  20.040
  614BOLB   C1A14717  19.110   6.730  20.470
  614BOLB   C2A14718  19.360   6.660  20.760
  614BOLB   C3A14719  19.790   6.420  20.860
  614BOLB   C4A14720  20.090   6.050  21.060
  614BOLB   C1B14721  19.060   6.350  20.150
  614BOLB   C2B14722  19.370   6.200  20.470
  614BOLB   C3B14723  19.340   6.090  20.850
  614BOLB   C4B14724  19.000   6.110  21.180
  614BOLB   NC214725  20.310   6.100  23.540
  614BOLB   PO214726  20.250   5.740  23.330
  614BOLB   GL314727  20.150   5.980  23.050
  614BOLB   GL414728  20.490   5.900  22.840
  614BOLB   C1C14729  19.970   6.040  22.660
  614BOLB   C2C14730  19.790   5.920  22.190
  614BOLB   C3C14731  19.850   6.010  21.760
  614BOLB   C4C14732  20.160   5.910  21.450
  614BOLB   C1D14733  20.530   6.310  22.580
  614BOLB   C2D14734  20.330   6.480  22.350
  614BOLB   C3D14735  19.960   6.410  22.160
  614BOLB   C4D14736  19.630   6.560  21.820
  615BOLB   NC114737  16.430  19.470   8.850
  615BOLB   PO114738  16.610  19.780   8.500
  615BOLB   GL114739  16.430  19.960   8.160
  615BOLB   GL214740  16.620  19.810   7.910
  615BOLB   C1A14741  16.220  20.100   7.730
  615BOLB   C2A14742  16.290  20.250   7.340
  615BOLB   C3A14743  16.610  20.380   7.110
  615BOLB   C4A14744  16.720  20.440   6.680
  615BOLB   C1B14745  16.730  20.210   7.580
  615BOLB   C2B14746  16.930  20.570   7.410
  615BOLB   C3B14747  17.030  20.700   6.970
  615BOLB   C4B14748  17.040  20.900   6.620
  615BOLB   NC214749  15.680  20.580   4.360
  615BOLB   PO214750  15.710  21.020   4.640
  615BOLB   GL314751  16.070  20.990   4.930
  615BOLB   GL414752  16.370  21.260   4.980
  615BOLB   C1C14753  16.440  20.790   5.190
  615BOLB   C2C14754  16.670  20.660   5.560
  615BOLB   C3C14755  16.870  20.540   5.890
  615BOLB   C4C14756  17.020  20.450   6.350
  615BOLB   C1D14757  16.390  21.250   5.350
  615BOLB   C2D14758  16.230  20.960   5.660
  615BOLB   C3D14759  16.340  20.690   6.080
  615BOLB   C4D14760  16.500  20.260   6.260
  616BOLB   NC114761  10.180  14.230  15.280
  616BOLB   PO114762   9.990  14.380  15.720
  616BOLB   GL114763   9.540  14.340  15.840
  616BOLB   GL214764   9.340  14.510  15.580
  616BOLB   C1A14765   9.280  14.300  16.210
  616BOLB   C2A14766   8.850  14.340  16.140
  616BOLB   C3A14767   8.390  14.330  15.920
  616BOLB   C4A14768   8.030  14.190  15.800
  616BOLB   C1B14769   8.920  14.310  15.660
  616BOLB   C2B14770   8.580  14.420  15.360
  616BOLB   C3B14771   8.130  14.320  15.220
  616BOLB   C4B14772   7.700  14.320  15.210
  616BOLB   NC214773   5.990  14.580  16.060
  616BOLB   PO214774   5.670  14.880  15.820
  616BOLB   GL314775   6.130  15.030  15.910
  616BOLB   GL414776   6.280  15.280  16.030
  616BOLB   C1C14777   6.580  14.920  15.740
  616BOLB   C2C14778   6.880  14.730  15.360
  616BOLB   C3C14779   7.290  14.440  15.420
  616BOLB   C4C14780   7.700  14.460  15.720
  616BOLB   C1D14781   6.690  15.100  16.220
  616BOLB   C2D14782   7.120  15.030  16.180
  616BOLB   C3D14783   7.480  14.920  16.030
  616BOLB   C4D14784   7.880  15.060  15.720
  617BOLB   NC114785  11.310  11.840  12.210
  617BOLB   PO114786  10.980  12.070  12.300
  617BOLB   GL114787  10.840  11.730  12.120
  617BOLB   GL214788  10.850  11.450  12.230
  617BOLB   C1A14789  10.400  11.660  12.240
  617BOLB   C2A14790  10.110  11.380  12.110
  617BOLB   C3A14791   9.840  11.060  11.910
  617BOLB   C4A14792   9.710  10.680  11.720
  617BOLB   C1B14793  10.610  11.240  12.030
  617BOLB   C2B14794  10.380  10.840  11.940
  617BOLB   C3B14795  10.260  10.700  11.600
  617BOLB   C4B14796  10.330  10.600  11.200
  617BOLB   NC214797   8.500   8.870  10.760
  617BOLB   PO214798   8.230   9.120  10.910
  617BOLB   GL314799   8.390   9.470  11.180
  617BOLB   GL414800   8.550   9.450  11.490
  617BOLB   C1C14801   8.440   9.940  11.340
  617BOLB   C2C14802   8.820  10.100  11.420
  617BOLB   C3C14803   9.250  10.140  11.430
  617BOLB   C4C14804   9.570  10.240  11.640
  617BOLB   C1D14805   8.860   9.710  11.730
  617BOLB   C2D14806   9.180  10.000  11.870
  617BOLB   C3D14807   9.360  10.090  12.140
  617BOLB   C4D14808   9.510  10.250  12.550
  618BOLB   NC114809  18.100  10.330  19.670
  618BOLB   PO114810  18.230  10.290  20.160
  618BOLB   GL114811  18.160  10.270  20.710
  618BOLB   GL214812  18.070   9.970  20.900
  618BOLB   C1A14813  18.160  10.380  21.220
  618BOLB   C2A14814  18.290  10.210  21.610
  618BOLB   C3A14815  18.280  10.030  21.940
  618BOLB   C4A14816  18.390   9.980  22.350
  618BOLB   C1B14817  18.090   9.880  21.330
  618BOLB   C2B14818  18.170   9.630  21.560
  618BOLB   C3B14819  18.070   9.150  21.790
  618BOLB   C4B14820  18.120   8.970  22.150
  618BOLB   NC214821  17.290   9.960  24.650
  618BOLB   PO214822  17.800   9.970  24.650
  618BOLB   GL314823  17.710   9.870  24.290
  618BOLB   GL414824  17.960  10.170  24.170
  618BOLB   C1C14825  17.560   9.800  23.840
  618BOLB   C2C14826  17.630   9.880  23.410
  618BOLB   C3C14827  17.940   9.890  23.070
  618BOLB   C4C14828  18.300   9.820  22.760
  618BOLB   C1D14829  17.930  10.520  23.940
  618BOLB   C2D14830  17.640  10.930  23.750
  618BOLB   C3D14831  17.270  10.930  23.490
  618BOLB   C4D14832  16.860  11.060  23.360
  619BOLB   NC114833  13.230  19.350  17.510
  619BOLB   PO114834  13.700  19.190  17.680
  619BOLB   GL114835  13.600  19.560  17.950
  619BOLB   GL214836  13.520  19.490  18.290
  619BOLB   C1A14837  13.330  19.910  18.110
  619BOLB   C2A14838  13.320  20.270  18.380
  619BOLB   C3A14839  13.050  20.600  18.640
  619BOLB   C4A14840  12.800  21.030  18.780
  619BOLB   C1B14841  13.310  19.760  18.540
  619BOLB   C2B14842  13.030  19.860  18.860
  619BOLB   C3B14843  12.840  20.220  19.000
  619BOLB   C4B14844  12.690  20.620  19.130
  619BOLB   NC214845  11.150  22.820  18.390
  619BOLB   PO214846  11.480  22.960  18.650
  619BOLB   GL314847  11.930  22.930  18.720
  619BOLB   GL414848  11.930  22.980  18.420
  619BOLB   C1C14849  12.070  22.510  18.700
  619BOLB   C2C14850  12.450  22.250  18.700
  619BOLB   C3C14851  12.660  21.920  18.930
  619BOLB   C4C14852  12.690  21.470  18.830
  619BOLB   C1D14853  12.040  22.510  18.210
  619BOLB   C2D14854  12.260  22.130  18.030
  619BOLB   C3D14855  12.540  21.870  17.910
  619BOLB   C4D14856  12.580  21.450  17.540
  620BOLB   NC114857  23.980  15.140  19.600
  620BOLB   PO114858  23.830  15.010  20.060
  620BOLB   GL114859  23.650  14.930  20.500
  620BOLB   GL214860  23.470  15.290  20.590
  620BOLB   C1A14861  23.460  14.890  20.860
  620BOLB   C2A14862  23.580  14.780  21.250
  620BOLB   C3A14863  23.880  14.620  21.670
  620BOLB   C4A14864  24.070  14.790  22.010
  620BOLB   C1B14865  23.610  15.310  21.090
  620BOLB   C2B14866  23.710  15.350  21.550
  620BOLB   C3B14867  24.140  15.160  21.610
  620BOLB   C4B14868  24.570  15.050  21.880
  620BOLB   NC214869  24.440  16.040  24.480
  620BOLB   PO214870  24.090  15.840  24.330
  620BOLB   GL314871  24.030  15.680  23.880
  620BOLB   GL414872  23.770  15.400  23.910
  620BOLB   C1C14873  24.020  15.780  23.410
  620BOLB   C2C14874  24.260  15.620  22.930
  620BOLB   C3C14875  24.240  15.330  22.640
  620BOLB   C4C14876  24.170  15.100  22.350
  620BOLB   C1D14877  23.770  15.340  23.400
  620BOLB   C2D14878  23.770  15.380  22.940
  620BOLB   C3D14879  23.720  15.400  22.520
  620BOLB   C4D14880  23.680  15.610  22.120
  621BOLB   NC114881  26.470   8.600  12.480
  621BOLB   PO114882  26.580   8.240  12.450
  621BOLB   GL114883  26.700   7.880  12.510
  621BOLB   GL214884  26.400   7.750  12.330
  621BOLB   C1A14885  27.050   7.560  12.400
  621BOLB   C2A14886  27.360   7.230  12.200
  621BOLB   C3A14887  27.650   7.150  11.930
  621BOLB   C4A14888  28.040   7.190  11.910
  621BOLB   C1B14889  26.650   7.440  12.170
  621BOLB   C2B14890  26.880   7.050  12.180
  621BOLB   C3B14891  27.240   6.760  12.040
  621BOLB   C4B14892  27.300   6.410  12.080
  621BOLB   NC214893  28.820   4.980  11.530
  621BOLB   PO214894  28.660   5.250  11.870
  621BOLB   GL314895  28.990   5.430  12.160
  621BOLB   GL414896  28.780   5.560  12.310
  621BOLB   C1C14897  29.220   5.800  12.260
  621BOLB   C2C14898  29.140   6.230  11.980
  621BOLB   C3C14899  28.790   6.570  12.050
  621BOLB   C4C14900  28.460   6.880  12.030
  621BOLB   C1D14901  28.780   6.020  12.530
  621BOLB   C2D14902  28.540   6.360  12.600
  621BOLB   C3D14903  28.320   6.740  12.580
  621BOLB   C4D14904  28.200   7.050  12.760
  622BOLB   NC114905  22.890  17.080  19.400
  622BOLB   PO114906  22.730  16.670  19.500
  622BOLB   GL114907  22.730  16.990  19.890
  622BOLB   GL214908  23.040  17.160  19.880
  622BOLB   C1A14909  22.720  17.220  20.200
  622BOLB   C2A14910  23.040  17.210  20.540
  622BOLB   C3A14911  23.110  17.240  20.980
  622BOLB   C4A14912  23.290  17.520  21.280
  622BOLB   C1B14913  23.400  17.160  20.140
  622BOLB   C2B14914  23.460  17.520  20.470
  622BOLB   C3B14915  23.440  17.700  20.840
  622BOLB   C4B14916  23.480  18.020  21.090
  622BOLB   NC214917  24.440  18.890  23.420
  622BOLB   PO214918  24.020  18.880  23.240
  622BOLB   GL314919  24.260  18.920  22.790
  622BOLB   GL414920  24.280  19.250  22.590
  622BOLB   C1C14921  24.220  18.670  22.320
  622BOLB   C2C14922  24.060  18.310  22.130
  622BOLB   C3C14923  23.700  18.130  21.810
  622BOLB   C4C14924  23.480  17.820  21.560
  622BOLB   C1D14925  24.200  19.190  22.300
  622BOLB   C2D14926  24.120  18.930  21.900
  622BOLB   C3D14927  24.390  18.930  21.560
  622BOLB   C4D14928  24.600  19.150  21.360
  623BOLB   NC114929  27.070  10.600  18.380
  623BOLB   PO114930  27.380  10.880  18.170
  623BOLB   GL114931  27.690  11.080  18.200
  623BOLB   GL214932  27.930  11.180  18.000
  623BOLB   C1A14933  28.070  11.070  18.480
  623BOLB   C2A14934  28.520  10.850  18.480
  623BOLB   C3A14935  28.890  10.600  18.620
  623BOLB   C4A14936  29.300  10.800  18.720
  623BOLB   C1B14937  28.050  10.730  18.140
  623BOLB   C2B14938  28.510  10.390  18.130
  623BOLB   C3B14939  28.750  10.190  18.360
  623BOLB   C4B14940  28.960   9.970  18.750
  623BOLB   NC214941  31.380  10.510  19.410
  623BOLB   PO214942  31.330  10.190  19.070
  623BOLB   GL314943  30.790  10.150  19.150
  623BOLB   GL414944  30.520  10.040  19.080
  623BOLB   C1C14945  30.510  10.450  19.380
  623BOLB   C2C14946  30.210  10.760  19.480
  623BOLB   C3C14947  29.960  10.970  19.240
  623BOLB   C4C14948  29.590  10.790  19.050
  623BOLB   C1D14949  30.610  10.460  18.770
  623BOLB   C2D14950  30.700  10.430  18.280
  623BOLB   C3D14951  30.780  10.450  17.750
  623BOLB   C4D14952  30.620  10.720  17.520
  624BOLB   NC114953  18.280  23.510  14.080
  624BOLB   PO114954  18.440  23.910  13.870
  624BOLB   GL114955  18.730  24.110  13.980
  624BOLB   GL214956  18.920  24.170  13.690
  624BOLB   C1A14957  18.480  24.450  14.280
  624BOLB   C2A14958  18.230  24.700  14.480
  624BOLB   C3A14959  17.970  25.020  14.600
  624BOLB   C4A14960  17.760  25.450  14.400
  624BOLB   C1B14961  18.660  24.570  13.660
  624BOLB   C2B14962  18.540  25.030  13.790
  624BOLB   C3B14963  18.460  25.460  13.650
  624BOLB   C4B14964  18.390  25.740  13.400
  624BOLB   NC214965  17.730  27.670  14.880
  624BOLB   PO214966  18.020  27.640  14.620
  624BOLB   GL314967  18.350  27.300  14.600
  624BOLB   GL414968  18.090  27.180  14.400
  624BOLB   C1C14969  18.380  26.840  14.520
  624BOLB   C2C14970  18.290  26.450  14.510
  624BOLB   C3C14971  17.950  26.210  14.550
  624BOLB   C4C14972  17.780  25.870  14.280
  624BOLB   C1D14973  17.890  26.850  14.400
  624BOLB   C2D14974  17.900  26.540  14.190
  624BOLB   C3D14975  18.250  26.220  14.010
  624BOLB   C4D14976  18.540  26.000  13.830
  625BOLB   NC114977  11.190  12.210  16.820
  625BOLB   PO114978  11.170  12.540  16.540
  625BOLB   GL114979  10.850  12.600  16.870
  625BOLB   GL214980  10.480  12.620  16.690
  625BOLB   C1A14981  10.670  12.300  17.110
  625BOLB   C2A14982  10.270  12.030  17.200
  625BOLB   C3A14983  10.190  11.660  17.400
  625BOLB   C4A14984   9.840  11.510  17.630
  625BOLB   C1B14985  10.180  12.390  16.800
  625BOLB   C2B14986   9.840  12.280  17.160
  625BOLB   C3B14987   9.830  12.020  17.430
  625BOLB   C4B14988   9.720  12.000  17.890
  625BOLB   NC214989   8.120  10.790  18.990
  625BOLB   PO214990   8.150  11.020  19.320
  625BOLB   GL314991   8.390  11.260  18.960
  625BOLB   GL414992   8.140  11.290  18.810
  625BOLB   C1C14993   8.690  11.530  18.780
  625BOLB   C2C14994   8.930  11.400  18.440
  625BOLB   C3C14995   9.240  11.280  18.190
  625BOLB   C4C14996   9.530  11.490  17.900
  625BOLB   C1D14997   8.270  11.330  18.320
  625BOLB   C2D14998   8.650  11.180  18.070
  625BOLB   C3D14999   8.940  10.880  18.270
  625BOLB   C4D15000   9.180  10.570  18.510
  626BOLB   NC115001  20.900  23.470  13.990
  626BOLB   PO115002  20.730  23.390  14.380
  626BOLB   GL115003  20.600  23.780  14.610
  626BOLB   GL215004  20.850  23.800  14.840
  626BOLB   C1A15005  20.570  24.220  14.660
  626BOLB   C2A15006  20.720  24.530  14.470
  626BOLB   C3A15007  20.840  25.000  14.440
  626BOLB   C4A15008  20.830  25.400  14.280
  626BOLB   C1B15009  20.770  24.040  15.110
  626BOLB   C2B15010  20.950  24.470  15.270
  626BOLB   C3B15011  21.340  24.670  15.580
  626BOLB   C4B15012  21.650  24.840  15.880
  626BOLB   NC215013  20.590  27.840  15.560
  626BOLB   PO215014  20.950  27.520  15.510
  626BOLB   GL315015  20.800  27.060  15.410
  626BOLB   GL415016  20.910  27.070  15.100
  626BOLB   C1C15017  20.490  26.620  15.230
  626BOLB   C2C15018  20.700  26.210  15.210
  626BOLB   C3C15019  20.940  25.830  15.090
  626BOLB   C4C15020  20.970  25.690  14.610
  626BOLB   C1D15021  20.560  27.020  14.790
  626BOLB   C2D15022  20.410  27.150  14.340
  626BOLB   C3D15023  20.350  27.460  14.050
  626BOLB   C4D15024  20.580  27.660  13.700
  627BOLB   NC115025  17.290   9.960  19.790
  627BOLB   PO115026  17.100   9.560  19.940
  627BOLB   GL115027  17.230   9.210  20.150
  627BOLB   GL215028  17.230   8.850  20.180
  627BOLB   C1A15029  17.410   9.130  20.580
  627BOLB   C2A15030  17.290   8.960  20.970
  627BOLB   C3A15031  17.170   8.670  21.280
  627BOLB   C4A15032  17.110   8.230  21.540
  627BOLB   C1B15033  16.920   8.630  20.400
  627BOLB   C2B15034  16.880   8.550  20.810
  627BOLB   C3B15035  16.700   8.370  21.240
  627BOLB   C4B15036  16.650   8.030  21.600
  627BOLB   NC215037  17.630   8.460  24.080
  627BOLB   PO215038  17.130   8.270  23.970
  627BOLB   GL315039  17.340   8.040  23.590
  627BOLB   GL415040  17.600   8.290  23.530
  627BOLB   C1C15041  17.390   7.990  23.160
  627BOLB   C2C15042  17.490   7.990  22.780
  627BOLB   C3C15043  17.550   8.050  22.360
  627BOLB   C4C15044  17.410   8.000  21.930
  627BOLB   C1D15045  17.300   8.490  23.290
  627BOLB   C2D15046  17.130   8.360  22.900
  627BOLB   C3D15047  17.240   8.450  22.390
  627BOLB   C4D15048  17.260   8.590  21.940
  628BOLB   NC115049  21.910  16.690  19.770
  628BOLB   PO115050  21.720  16.800  20.140
  628BOLB   GL115051  21.910  17.020  20.420
  628BOLB   GL215052  22.010  16.740  20.570
  628BOLB   C1A15053  21.870  17.200  20.820
  628BOLB   C2A15054  21.750  17.710  20.880
  628BOLB   C3A15055  21.510  18.160  20.990
  628BOLB   C4A15056  21.310  18.540  21.010
  628BOLB   C1B15057  22.120  16.750  20.890
  628BOLB   C2B15058  22.250  16.610  21.240
  628BOLB   C3B15059  22.450  16.400  21.600
  628BOLB   C4B15060  22.660  16.390  21.970
  628BOLB   NC215061  21.570  20.330  22.870
  628BOLB   PO215062  21.350  19.970  23.060
  628BOLB   GL315063  21.570  19.740  22.780
  628BOLB   GL415064  21.620  19.950  22.480
  628BOLB   C1C15065  21.600  19.440  22.400
  628BOLB   C2C15066  21.550  19.070  22.080
  628BOLB   C3C15067  21.380  18.850  21.730
  628BOLB   C4C15068  21.290  18.810  21.310
  628BOLB   C1D15069  22.000  19.920  22.220
  628BOLB   C2D15070  22.320  19.700  22.130
  628BOLB   C3D15071  22.470  19.270  21.840
  628BOLB   C4D15072  22.430  18.840  21.780
  629BOLB   NC115073  20.540  25.100   5.540
  629BOLB   PO115074  20.590  24.570   5.560
  629BOLB   GL115075  20.780  24.180   5.740
  629BOLB   GL215076  20.860  23.900   5.590
  629BOLB   C1A15077  20.460  23.920   5.880
  629BOLB   C2A15078  20.420  23.530   6.280
  629BOLB   C3A15079  20.370  23.380   6.590
  629BOLB   C4A15080  20.430  23.070   6.720
  629BOLB   C1B15081  20.880  23.630   5.930
  629BOLB   C2B15082  20.650  23.270   5.950
  629BOLB   C3B15083  20.340  22.970   6.260
  629BOLB   C4B15084  20.060  22.760   6.420
  629BOLB   NC215085  22.690  23.480   5.100
  629BOLB   PO215086  22.420  23.240   5.490
  629BOLB   GL315087  22.020  22.990   5.640
  629BOLB   GL415088  22.240  22.810   5.910
  629BOLB   C1C15089  21.810  22.550   5.990
  629BOLB   C2C15090  21.510  22.340   6.190
  629BOLB   C3C15091  21.090  22.470   6.410
  629BOLB   C4C15092  20.610  22.650   6.620
  629BOLB   C1D15093  22.040  22.940   6.210
  629BOLB   C2D15094  21.930  22.570   6.490
  629BOLB   C3D15095  21.780  22.160   6.650
  629BOLB   C4D15096  21.680  21.740   6.850
  630BOLB   NC115097  21.690  18.110  19.550
  630BOLB   PO115098  22.090  17.770  19.700
  630BOLB   GL115099  22.350  17.980  20.010
  630BOLB   GL215100  22.010  17.930  20.170
  630BOLB   C1A15101  22.520  17.970  20.410
  630BOLB   C2A15102  22.700  18.210  20.700
  630BOLB   C3A15103  22.930  18.420  21.050
  630BOLB   C4A15104  23.160  18.300  21.370
  630BOLB   C1B15105  22.020  18.070  20.590
  630BOLB   C2B15106  22.150  18.000  21.080
  630BOLB   C3B15107  22.350  18.140  21.580
  630BOLB   C4B15108  22.620  18.190  21.950
  630BOLB   NC215109  24.040  17.860  23.630
  630BOLB   PO215110  23.680  18.040  23.380
  630BOLB   GL315111  23.560  18.030  23.020
  630BOLB   GL415112  23.750  17.830  22.950
  630BOLB   C1C15113  23.350  17.990  22.650
  630BOLB   C2C15114  23.120  17.760  22.400
  630BOLB   C3C15115  23.040  17.830  22.030
  630BOLB   C4C15116  23.150  18.170  21.760
  630BOLB   C1D15117  23.380  17.520  22.770
  630BOLB   C2D15118  23.210  17.260  22.330
  630BOLB   C3D15119  22.850  17.310  22.100
  630BOLB   C4D15120  22.560  17.580  21.880
  631BOLB   NC115121  10.220  15.440  13.620
  631BOLB   PO115122   9.900  15.270  13.750
  631BOLB   GL115123   9.450  15.290  13.650
  631BOLB   GL215124   9.360  15.610  13.620
  631BOLB   C1A15125   8.970  15.270  13.630
  631BOLB   C2A15126   8.520  15.190  13.710
  631BOLB   C3A15127   8.060  15.310  13.920
  631BOLB   C4A15128   7.800  15.070  14.320
  631BOLB   C1B15129   9.030  15.720  13.190
  631BOLB   C2B15130   8.730  15.490  13.050
  631BOLB   C3B15131   8.490  15.660  12.720
  631BOLB   C4B15132   8.130  15.560  12.700
  631BOLB   NC215133   5.660  16.110  13.890
  631BOLB   PO215134   5.920  15.780  14.060
  631BOLB   GL315135   6.220  15.660  14.220
  631BOLB   GL415136   6.450  15.700  14.130
  631BOLB   C1C15137   6.370  15.200  14.210
  631BOLB   C2C15138   6.820  15.040  14.360
  631BOLB   C3C15139   7.160  14.970  14.560
  631BOLB   C4C15140   7.540  14.950  14.470
  631BOLB   C1D15141   6.520  15.740  13.780
  631BOLB   C2D15142   6.990  15.710  13.610
  631BOLB   C3D15143   7.320  15.500  13.780
  631BOLB   C4D15144   7.340  15.120  14.040
  632BOLB   NC115145  24.970   7.910  12.640
  632BOLB   PO115146  25.320   7.540  12.440
  632BOLB   GL115147  25.570   7.190  12.570
  632BOLB   GL215148  25.960   7.230  12.690
  632BOLB   C1A15149  25.790   6.780  12.450
  632BOLB   C2A15150  26.070   6.520  12.230
  632BOLB   C3A15151  26.430   6.330  12.130
  632BOLB   C4A15152  26.630   6.140  12.440
  632BOLB   C1B15153  26.440   7.180  12.570
  632BOLB   C2B15154  26.860   7.140  12.730
  632BOLB   C3B15155  27.220   6.940  12.710
  632BOLB   C4B15156  27.710   6.900  12.790
  632BOLB   NC215157  27.950   4.050  11.880
  632BOLB   PO215158  27.610   4.330  11.790
  632BOLB   GL315159  27.480   4.600  12.130
  632BOLB   GL415160  27.560   4.860  12.210
  632BOLB   C1C15161  27.130   4.620  12.360
  632BOLB   C2C15162  27.190   5.070  12.510
  632BOLB   C3C15163  26.950   5.430  12.730
  632BOLB   C4C15164  26.780   5.750  12.540
  632BOLB   C1D15165  27.160   5.020  11.950
  632BOLB   C2D15166  27.120   5.270  11.580
  632BOLB   C3D15167  27.140   5.330  11.170
  632BOLB   C4D15168  26.940   5.020  10.950
  633BOLB   NC115169  13.140  21.910  13.840
  633BOLB   PO115170  13.450  22.060  14.090
  633BOLB   GL115171  13.320  22.150  14.530
  633BOLB   GL215172  13.500  22.040  14.830
  633BOLB   C1A15173  12.980  22.150  14.870
  633BOLB   C2A15174  12.750  22.460  14.980
  633BOLB   C3A15175  12.420  22.520  15.040
  633BOLB   C4A15176  12.130  22.720  14.880
  633BOLB   C1B15177  13.580  22.250  15.250
  633BOLB   C2B15178  13.520  22.550  15.550
  633BOLB   C3B15179  13.330  22.780  15.970
  633BOLB   C4B15180  13.460  22.910  16.460
  633BOLB   NC215181  11.960  24.960  15.040
  633BOLB   PO215182  11.550  25.070  14.960
  633BOLB   GL315183  11.740  24.720  14.640
  633BOLB   GL415184  12.070  24.850  14.580
  633BOLB   C1C15185  11.690  24.250  14.520
  633BOLB   C2C15186  11.860  23.880  14.800
  633BOLB   C3C15187  12.110  23.500  14.830
  633BOLB   C4C15188  12.100  23.140  14.900
  633BOLB   C1D15189  12.150  24.380  14.700
  633BOLB   C2D15190  12.320  23.990  14.810
  633BOLB   C3D15191  12.700  23.680  14.960
  633BOLB   C4D15192  13.170  23.770  14.950
  634BOLB   NC115193  20.000  15.570  20.290
  634BOLB   PO115194  20.090  15.930  20.010
  634BOLB   GL115195  20.020  16.100  20.380
  634BOLB   GL215196  20.290  16.040  20.500
  634BOLB   C1A15197  19.740  16.190  20.750
  634BOLB   C2A15198  19.830  16.400  21.110
  634BOLB   C3A15199  19.750  16.520  21.500
  634BOLB   C4A15200  19.530  16.830  21.760
  634BOLB   C1B15201  20.480  16.090  20.840
  634BOLB   C2B15202  20.540  15.960  21.290
  634BOLB   C3B15203  20.460  15.920  21.720
  634BOLB   C4B15204  20.360  16.230  22.010
  634BOLB   NC215205  19.930  17.680  23.840
  634BOLB   PO215206  19.530  17.650  24.020
  634BOLB   GL315207  19.250  17.550  23.680
  634BOLB   GL415208  19.170  17.830  23.560
  634BOLB   C1C15209  19.300  17.430  23.180
  634BOLB   C2C15210  19.420  17.100  22.920
  634BOLB   C3C15211  19.540  16.930  22.470
  634BOLB   C4C15212  19.660  16.970  22.190
  634BOLB   C1D15213  19.560  17.840  23.270
  634BOLB   C2D15214  19.680  17.940  22.830
  634BOLB   C3D15215  19.790  18.010  22.500
  634BOLB   C4D15216  20.030  18.280  22.370
  635BOLB   NC115217  18.790  14.820  20.330
  635BOLB   PO115218  18.490  15.150  20.360
  635BOLB   GL115219  18.490  15.040  20.840
  635BOLB   GL215220  18.710  15.200  21.110
  635BOLB   C1A15221  18.260  15.360  21.060
  635BOLB   C2A15222  17.970  15.460  21.350
  635BOLB   C3A15223  18.030  15.680  21.820
  635BOLB   C4A15224  18.180  15.950  21.990
  635BOLB   C1B15225  18.890  15.270  21.580
  635BOLB   C2B15226  18.860  15.540  22.020
  635BOLB   C3B15227  18.530  15.720  22.300
  635BOLB   C4B15228  18.280  15.560  22.530
  635BOLB   NC215229  18.860  16.750  24.510
  635BOLB   PO215230  18.690  16.990  24.090
  635BOLB   GL315231  18.530  16.750  23.760
  635BOLB   GL415232  18.590  16.380  23.730
  635BOLB   C1C15233  18.480  16.700  23.300
  635BOLB   C2C15234  18.450  16.630  22.850
  635BOLB   C3C15235  18.650  16.450  22.470
  635BOLB   C4C15236  18.530  16.190  22.150
  635BOLB   C1D15237  18.860  16.320  23.330
  635BOLB   C2D15238  19.000  16.340  22.910
  635BOLB   C3D15239  19.060  16.070  22.440
  635BOLB   C4D15240  19.040  16.080  21.940
  636BOLB   NC115241  26.970  17.300  14.020
  636BOLB   PO115242  27.290  17.560  13.860
  636BOLB   GL115243  27.780  17.590  13.780
  636BOLB   GL215244  27.960  17.880  13.730
  636BOLB   C1A15245  28.200  17.430  13.910
  636BOLB   C2A15246  28.690  17.540  13.980
  636BOLB   C3A15247  29.030  17.660  13.820
  636BOLB   C4A15248  29.450  17.590  13.940
  636BOLB   C1B15249  28.160  17.920  13.430
  636BOLB   C2B15250  28.610  17.890  13.620
  636BOLB   C3B15251  28.970  18.060  13.500
  636BOLB   C4B15252  29.270  18.110  13.300
  636BOLB   NC215253  31.710  18.430  14.710
  636BOLB   PO215254  31.570  18.690  14.390
  636BOLB   GL315255  31.170  18.580  14.460
  636BOLB   GL415256  31.210  18.400  14.690
  636BOLB   C1C15257  30.760  18.390  14.420
  636BOLB   C2C15258  30.350  18.310  14.300
  636BOLB   C3C15259  30.200  18.000  14.090
  636BOLB   C4C15260  29.740  17.800  14.080
  636BOLB   C1D15261  31.130  18.000  14.560
  636BOLB   C2D15262  30.820  17.910  14.230
  636BOLB   C3D15263  30.640  17.670  14.090
  636BOLB   C4D15264  30.300  17.390  14.180
  637BOLB   NC115265  14.290  11.260  19.030
  637BOLB   PO115266  14.380  11.660  19.300
  637BOLB   GL115267  14.130  11.510  19.630
  637BOLB   GL215268  14.050  11.190  19.460
  637BOLB   C1A15269  14.180  11.400  20.120
  637BOLB   C2A15270  14.060  11.420  20.480
  637BOLB   C3A15271  14.140  11.250  20.870
  637BOLB   C4A15272  14.400  11.010  21.220
  637BOLB   C1B15273  13.920  11.020  20.020
  637BOLB   C2B15274  13.650  11.120  20.310
  637BOLB   C3B15275  13.310  11.140  20.630
  637BOLB   C4B15276  13.080  11.470  20.670
  637BOLB   NC215277  14.300  10.310  23.530
  637BOLB   PO215278  13.920  10.130  23.530
  637BOLB   GL315279  14.100  10.240  23.090
  637BOLB   GL415280  14.120  10.110  22.720
  637BOLB   C1C15281  14.450  10.440  22.840
  637BOLB   C2C15282  14.690  10.520  22.350
  637BOLB   C3C15283  14.770  10.540  21.850
  637BOLB   C4C15284  14.700  10.810  21.410
  637BOLB   C1D15285  14.500  10.020  22.550
  637BOLB   C2D15286  14.600   9.550  22.380
  637BOLB   C3D15287  14.590   9.240  22.150
  637BOLB   C4D15288  14.380   8.790  22.120
  638BOLB   NC115289  27.180  13.710  17.780
  638BOLB   PO115290  26.910  14.040  17.790
  638BOLB   GL115291  27.310  14.150  18.030
  638BOLB   GL215292  27.470  13.840  18.170
  638BOLB   C1A15293  27.580  14.300  18.210
  638BOLB   C2A15294  27.750  14.700  18.350
  638BOLB   C3A15295  28.130  14.950  18.250
  638BOLB   C4A15296  28.320  15.280  18.530
  638BOLB   C1B15297  27.800  13.890  18.420
  638BOLB   C2B15298  27.960  13.940  18.690
  638BOLB   C3B15299  27.960  14.000  19.130
  638BOLB   C4B15300  28.070  14.230  19.420
  638BOLB   NC215301  30.050  16.460  20.000
  638BOLB   PO215302  30.230  16.180  19.630
  638BOLB   GL315303  29.880  16.300  19.380
  638BOLB   GL415304  29.720  16.540  19.620
  638BOLB   C1C15305  29.540  16.230  19.280
  638BOLB   C2C15306  29.300  15.970  19.030
  638BOLB   C3C15307  28.780  15.950  18.870
  638BOLB   C4C15308  28.590  15.560  18.600
  638BOLB   C1D15309  29.260  16.600  19.440
  638BOLB   C2D15310  29.000  16.280  19.250
  638BOLB   C3D15311  28.540  16.290  19.130
  638BOLB   C4D15312  28.290  16.090  18.900
  639BOLB   NC115313  12.140  14.160  18.060
  639BOLB   PO115314  12.420  14.480  18.210
  639BOLB   GL115315  12.110  14.510  18.470
  639BOLB   GL215316  11.980  14.210  18.520
  639BOLB   C1A15317  11.920  14.790  18.760
  639BOLB   C2A15318  12.060  15.000  19.050
  639BOLB   C3A15319  11.820  15.190  19.370
  639BOLB   C4A15320  11.360  15.060  19.440
  639BOLB   C1B15321  11.670  14.390  18.610
  639BOLB   C2B15322  11.190  14.450  18.670
  639BOLB   C3B15323  11.150  14.340  19.020
  639BOLB   C4B15324  11.160  14.220  19.440
  639BOLB   NC215325   9.790  14.180  20.830
  639BOLB   PO215326   9.500  14.380  20.550
  639BOLB   GL315327   9.820  14.410  20.360
  639BOLB   GL415328  10.000  14.730  20.370
  639BOLB   C1C15329  10.100  14.190  20.100
  639BOLB   C2C15330  10.350  14.160  19.860
  639BOLB   C3C15331  10.730  14.470  19.700
  639BOLB   C4C15332  11.070  14.800  19.560
  639BOLB   C1D15333   9.880  15.000  20.130
  639BOLB   C2D15334   9.770  14.960  19.620
  639BOLB   C3D15335   9.560  14.720  19.310
  639BOLB   C4D15336   9.260  14.410  19.200
  640BOLB   NC115337  21.900   8.650  20.380
  640BOLB   PO115338  21.510   8.490  20.280
  640BOLB   GL115339  21.260   8.250  20.580
  640BOLB   GL215340  21.010   8.240  20.610
  640BOLB   C1A15341  21.340   7.940  20.950
  640BOLB   C2A15342  21.390   7.860  21.470
  640BOLB   C3A15343  21.560   7.620  21.780
  640BOLB   C4A15344  21.950   7.790  21.960
  640BOLB   C1B15345  20.770   8.080  20.900
  640BOLB   C2B15346  20.820   8.070  21.330
  640BOLB   C3B15347  20.390   8.060  21.380
  640BOLB   C4B15348  20.100   7.720  21.250
  640BOLB   NC215349  23.210   8.080  23.920
  640BOLB   PO215350  23.320   7.730  23.740
  640BOLB   GL315351  23.220   7.850  23.360
  640BOLB   GL415352  23.380   8.060  23.140
  640BOLB   C1C15353  22.830   8.060  23.170
  640BOLB   C2C15354  22.510   8.090  22.940
  640BOLB   C3C15355  22.380   8.030  22.610
  640BOLB   C4C15356  22.180   7.900  22.230
  640BOLB   C1D15357  23.410   8.240  22.740
  640BOLB   C2D15358  23.720   8.080  22.440
  640BOLB   C3D15359  23.920   8.080  21.980
  640BOLB   C4D15360  24.180   7.670  21.800
  641BOLB   NC115361  23.590  20.400  17.410
  641BOLB   PO115362  23.830  20.590  16.980
  641BOLB   GL115363  24.100  20.690  17.280
  641BOLB   GL215364  24.050  20.450  17.610
  641BOLB   C1A15365  24.380  20.880  17.430
  641BOLB   C2A15366  24.430  21.300  17.660
  641BOLB   C3A15367  24.620  21.580  17.870
  641BOLB   C4A15368  24.980  21.530  17.980
  641BOLB   C1B15369  24.140  20.510  17.950
  641BOLB   C2B15370  24.480  20.700  18.320
  641BOLB   C3B15371  24.770  20.610  18.740
  641BOLB   C4B15372  24.950  20.730  19.140
  641BOLB   NC215373  26.980  22.160  19.530
  641BOLB   PO215374  26.940  22.520  19.320
  641BOLB   GL315375  26.760  22.170  19.080
  641BOLB   GL415376  26.590  21.920  19.290
  641BOLB   C1C15377  26.550  21.970  18.660
  641BOLB   C2C15378  26.310  21.800  18.340
  641BOLB   C3C15379  25.910  21.680  18.110
  641BOLB   C4C15380  25.550  21.620  17.990
  641BOLB   C1D15381  26.240  21.710  19.050
  641BOLB   C2D15382  25.980  21.440  19.230
  641BOLB   C3D15383  25.840  21.160  19.010
  641BOLB   C4D15384  25.720  20.930  18.640
  642BOLB   NC115385  12.500  12.800  17.490
  642BOLB   PO115386  12.330  12.480  17.360
  642BOLB   GL115387  12.000  12.400  17.530
  642BOLB   GL215388  11.760  12.210  17.630
  642BOLB   C1A15389  11.760  12.670  17.850
  642BOLB   C2A15390  11.380  12.620  18.100
  642BOLB   C3A15391  11.070  12.540  18.350
  642BOLB   C4A15392  10.740  12.670  18.630
  642BOLB   C1B15393  11.290  12.160  17.850
  642BOLB   C2B15394  10.920  12.220  18.000
  642BOLB   C3B15395  10.490  12.160  18.260
  642BOLB   C4B15396  10.030  12.290  18.310
  642BOLB   NC215397   9.090  13.120  20.970
  642BOLB   PO215398   9.260  13.260  20.660
  642BOLB   GL315399   9.270  13.280  20.210
  642BOLB   GL415400   9.230  13.510  20.070
  642BOLB   C1C15401   9.360  13.110  19.780
  642BOLB   C2C15402   9.680  12.940  19.420
  642BOLB   C3C15403   9.950  12.740  19.080
  642BOLB   C4C15404  10.230  12.890  18.770
  642BOLB   C1D15405   9.620  13.510  19.830
  642BOLB   C2D15406  10.050  13.450  19.710
  642BOLB   C3D15407  10.230  13.640  19.490
  642BOLB   C4D15408  10.270  13.920  19.100
  643BOLB   NC115409  12.280  11.050  17.600
  643BOLB   PO115410  12.500  11.180  17.950
  643BOLB   GL115411  12.320  11.470  18.370
  643BOLB   GL215412  12.370  11.760  18.350
  643BOLB   C1A15413  11.950  11.550  18.510
  643BOLB   C2A15414  11.680  11.710  18.780
  643BOLB   C3A15415  11.660  12.060  19.070
  643BOLB   C4A15416  11.420  12.220  19.440
  643BOLB   C1B15417  12.150  11.980  18.640
  643BOLB   C2B15418  11.940  12.350  18.780
  643BOLB   C3B15419  11.890  12.880  18.870
  643BOLB   C4B15420  12.000  13.160  19.070
  643BOLB   NC215421   9.460  11.870  21.140
  643BOLB   PO215422   9.540  12.250  20.870
  643BOLB   GL315423   9.820  11.970  20.730
  643BOLB   GL415424   9.640  11.630  20.750
  643BOLB   C1C15425  10.140  11.980  20.520
  643BOLB   C2C15426  10.570  12.100  20.350
  643BOLB   C3C15427  10.710  12.200  20.000
  643BOLB   C4C15428  11.010  12.310  19.680
  643BOLB   C1D15429  10.010  11.490  20.490
  643BOLB   C2D15430  10.430  11.600  20.620
  643BOLB   C3D15431  10.820  11.450  20.590
  643BOLB   C4D15432  11.060  11.190  20.490
  644BOLB   NC115433  10.800  13.000  15.100
  644BOLB   PO115434  10.530  12.870  15.340
  644BOLB   GL115435  10.190  12.800  15.640
  644BOLB   GL215436  10.080  13.130  15.420
  644BOLB   C1A15437   9.860  12.630  15.900
  644BOLB   C2A15438   9.480  12.440  16.180
  644BOLB   C3A15439   9.230  12.520  16.450
  644BOLB   C4A15440   8.940  12.400  16.700
  644BOLB   C1B15441   9.660  12.990  15.600
  644BOLB   C2B15442   9.320  12.930  15.880
  644BOLB   C3B15443   8.960  12.980  16.180
  644BOLB   C4B15444   8.670  13.210  16.310
  644BOLB   NC215445   6.940  10.880  16.750
  644BOLB   PO215446   7.030  11.110  17.250
  644BOLB   GL315447   7.410  11.110  16.970
  644BOLB   GL415448   7.660  10.860  16.830
  644BOLB   C1C15449   7.820  11.290  17.060
  644BOLB   C2C15450   8.260  11.490  17.050
  644BOLB   C3C15451   8.510  11.820  16.850
  644BOLB   C4C15452   8.860  11.950  16.700
  644BOLB   C1D15453   8.040  10.970  16.730
  644BOLB   C2D15454   8.350  11.180  16.610
  644BOLB   C3D15455   8.450  11.630  16.410
  644BOLB   C4D15456   8.620  11.700  16.040
  645BOLB   NC115457  17.010  23.330  14.840
  645BOLB   PO115458  16.920  23.460  15.140
  645BOLB   GL115459  17.030  23.770  15.250
  645BOLB   GL215460  17.320  23.810  15.380
  645BOLB   C1A15461  17.030  24.110  15.140
  645BOLB   C2A15462  17.030  24.240  15.540
  645BOLB   C3A15463  17.140  24.670  15.630
  645BOLB   C4A15464  17.120  25.110  15.600
  645BOLB   C1B15465  17.620  23.930  15.610
  645BOLB   C2B15466  17.600  24.270  15.930
  645BOLB   C3B15467  17.490  24.200  16.340
  645BOLB   C4B15468  17.680  24.500  16.660
  645BOLB   NC215469  16.100  27.250  16.400
  645BOLB   PO215470  16.360  27.020  16.150
  645BOLB   GL315471  16.510  26.800  16.400
  645BOLB   GL415472  16.360  26.660  16.680
  645BOLB   C1C15473  16.750  26.380  16.600
  645BOLB   C2C15474  16.850  26.130  16.290
  645BOLB   C3C15475  17.090  25.730  16.060
  645BOLB   C4C15476  17.010  25.390  15.860
  645BOLB   C1D15477  16.250  26.200  16.620
  645BOLB   C2D15478  16.150  25.910  16.400
  645BOLB   C3D15479  16.260  25.460  16.320
  645BOLB   C4D15480  16.530  25.240  16.000
  646BOLB   NC115481  11.920  14.030  17.220
  646BOLB   PO115482  11.830  13.990  17.630
  646BOLB   GL115483  11.430  13.820  17.740
  646BOLB   GL215484  11.250  13.580  17.640
  646BOLB   C1A15485  11.030  13.740  18.110
  646BOLB   C2A15486  10.810  13.600  18.350
  646BOLB   C3A15487  10.660  13.630  18.800
  646BOLB   C4A15488  10.570  13.440  19.150
  646BOLB   C1B15489  10.920  13.310  17.810
  646BOLB   C2B15490  10.490  13.270  17.920
  646BOLB   C3B15491  10.070  13.280  18.180
  646BOLB   C4B15492   9.870  13.510  18.490
  646BOLB   NC215493   9.520  13.850  20.420
  646BOLB   PO215494   9.640  13.690  20.750
  646BOLB   GL315495   9.700  13.400  20.370
  646BOLB   GL415496   9.660  13.010  20.390
  646BOLB   C1C15497  10.080  13.400  20.260
  646BOLB   C2C15498  10.480  13.160  20.250
  646BOLB   C3C15499  10.660  13.060  19.800
  646BOLB   C4C15500  10.760  13.330  19.500
  646BOLB   C1D15501   9.870  13.040  19.880
  646BOLB   C2D15502  10.130  12.950  19.610
  646BOLB   C3D15503  10.330  13.040  19.300
  646BOLB   C4D15504  10.650  13.030  18.950
  647BOLB   NC115505  25.920  24.580  17.620
  647BOLB   PO115506  25.660  24.300  17.760
  647BOLB   GL115507  25.620  23.990  17.520
  647BOLB   GL215508  25.920  23.920  17.440
  647BOLB   C1A15509  25.440  23.540  17.610
  647BOLB   C2A15510  25.240  23.230  17.390
  647BOLB   C3A15511  25.040  22.830  17.180
  647BOLB   C4A15512  24.570  22.640  17.120
  647BOLB   C1B15513  25.720  23.680  17.110
  647BOLB   C2B15514  25.600  23.500  16.780
  647BOLB   C3B15515  25.520  23.250  16.570
  647BOLB   C4B15516  25.490  23.300  16.210
  647BOLB   NC215517  25.320  24.060  18.510
  647BOLB   PO215518  24.990  24.220  18.890
  647BOLB   GL315519  24.930  23.900  18.630
  647BOLB   GL415520  24.860  23.710  18.870
  647BOLB   C1C15521  24.920  23.530  18.390
  647BOLB   C2C15522  24.720  23.280  18.160
  647BOLB   C3C15523  24.540  22.910  17.900
  647BOLB   C4C15524  24.400  22.720  17.560
  647BOLB   C1D15525  24.500  23.710  18.550
  647BOLB   C2D15526  24.480  23.720  18.150
  647BOLB   C3D15527  24.680  23.760  17.700
  647BOLB   C4D15528  24.620  23.800  17.310
  648BOLB   NC115529  15.010  20.920  17.620
  648BOLB   PO115530  15.280  20.730  17.900
  648BOLB   GL115531  15.130  20.670  18.270
  648BOLB   GL215532  15.060  20.320  18.400
  648BOLB   C1A15533  14.620  20.670  18.520
  648BOLB   C2A15534  14.500  21.070  18.780
  648BOLB   C3A15535  14.740  21.330  19.020
  648BOLB   C4A15536  14.550  21.790  19.150
  648BOLB   C1B15537  15.270  20.540  18.700
  648BOLB   C2B15538  15.180  20.560  19.150
  648BOLB   C3B15539  14.910  20.480  19.470
  648BOLB   C4B15540  14.570  20.210  19.670
  648BOLB   NC215541  13.560  23.080  21.010
  648BOLB   PO215542  13.660  22.610  20.870
  648BOLB   GL315543  13.940  22.400  20.560
  648BOLB   GL415544  14.180  22.410  20.680
  648BOLB   C1C15545  13.700  22.270  20.080
  648BOLB   C2C15546  13.740  22.350  19.640
  648BOLB   C3C15547  13.920  22.320  19.310
  648BOLB   C4C15548  14.280  22.220  19.150
  648BOLB   C1D15549  14.220  22.100  20.350
  648BOLB   C2D15550  14.040  21.810  20.090
  648BOLB   C3D15551  13.700  21.770  19.950
  648BOLB   C4D15552  13.320  21.450  20.050
  649BOLB   NC115553  19.320  20.670  18.120
  649BOLB   PO115554  19.140  20.320  18.370
  649BOLB   GL115555  19.300  20.610  18.680
  649BOLB   GL215556  19.470  20.750  18.550
  649BOLB   C1A15557  19.010  20.850  19.060
  649BOLB   C2A15558  19.030  21.270  19.310
  649BOLB   C3A15559  18.820  21.560  19.570
  649BOLB   C4A15560  18.850  21.780  19.970
  649BOLB   C1B15561  19.330  21.120  18.740
  649BOLB   C2B15562  19.250  21.440  18.910
  649BOLB   C3B15563  18.970  21.820  19.070
  649BOLB   C4B15564  19.070  22.210  19.200
  649BOLB   NC215565  18.490  23.620  21.500
  649BOLB   PO215566  18.810  23.300  21.510
  649BOLB   GL315567  18.660  23.330  21.080
  649BOLB   GL415568  18.370  23.200  21.160
  649BOLB   C1C15569  18.700  22.940  20.830
  649BOLB   C2C15570  18.590  22.580  20.690
  649BOLB   C3C15571  18.580  22.160  20.530
  649BOLB   C4C15572  18.650  21.780  20.400
  649BOLB   C1D15573  18.280  22.730  21.100
  649BOLB   C2D15574  18.180  22.320  20.940
  649BOLB   C3D15575  18.050  22.040  20.500
  649BOLB   C4D15576  18.200  21.650  20.280
  650BOLB   NC115577  28.390  15.090  15.710
  650BOLB   PO115578  28.220  15.230  15.410
  650BOLB   GL115579  28.610  15.450  15.410
  650BOLB   GL215580  28.770  15.520  15.530
  650BOLB   C1A15581  28.850  15.700  15.090
  650BOLB   C2A15582  29.340  15.590  15.150
  650BOLB   C3A15583  29.790  15.590  15.060
  650BOLB   C4A15584  30.160  15.720  15.190
  650BOLB   C1B15585  29.040  15.830  15.520
  650BOLB   C2B15586  29.380  16.070  15.380
  650BOLB   C3B15587  29.780  16.070  15.340
  650BOLB   C4B15588  29.960  16.280  15.560
  650BOLB   NC215589  32.490  16.320  16.290
  650BOLB   PO215590  32.320  16.360  15.970
  650BOLB   GL315591  31.920  16.230  15.750
  650BOLB   GL415592  31.650  16.140  15.860
  650BOLB   C1C15593  31.670  16.310  15.350
  650BOLB   C2C15594  31.280  16.160  15.290
  650BOLB   C3C15595  30.830  16.270  15.370
  650BOLB   C4C15596  30.400  16.090  15.210
  650BOLB   C1D15597  31.200  16.140  15.810
  650BOLB   C2D15598  30.710  16.170  15.810
  650BOLB   C3D15599  30.330  16.040  16.010
  650BOLB   C4D15600  30.100  15.770  16.180
  651BOLB   NC115601  32.000  17.230  11.880
  651BOLB   PO115602  31.890  17.210  11.530
  651BOLB   GL115603  31.580  17.000  11.610
  651BOLB   GL215604  31.700  16.680  11.680
  651BOLB   C1A15605  31.230  16.940  11.850
  651BOLB   C2A15606  30.940  17.030  12.330
  651BOLB   C3A15607  30.680  16.840  12.700
  651BOLB   C4A15608  30.720  16.880  13.260
  651BOLB   C1B15609  31.380  16.290  11.790
  651BOLB   C2B15610  31.000  16.050  11.910
  651BOLB   C3B15611  30.660  15.620  11.930
  651BOLB   C4B15612  30.300  15.420  11.930
  651BOLB   NC215613  31.610  18.630  13.890
  651BOLB   PO215614  31.700  18.200  13.700
  651BOLB   GL315615  31.530  18.020  14.070
  651BOLB   GL415616  31.400  18.240  14.250
  651BOLB   C1C15617  31.270  17.670  14.240
  651BOLB   C2C15618  31.320  17.310  14.290
  651BOLB   C3C15619  31.210  16.990  14.020
  651BOLB   C4C15620  30.950  16.940  13.590
  651BOLB   C1D15621  31.120  18.160  13.920
  651BOLB   C2D15622  30.720  18.300  13.900
  651BOLB   C3D15623  30.200  18.490  13.860
  651BOLB   C4D15624  29.860  18.370  14.080
  652BOLB   NC115625  16.840  13.950  19.690
  652BOLB   PO115626  16.770  14.300  20.030
  652BOLB   GL115627  16.600  14.220  20.460
  652BOLB   GL215628  16.640  13.900  20.590
  652BOLB   C1A15629  16.470  14.390  20.780
  652BOLB   C2A15630  16.470  14.330  21.220
  652BOLB   C3A15631  16.610  14.520  21.650
  652BOLB   C4A15632  16.760  14.550  22.050
  652BOLB   C1B15633  16.500  13.910  20.950
  652BOLB   C2B15634  16.200  13.840  21.260
  652BOLB   C3B15635  16.170  13.630  21.650
  652BOLB   C4B15636  15.750  13.540  21.840
  652BOLB   NC215637  17.600  16.190  24.150
  652BOLB   PO215638  17.390  15.820  24.030
  652BOLB   GL315639  17.450  15.670  23.720
  652BOLB   GL415640  17.840  15.610  23.760
  652BOLB   C1C15641  17.390  15.720  23.300
  652BOLB   C2C15642  17.420  15.510  22.920
  652BOLB   C3C15643  17.310  15.120  22.660
  652BOLB   C4C15644  17.200  14.800  22.310
  652BOLB   C1D15645  17.760  15.390  23.410
  652BOLB   C2D15646  17.620  15.050  23.140
  652BOLB   C3D15647  17.730  14.730  22.840
  652BOLB   C4D15648  17.930  14.370  22.770
  653BOLB   NC115649  26.010  19.710  13.550
  653BOLB   PO115650  26.400  19.900  13.760
  653BOLB   GL115651  26.740  20.060  13.790
  653BOLB   GL215652  27.030  19.830  13.660
  653BOLB   C1A15653  26.930  20.390  13.970
  653BOLB   C2A15654  27.130  20.700  14.100
  653BOLB   C3A15655  27.390  21.060  14.120
  653BOLB   C4A15656  27.680  21.320  13.870
  653BOLB   C1B15657  27.250  19.880  14.000
  653BOLB   C2B15658  27.510  20.280  14.100
  653BOLB   C3B15659  27.890  20.250  14.360
  653BOLB   C4B15660  28.130  20.200  14.610
  653BOLB   NC215661  28.990  23.260  13.610
  653BOLB   PO215662  29.020  22.910  13.270
  653BOLB   GL315663  28.950  22.480  13.450
  653BOLB   GL415664  28.820  22.370  13.350
  653BOLB   C1C15665  29.000  22.180  13.810
  653BOLB   C2C15666  28.920  21.830  13.890
  653BOLB   C3C15667  28.420  21.700  13.860
  653BOLB   C4C15668  28.150  21.360  13.990
  653BOLB   C1D15669  28.340  22.520  13.360
  653BOLB   C2D15670  27.900  22.620  13.500
  653BOLB   C3D15671  27.590  22.540  13.740
  653BOLB   C4D15672  27.310  22.170  13.690
  654BOLB   NC115673  13.290   8.290  17.670
  654BOLB   PO115674  13.590   8.290  17.930
  654BOLB   GL115675  13.430   7.990  18.190
  654BOLB   GL215676  13.540   7.650  18.120
  654BOLB   C1A15677  13.160   7.790  18.450
  654BOLB   C2A15678  12.750   7.630  18.760
  654BOLB   C3A15679  12.430   7.420  18.780
  654BOLB   C4A15680  12.110   7.350  19.140
  654BOLB   C1B15681  13.440   7.350  18.460
  654BOLB   C2B15682  13.210   6.970  18.500
  654BOLB   C3B15683  12.980   6.530  18.550
  654BOLB   C4B15684  13.070   6.130  18.590
  654BOLB   NC215685   9.900   8.020  20.010
  654BOLB   PO215686   9.980   7.870  20.370
  654BOLB   GL315687  10.370   7.910  20.130
  654BOLB   GL415688  10.580   7.980  20.440
  654BOLB   C1C15689  10.840   7.870  19.950
  654BOLB   C2C15690  11.220   7.820  19.760
  654BOLB   C3C15691  11.440   7.760  19.360
  654BOLB   C4C15692  11.780   7.550  19.370
  654BOLB   C1D15693  11.040   8.090  20.380
  654BOLB   C2D15694  11.490   8.280  20.310
  654BOLB   C3D15695  11.890   8.210  20.180
  654BOLB   C4D15696  12.030   8.270  19.770
  655BOLB   NC115697  23.220  15.120  20.140
  655BOLB   PO115698  23.240  14.710  20.220
  655BOLB   GL115699  23.110  14.620  20.630
  655BOLB   GL215700  22.950  14.850  20.860
  655BOLB   C1A15701  23.150  14.520  21.140
  655BOLB   C2A15702  23.170  14.620  21.550
  655BOLB   C3A15703  23.080  14.760  22.010
  655BOLB   C4A15704  22.830  14.730  22.300
  655BOLB   C1B15705  23.150  15.050  21.230
  655BOLB   C2B15706  23.270  15.170  21.640
  655BOLB   C3B15707  23.390  15.100  22.090
  655BOLB   C4B15708  23.750  15.120  22.070
  655BOLB   NC215709  22.360  15.350  24.840
  655BOLB   PO215710  22.540  15.540  24.400
  655BOLB   GL315711  22.540  15.570  24.010
  655BOLB   GL415712  22.220  15.590  23.810
  655BOLB   C1C15713  22.710  15.250  23.790
  655BOLB   C2C15714  22.490  14.970  23.490
  655BOLB   C3C15715  22.510  14.900  23.090
  655BOLB   C4C15716  22.780  14.800  22.720
  655BOLB   C1D15717  22.250  15.580  23.330
  655BOLB   C2D15718  22.350  15.580  22.930
  655BOLB   C3D15719  22.440  15.580  22.570
  655BOLB   C4D15720  22.630  15.620  22.250
  656BOLB   NC115721  26.360  17.850  16.800
  656BOLB   PO115722  26.530  18.180  16.460
  656BOLB   GL115723  26.760  18.550  16.770
  656BOLB   GL215724  26.850  18.690  16.460
  656BOLB   C1A15725  27.100  19.000  16.900
  656BOLB   C2A15726  26.950  19.340  17.190
  656BOLB   C3A15727  26.820  19.420  17.590
  656BOLB   C4A15728  27.040  19.540  17.900
  656BOLB   C1B15729  27.290  18.890  16.420
  656BOLB   C2B15730  27.600  18.850  16.170
  656BOLB   C3B15731  27.860  19.020  15.870
  656BOLB   C4B15732  28.270  19.070  15.490
  656BOLB   NC215733  28.500  20.270  19.890
  656BOLB   PO215734  28.690  20.270  19.570
  656BOLB   GL315735  28.310  20.070  19.330
  656BOLB   GL415736  28.530  19.850  19.140
  656BOLB   C1C15737  27.970  19.850  19.190
  656BOLB   C2C15738  27.750  19.660  18.800
  656BOLB   C3C15739  27.560  19.950  18.450
  656BOLB   C4C15740  27.290  19.800  18.140
  656BOLB   C1D15741  28.220  19.660  18.850
  656BOLB   C2D15742  28.020  19.700  18.400
  656BOLB   C3D15743  27.710  19.440  18.230
  656BOLB   C4D15744  27.440  19.240  18.020
  657BOLB   NC115745  12.790  14.490  17.850
  657BOLB   PO115746  12.830  14.870  18.210
  657BOLB   GL115747  12.850  15.230  18.520
  657BOLB   GL215748  13.040  15.580  18.530
  657BOLB   C1A15749  12.510  15.230  18.730
  657BOLB   C2A15750  12.310  15.600  18.930
  657BOLB   C3A15751  11.920  15.730  19.100
  657BOLB   C4A15752  11.560  15.610  19.420
  657BOLB   C1B15753  12.820  15.680  18.880
  657BOLB   C2B15754  12.660  15.940  19.220
  657BOLB   C3B15755  12.490  15.940  19.560
  657BOLB   C4B15756  12.420  16.300  19.890
  657BOLB   NC215757  10.270  15.320  21.250
  657BOLB   PO215758   9.850  15.190  21.210
  657BOLB   GL315759   9.820  15.260  20.790
  657BOLB   GL415760   9.680  15.340  20.450
  657BOLB   C1C15761  10.220  15.260  20.440
  657BOLB   C2C15762  10.550  15.330  20.120
  657BOLB   C3C15763  10.800  15.660  20.040
  657BOLB   C4C15764  11.200  15.560  19.730
  657BOLB   C1D15765   9.820  15.650  20.320
  657BOLB   C2D15766  10.190  15.740  20.440
  657BOLB   C3D15767  10.670  15.900  20.590
  657BOLB   C4D15768  11.120  15.900  20.500
  658BOLB   NC115769  15.470   5.770  16.660
  658BOLB   PO115770  15.220   5.730  16.230
  658BOLB   GL115771  14.820   5.470  16.180
  658BOLB   GL215772  14.710   5.460  16.500
  658BOLB   C1A15773  14.510   4.950  16.080
  658BOLB   C2A15774  14.110   4.840  16.260
  658BOLB   C3A15775  13.850   4.750  16.520
  658BOLB   C4A15776  13.780   4.350  16.610
  658BOLB   C1B15777  14.410   5.110  16.580
  658BOLB   C2B15778  14.410   4.780  16.630
  658BOLB   C3B15779  14.330   4.340  16.600
  658BOLB   C4B15780  14.390   3.910  16.690
  658BOLB   NC215781  13.550   2.080  16.130
  658BOLB   PO215782  13.230   2.210  16.380
  658BOLB   GL315783  13.220   2.620  16.200
  658BOLB   GL415784  13.560   2.580  16.260
  658BOLB   C1C15785  13.330   3.010  15.930
  658BOLB   C2C15786  13.410   3.350  15.970
  658BOLB   C3C15787  13.420   3.800  16.160
  658BOLB   C4C15788  13.680   3.890  16.580
  658BOLB   C1D15789  13.730   2.990  16.160
  658BOLB   C2D15790  14.000   3.230  15.900
  658BOLB   C3D15791  14.290   3.620  15.850
  658BOLB   C4D15792  14.250   4.020  15.790
  659BOLB   NC115793  19.370  13.230  19.960
  659BOLB   PO115794  19.200  13.290  20.330
  659BOLB   GL115795  19.210  13.160  20.700
  659BOLB   GL215796  19.420  13.230  20.940
  659BOLB   C1A15797  19.100  12.970  21.140
  659BOLB   C2A15798  19.170  12.910  21.520
  659BOLB   C3A15799  18.980  12.720  21.870
  659BOLB   C4A15800  19.010  12.460  22.180
  659BOLB   C1B15801  19.610  13.000  21.320
  659BOLB   C2B15802  19.550  13.040  21.780
  659BOLB   C3B15803  19.220  13.120  22.030
  659BOLB   C4B15804  18.900  13.020  22.360
  659BOLB   NC215805  18.950  13.620  24.780
  659BOLB   PO215806  18.560  13.710  24.470
  659BOLB   GL315807  18.510  13.390  24.390
  659BOLB   GL415808  18.130  13.330  24.430
  659BOLB   C1C15809  18.630  13.160  23.930
  659BOLB   C2C15810  18.560  12.850  23.470
  659BOLB   C3C15811  18.720  12.660  23.100
  659BOLB   C4C15812  18.880  12.550  22.650
  659BOLB   C1D15813  18.150  12.980  24.120
  659BOLB   C2D15814  18.600  12.700  23.910
  659BOLB   C3D15815  19.040  12.620  23.580
  659BOLB   C4D15816  19.160  12.360  23.270
  660BOLB   NC115817  24.910  19.130  17.320
  660BOLB   PO115818  25.140  19.220  16.940
  660BOLB   GL115819  25.300  19.600  17.290
  660BOLB   GL215820  25.380  19.860  17.210
  660BOLB   C1A15821  25.530  19.550  17.610
  660BOLB   C2A15822  25.870  19.780  17.830
  660BOLB   C3A15823  26.230  19.810  18.230
  660BOLB   C4A15824  26.350  19.430  18.550
  660BOLB   C1B15825  25.560  20.080  17.510
  660BOLB   C2B15826  25.830  20.300  17.780
  660BOLB   C3B15827  25.930  20.210  18.170
  660BOLB   C4B15828  26.260  20.320  18.510
  660BOLB   NC215829  28.480  20.690  19.330
  660BOLB   PO215830  28.250  20.650  19.610
  660BOLB   GL315831  27.980  20.340  19.690
  660BOLB   GL415832  27.720  20.390  19.960
  660BOLB   C1C15833  27.640  20.220  19.420
  660BOLB   C2C15834  27.390  19.950  19.080
  660BOLB   C3C15835  26.950  19.790  18.930
  660BOLB   C4C15836  26.620  19.580  18.850
  660BOLB   C1D15837  27.610  19.960  19.850
  660BOLB   C2D15838  27.630  19.680  19.550
  660BOLB   C3D15839  27.230  19.330  19.580
  660BOLB   C4D15840  26.820  19.540  19.610
  661BOLB   NC115841  20.470   3.420  21.670
  661BOLB   PO115842  20.610   3.260  21.260
  661BOLB   GL115843  20.700   3.510  20.990
  661BOLB   GL215844  20.320   3.520  20.860
  661BOLB   C1A15845  20.690   3.910  20.950
  661BOLB   C2A15846  20.720   4.370  20.760
  661BOLB   C3A15847  21.000   4.620  20.590
  661BOLB   C4A15848  20.890   4.940  20.270
  661BOLB   C1B15849  20.510   3.790  20.490
  661BOLB   C2B15850  20.730   4.140  20.250
  661BOLB   C3B15851  20.870   4.490  19.940
  661BOLB   C4B15852  21.180   4.740  19.680
  661BOLB   NC215853  20.340   7.240  19.050
  661BOLB   PO215854  20.430   6.850  19.080
  661BOLB   GL315855  20.520   6.480  19.460
  661BOLB   GL415856  20.690   6.620  19.650
  661BOLB   C1C15857  20.880   6.200  19.490
  661BOLB   C2C15858  20.730   5.790  19.340
  661BOLB   C3C15859  20.610   5.400  19.540
  661BOLB   C4C15860  20.710   5.060  19.820
  661BOLB   C1D15861  20.520   6.210  19.960
  661BOLB   C2D15862  20.470   5.910  20.310
  661BOLB   C3D15863  20.290   5.780  20.700
  661BOLB   C4D15864  20.250   5.530  21.080
  662BOLB   NC115865  12.720  11.820  17.350
  662BOLB   PO115866  12.320  11.510  17.540
  662BOLB   GL115867  11.850  11.400  17.670
  662BOLB   GL215868  11.940  11.220  18.020
  662BOLB   C1A15869  11.450  11.420  17.780
  662BOLB   C2A15870  11.100  11.240  18.020
  662BOLB   C3A15871  10.730  11.230  18.230
  662BOLB   C4A15872  10.500  10.950  18.210
  662BOLB   C1B15873  11.540  11.250  18.310
  662BOLB   C2B15874  11.240  11.080  18.490
  662BOLB   C3B15875  10.920  11.010  18.660
  662BOLB   C4B15876  10.750  11.030  19.080
  662BOLB   NC215877   8.290  10.320  18.470
  662BOLB   PO215878   8.430  10.380  18.920
  662BOLB   GL315879   8.670  10.790  18.970
  662BOLB   GL415880   8.640  10.900  19.260
  662BOLB   C1C15881   8.930  10.990  18.730
  662BOLB   C2C15882   9.320  11.050  18.610
  662BOLB   C3C15883   9.710  10.820  18.640
  662BOLB   C4C15884  10.150  10.760  18.310
  662BOLB   C1D15885   8.940  11.240  19.190
  662BOLB   C2D15886   9.210  11.500  18.880
  662BOLB   C3D15887   9.430  11.560  18.530
  662BOLB   C4D15888   9.200  11.770  18.120
  663BOLB   NC115889  27.180  10.040  15.040
  663BOLB   PO115890  27.630   9.810  14.880
  663BOLB   GL115891  27.930   9.520  14.990
  663BOLB   GL215892  27.890   9.240  14.910
  663BOLB   C1A15893  28.420   9.450  15.240
  663BOLB   C2A15894  28.740   9.240  15.320
  663BOLB   C3A15895  29.150   9.170  15.580
  663BOLB   C4A15896  29.480   9.070  15.380
  663BOLB   C1B15897  28.020   8.950  14.940
  663BOLB   C2B15898  28.410   8.840  15.030
  663BOLB   C3B15899  28.710   8.770  15.320
  663BOLB   C4B15900  28.780   8.410  15.560
  663BOLB   NC215901  32.170   8.060  14.770
  663BOLB   PO215902  31.690   8.070  14.900
  663BOLB   GL315903  31.320   8.040  15.160
  663BOLB   GL415904  31.280   8.270  15.290
  663BOLB   C1C15905  30.900   8.130  14.940
  663BOLB   C2C15906  30.510   8.320  14.870
  663BOLB   C3C15907  30.060   8.490  14.960
  663BOLB   C4C15908  29.730   8.830  15.070
  663BOLB   C1D15909  31.220   8.600  14.990
  663BOLB   C2D15910  31.050   8.590  14.600
  663BOLB   C3D15911  30.720   9.020  14.560
  663BOLB   C4D15912  30.380   9.290  14.570
  664BOLB   NC115913  18.000  22.210  17.160
  664BOLB   PO115914  17.510  22.110  17.320
  664BOLB   GL115915  17.800  22.390  17.600
  664BOLB   GL215916  17.950  22.750  17.610
  664BOLB   C1A15917  18.030  22.470  18.040
  664BOLB   C2A15918  18.080  22.810  18.310
  664BOLB   C3A15919  18.380  22.860  18.610
  664BOLB   C4A15920  18.830  22.940  18.880
  664BOLB   C1B15921  17.620  22.880  17.800
  664BOLB   C2B15922  17.220  23.100  17.710
  664BOLB   C3B15923  17.070  23.450  17.400
  664BOLB   C4B15924  16.670  23.460  17.250
  664BOLB   NC215925  19.990  24.510  20.820
  664BOLB   PO215926  19.600  24.270  20.690
  664BOLB   GL315927  19.250  24.030  20.470
  664BOLB   GL415928  19.310  23.970  20.040
  664BOLB   C1C15929  19.150  23.550  20.320
  664BOLB   C2C15930  19.080  23.150  20.070
  664BOLB   C3C15931  18.880  22.880  19.740
  664BOLB   C4C15932  18.740  22.920  19.300
  664BOLB   C1D15933  19.290  23.690  19.700
  664BOLB   C2D15934  19.260  23.220  19.600
  664BOLB   C3D15935  19.290  22.890  19.300
  664BOLB   C4D15936  19.280  22.690  18.890
  665BOLB   NC115937  14.840   7.680  18.030
  665BOLB   PO115938  14.470   7.460  17.820
  665BOLB   GL115939  14.190   7.220  18.000
  665BOLB   GL215940  14.070   7.410  18.210
  665BOLB   C1A15941  13.830   7.030  18.200
  665BOLB   C2A15942  13.460   6.670  18.200
  665BOLB   C3A15943  13.150   6.370  18.130
  665BOLB   C4A15944  12.770   6.270  18.120
  665BOLB   C1B15945  13.970   7.370  18.630
  665BOLB   C2B15946  13.610   7.210  18.900
  665BOLB   C3B15947  13.420   6.830  19.010
  665BOLB   C4B15948  13.010   6.610  19.120
  665BOLB   NC215949  11.670   4.350  18.910
  665BOLB   PO215950  11.540   4.620  18.490
  665BOLB   GL315951  11.780   4.910  18.650
  665BOLB   GL415952  11.680   5.270  18.490
  665BOLB   C1C15953  12.200   5.080  18.870
  665BOLB   C2C15954  12.240   5.450  18.600
  665BOLB   C3C15955  12.260   5.760  18.330
  665BOLB   C4C15956  12.570   6.110  18.350
  665BOLB   C1D15957  11.860   5.440  18.180
  665BOLB   C2D15958  11.960   5.860  17.860
  665BOLB   C3D15959  12.290   6.080  17.500
  665BOLB   C4D15960  12.450   5.990  17.110
  666BOLB   NC115961  26.730  17.860  16.100
  666BOLB   PO115962  26.680  17.740  16.460
  666BOLB   GL115963  27.070  17.800  16.620
  666BOLB   GL215964  27.090  18.180  16.600
  666BOLB   C1A15965  27.470  17.640  16.770
  666BOLB   C2A15966  27.910  17.690  16.800
  666BOLB   C3A15967  28.290  17.740  17.090
  666BOLB   C4A15968  28.520  17.780  17.470
  666BOLB   C1B15969  27.510  18.510  16.720
  666BOLB   C2B15970  27.660  18.900  16.900
  666BOLB   C3B15971  28.020  19.090  17.180
  666BOLB   C4B15972  28.260  19.490  17.320
  666BOLB   NC215973  30.510  17.700  19.030
  666BOLB   PO215974  30.400  18.170  19.000
  666BOLB   GL315975  29.930  18.160  18.830
  666BOLB   GL415976  29.900  18.550  18.830
  666BOLB   C1C15977  29.590  18.030  18.800
  666BOLB   C2C15978  29.300  17.780  18.510
  666BOLB   C3C15979  29.260  17.790  18.090
  666BOLB   C4C15980  28.980  17.800  17.650
  666BOLB   C1D15981  29.520  18.600  18.520
  666BOLB   C2D15982  29.510  18.640  18.040
  666BOLB   C3D15983  29.430  18.700  17.600
  666BOLB   C4D15984  29.420  19.140  17.360
  667BOLB   NC115985  19.550  23.860  14.270
  667BOLB   PO115986  19.140  23.890  14.080
  667BOLB   GL115987  19.260  24.280  14.120
  667BOLB   GL215988  19.390  24.300  14.430
  667BOLB   C1A15989  18.990  24.640  13.980
  667BOLB   C2A15990  18.750  24.900  14.190
  667BOLB   C3A15991  18.500  25.120  14.600
  667BOLB   C4A15992  18.210  25.470  14.650
  667BOLB   C1B15993  19.560  24.620  14.430
  667BOLB   C2B15994  19.950  24.970  14.430
  667BOLB   C3B15995  20.280  25.020  14.620
  667BOLB   C4B15996  20.640  24.870  14.900
  667BOLB   NC215997  18.550  27.760  14.780
  667BOLB   PO215998  18.260  27.620  15.030
  667BOLB   GL315999  18.090  27.270  15.130
  667BOLB   GL416000  17.990  27.070  14.910
  667BOLB   C1C16001  18.330  26.870  15.200
  667BOLB   C2C16002  18.130  26.550  14.950
  667BOLB   C3C16003  17.920  26.170  15.070
  667BOLB   C4C16004  17.950  25.800  14.860
  667BOLB   C1D16005  17.660  26.700  14.820
  667BOLB   C2D16006  17.470  26.450  14.460
  667BOLB   C3D16007  17.270  26.080  14.340
  667BOLB   C4D16008  17.150  25.690  14.250
  668BOLB   NC116009  15.220   9.910  19.380
  668BOLB   PO116010  15.480  10.100  19.650
  668BOLB   GL116011  15.260  10.260  20.050
  668BOLB   GL216012  15.090   9.900  20.150
  668BOLB   C1A16013  15.200  10.320  20.450
  668BOLB   C2A16014  15.100  10.180  20.910
  668BOLB   C3A16015  14.780   9.920  21.060
  668BOLB   C4A16016  14.360   9.880  21.100
  668BOLB   C1B16017  14.890   9.760  20.610
  668BOLB   C2B16018  14.630   9.520  20.700
  668BOLB   C3B16019  14.510   9.400  21.100
  668BOLB   C4B16020  14.200   9.270  21.350
  668BOLB   NC216021  13.290   9.630  23.010
  668BOLB   PO216022  13.010   9.340  22.830
  668BOLB   GL316023  12.940   9.560  22.420
  668BOLB   GL416024  12.600   9.560  22.440
  668BOLB   C1C16025  13.040   9.710  22.010
  668BOLB   C2C16026  13.410   9.830  21.710
  668BOLB   C3C16027  13.660   9.610  21.380
  668BOLB   C4C16028  13.900   9.730  21.100
  668BOLB   C1D16029  12.640   9.350  22.040
  668BOLB   C2D16030  12.640   9.400  21.590
  668BOLB   C3D16031  12.840   9.540  21.250
  668BOLB   C4D16032  13.040   9.780  21.030
  669BOLB   NC116033  20.510  23.160  11.280
  669BOLB   PO116034  20.240  23.460  11.540
  669BOLB   GL116035  20.320  23.770  11.200
  669BOLB   GL216036  20.410  23.570  10.900
  669BOLB   C1A16037  20.490  24.090  10.910
  669BOLB   C2A16038  20.640  24.440  11.180
  669BOLB   C3A16039  20.640  24.910  10.950
  669BOLB   C4A16040  20.510  25.120  10.550
  669BOLB   C1B16041  20.280  23.840  10.530
  669BOLB   C2B16042  20.440  24.060  10.160
  669BOLB   C3B16043  20.430  24.100   9.650
  669BOLB   C4B16044  20.250  23.990   9.240
  669BOLB   NC216045  20.790  26.500   9.120
  669BOLB   PO216046  20.360  26.670   9.000
  669BOLB   GL316047  20.350  26.230   9.040
  669BOLB   GL416048  20.670  26.120   8.850
  669BOLB   C1C16049  20.270  25.800   9.260
  669BOLB   C2C16050  19.990  25.470   9.390
  669BOLB   C3C16051  19.990  25.350   9.870
  669BOLB   C4C16052  20.200  25.350  10.270
  669BOLB   C1D16053  20.690  25.730   9.010
  669BOLB   C2D16054  20.650  25.320   9.070
  669BOLB   C3D16055  20.530  24.900   9.060
  669BOLB   C4D16056  20.410  24.470   9.200
  670BOLB   NC116057  14.420  15.370  18.650
  670BOLB   PO116058  14.030  15.290  18.830
  670BOLB   GL116059  13.850  14.930  19.080
  670BOLB   GL216060  13.540  14.680  18.930
  670BOLB   C1A16061  13.640  14.790  19.420
  670BOLB   C2A16062  13.350  14.940  19.700
  670BOLB   C3A16063  13.060  15.120  19.960
  670BOLB   C4A16064  12.690  15.100  20.210
  670BOLB   C1B16065  13.160  14.800  19.240
  670BOLB   C2B16066  12.910  14.910  19.520
  670BOLB   C3B16067  12.520  15.040  19.690
  670BOLB   C4B16068  12.060  14.980  19.730
  670BOLB   NC216069  10.820  15.550  21.980
  670BOLB   PO216070  10.990  15.220  21.890
  670BOLB   GL316071  11.280  15.000  21.630
  670BOLB   GL416072  11.280  14.690  21.690
  670BOLB   C1C16073  11.410  14.880  21.230
  670BOLB   C2C16074  11.720  14.640  21.100
  670BOLB   C3C16075  11.970  14.750  20.780
  670BOLB   C4C16076  12.420  14.930  20.610
  670BOLB   C1D16077  11.400  14.390  21.310
  670BOLB   C2D16078  11.520  14.100  20.970
  670BOLB   C3D16079  11.680  13.700  21.050
  670BOLB   C4D16080  11.960  13.220  21.060
  671BOLB   NC116081  28.880  13.870  14.230
  671BOLB   PO116082  28.760  14.120  13.910
  671BOLB   GL116083  29.150  14.260  13.890
  671BOLB   GL216084  28.990  14.590  13.940
  671BOLB   C1A16085  29.520  14.450  14.030
  671BOLB   C2A16086  29.900  14.710  13.970
  671BOLB   C3A16087  30.170  14.980  13.740
  671BOLB   C4A16088  30.420  15.210  13.370
  671BOLB   C1B16089  29.430  14.910  13.770
  671BOLB   C2B16090  29.620  15.190  13.730
  671BOLB   C3B16091  29.880  15.280  13.440
  671BOLB   C4B16092  30.060  15.660  13.470
  671BOLB   NC216093  32.780  16.600  12.440
  671BOLB   PO216094  32.410  16.390  12.720
  671BOLB   GL316095  32.070  16.260  12.720
  671BOLB   GL416096  31.930  16.290  12.530
  671BOLB   C1C16097  31.620  16.390  12.950
  671BOLB   C2C16098  31.310  16.150  13.010
  671BOLB   C3C16099  30.880  15.930  13.140
  671BOLB   C4C16100  30.620  15.550  13.280
  671BOLB   C1D16101  31.580  15.950  12.660
  671BOLB   C2D16102  31.160  15.740  12.780
  671BOLB   C3D16103  30.820  15.670  12.740
  671BOLB   C4D16104  30.440  15.990  12.880
  672BOLB   NC116105  12.100  14.790  17.370
  672BOLB   PO116106  11.790  14.450  17.580
  672BOLB   GL116107  11.500  14.350  17.870
  672BOLB   GL216108  11.680  14.360  18.170
  672BOLB   C1A16109  11.180  14.280  17.790
  672BOLB   C2A16110  10.920  14.620  17.810
  672BOLB   C3A16111  10.480  14.650  17.970
  672BOLB   C4A16112  10.090  14.740  18.170
  672BOLB   C1B16113  11.320  14.140  18.250
  672BOLB   C2B16114  10.910  14.040  18.550
  672BOLB   C3B16115  10.660  14.110  18.830
  672BOLB   C4B16116  10.660  14.240  19.240
  672BOLB   NC216117   8.340  14.020  19.780
  672BOLB   PO216118   8.170  13.940  19.390
  672BOLB   GL316119   8.600  13.990  19.260
  672BOLB   GL416120   8.650  13.700  19.310
  672BOLB   C1C16121   9.010  13.990  19.060
  672BOLB   C2C16122   9.370  14.120  18.780
  672BOLB   C3C16123   9.560  14.420  18.570
  672BOLB   C4C16124   9.640  14.660  18.300
  672BOLB   C1D16125   8.750  13.660  18.830
  672BOLB   C2D16126   9.070  13.670  18.580
  672BOLB   C3D16127   9.450  13.620  18.890
  672BOLB   C4D16128   9.810  13.620  19.170
  673BOLB   NC116129  13.540  15.560   8.120
  673BOLB   PO116130  13.960  15.620   7.940
  673BOLB   GL116131  13.770  15.500   7.580
  673BOLB   GL216132  13.690  15.230   7.650
  673BOLB   C1A16133  13.420  15.280   7.270
  673BOLB   C2A16134  13.100  15.090   7.080
  673BOLB   C3A16135  12.790  15.070   6.900
  673BOLB   C4A16136  12.430  15.100   6.720
  673BOLB   C1B16137  13.300  14.930   7.600
  673BOLB   C2B16138  13.010  14.700   7.420
  673BOLB   C3B16139  12.940  14.550   7.000
  673BOLB   C4B16140  12.750  14.590   6.690
  673BOLB   NC216141  11.710  15.610   4.790
  673BOLB   PO216142  11.800  15.270   4.550
  673BOLB   GL316143  11.880  15.090   4.980
  673BOLB   GL416144  11.950  14.730   5.010
  673BOLB   C1C16145  11.830  15.030   5.420
  673BOLB   C2C16146  11.900  15.320   5.770
  673BOLB   C3C16147  11.870  15.230   6.280
  673BOLB   C4C16148  12.270  15.280   6.450
  673BOLB   C1D16149  12.190  14.680   5.460
  673BOLB   C2D16150  12.340  14.510   5.870
  673BOLB   C3D16151  12.350  14.570   6.340
  673BOLB   C4D16152  12.260  14.630   6.710
  674BOLB   NC116153  25.400  12.570  18.970
  674BOLB   PO116154  25.630  12.240  19.190
  674BOLB   GL116155  25.890  12.240  19.570
  674BOLB   GL216156  25.850  12.470  19.820
  674BOLB   C1A16157  26.130  12.000  19.690
  674BOLB   C2A16158  26.350  11.930  20.090
  674BOLB   C3A16159  26.420  11.900  20.540
  674BOLB   C4A16160  26.490  11.720  20.850
  674BOLB   C1B16161  25.970  12.400  20.200
  674BOLB   C2B16162  26.270  12.400  20.600
  674BOLB   C3B16163  26.410  12.190  21.020
  674BOLB   C4B16164  26.510  12.230  21.420
  674BOLB   NC216165  28.030  11.100  22.730
  674BOLB   PO216166  28.240  11.220  22.420
  674BOLB   GL316167  27.850  11.400  22.170
  674BOLB   GL416168  27.890  11.670  22.040
  674BOLB   C1C16169  27.830  11.200  21.770
  674BOLB   C2C16170  27.610  11.220  21.430
  674BOLB   C3C16171  27.280  11.340  21.170
  674BOLB   C4C16172  26.890  11.570  21.070
  674BOLB   C1D16173  27.750  11.730  21.620
  674BOLB   C2D16174  27.240  11.810  21.480
  674BOLB   C3D16175  26.870  11.850  21.710
  674BOLB   C4D16176  26.740  11.620  22.020
  675BOLB   NC116177  27.890  15.330  16.490
  675BOLB   PO116178  28.040  15.500  16.010
  675BOLB   GL116179  28.480  15.440  16.010
  675BOLB   GL216180  28.800  15.230  16.030
  675BOLB   C1A16181  28.800  15.710  15.970
  675BOLB   C2A16182  29.150  15.900  16.040
  675BOLB   C3A16183  29.580  15.800  16.250
  675BOLB   C4A16184  29.920  15.750  16.640
  675BOLB   C1B16185  29.090  15.450  16.330
  675BOLB   C2B16186  29.380  15.630  16.680
  675BOLB   C3B16187  29.580  16.060  16.860
  675BOLB   C4B16188  29.930  16.050  17.140
  675BOLB   NC216189  31.490  15.240  18.430
  675BOLB   PO216190  31.210  15.230  18.790
  675BOLB   GL316191  30.970  15.280  18.310
  675BOLB   GL416192  30.780  14.960  18.300
  675BOLB   C1C16193  30.900  15.370  17.940
  675BOLB   C2C16194  30.660  15.400  17.590
  675BOLB   C3C16195  30.470  15.420  17.200
  675BOLB   C4C16196  30.260  15.600  16.890
  675BOLB   C1D16197  30.370  15.250  18.250
  675BOLB   C2D16198  30.350  15.550  18.050
  675BOLB   C3D16199  30.600  15.910  17.810
  675BOLB   C4D16200  30.940  15.840  17.580
  676BOLB   NC116201  11.860  10.130  12.960
  676BOLB   PO116202  11.900  10.570  12.940
  676BOLB   GL116203  11.470  10.380  12.700
  676BOLB   GL216204  11.390  10.100  12.810
  676BOLB   C1A16205  11.030  10.390  12.700
  676BOLB   C2A16206  10.650  10.240  12.780
  676BOLB   C3A16207  10.270  10.190  12.960
  676BOLB   C4A16208  10.150  10.160  13.320
  676BOLB   C1B16209  10.970   9.860  12.590
  676BOLB   C2B16210  10.850   9.690  12.230
  676BOLB   C3B16211  10.710   9.730  11.900
  676BOLB   C4B16212  10.620   9.680  11.540
  676BOLB   NC216213   7.870   8.960  13.710
  676BOLB   PO216214   7.730   9.080  13.260
  676BOLB   GL316215   8.160   9.330  13.360
  676BOLB   GL416216   8.320   9.670  13.270
  676BOLB   C1C16217   8.630   9.270  13.390
  676BOLB   C2C16218   9.060   9.430  13.350
  676BOLB   C3C16219   9.480   9.670  13.430
  676BOLB   C4C16220   9.850   9.960  13.480
  676BOLB   C1D16221   8.380  10.040  13.620
  676BOLB   C2D16222   8.720  10.180  13.910
  676BOLB   C3D16223   8.930  10.500  14.170
  676BOLB   C4D16224   8.940  10.940  14.190
  677BOLB   NC116225  22.850  21.870  15.430
  677BOLB   PO116226  23.230  22.070  15.380
  677BOLB   GL116227  23.380  22.310  15.720
  677BOLB   GL216228  23.650  22.220  15.810
  677BOLB   C1A16229  23.540  22.720  15.820
  677BOLB   C2A16230  23.470  23.110  15.790
  677BOLB   C3A16231  23.480  23.410  15.480
  677BOLB   C4A16232  23.330  23.880  15.290
  677BOLB   C1B16233  23.940  22.410  16.100
  677BOLB   C2B16234  24.400  22.420  16.350
  677BOLB   C3B16235  24.750  22.390  16.510
  677BOLB   C4B16236  24.940  22.470  16.800
  677BOLB   NC216237  24.940  25.630  15.520
  677BOLB   PO216238  24.900  25.550  15.070
  677BOLB   GL316239  24.760  25.200  15.260
  677BOLB   GL416240  24.570  25.320  15.590
  677BOLB   C1C16241  24.710  24.810  15.590
  677BOLB   C2C16242  24.370  24.560  15.580
  677BOLB   C3C16243  23.890  24.530  15.350
  677BOLB   C4C16244  23.610  24.210  15.320
  677BOLB   C1D16245  24.220  25.160  15.480
  677BOLB   C2D16246  23.840  25.010  15.290
  677BOLB   C3D16247  23.640  24.750  14.980
  677BOLB   C4D16248  23.570  24.660  14.540
  678BOLB   NC116249  11.560  13.600  17.230
  678BOLB   PO116250  11.070  13.780  17.130
  678BOLB   GL116251  10.650  13.860  17.430
  678BOLB   GL216252  10.850  13.940  17.630
  678BOLB   C1A16253  10.360  13.750  17.710
  678BOLB   C2A16254   9.930  13.750  17.860
  678BOLB   C3A16255   9.610  13.310  17.880
  678BOLB   C4A16256   9.310  13.010  18.110
  678BOLB   C1B16257  10.620  13.980  18.030
  678BOLB   C2B16258  10.450  14.230  18.390
  678BOLB   C3B16259  10.060  14.380  18.540
  678BOLB   C4B16260   9.880  14.590  18.920
  678BOLB   NC216261   8.270  12.540  20.000
  678BOLB   PO216262   8.640  12.510  20.330
  678BOLB   GL316263   8.970  12.420  20.020
  678BOLB   GL416264   8.980  12.190  19.840
  678BOLB   C1C16265   9.060  12.660  19.570
  678BOLB   C2C16266   9.150  12.850  19.250
  678BOLB   C3C16267   9.400  12.780  18.940
  678BOLB   C4C16268   9.270  12.820  18.490
  678BOLB   C1D16269   8.820  12.280  19.440
  678BOLB   C2D16270   8.950  12.440  19.010
  678BOLB   C3D16271   8.770  12.720  18.770
  678BOLB   C4D16272   8.560  12.730  18.420
  679BOLB   NC116273  25.670  20.320  13.640
  679BOLB   PO116274  25.810  20.030  13.820
  679BOLB   GL116275  26.040  20.330  14.060
  679BOLB   GL216276  25.860  20.670  14.070
  679BOLB   C1A16277  26.410  20.560  13.960
  679BOLB   C2A16278  26.630  20.990  14.060
  679BOLB   C3A16279  26.950  21.120  13.950
  679BOLB   C4A16280  27.230  21.520  13.870
  679BOLB   C1B16281  26.130  20.900  14.260
  679BOLB   C2B16282  26.420  21.010  14.520
  679BOLB   C3B16283  26.510  21.380  14.720
  679BOLB   C4B16284  26.890  21.540  14.720
  679BOLB   NC216285  29.420  23.060  14.240
  679BOLB   PO216286  28.960  23.060  14.200
  679BOLB   GL316287  28.590  22.890  14.350
  679BOLB   GL416288  28.580  22.550  14.350
  679BOLB   C1C16289  28.090  22.650  14.290
  679BOLB   C2C16290  27.700  22.440  14.210
  679BOLB   C3C16291  27.430  22.120  14.220
  679BOLB   C4C16292  27.460  21.820  14.040
  679BOLB   C1D16293  28.450  22.210  14.480
  679BOLB   C2D16294  28.000  22.030  14.520
  679BOLB   C3D16295  27.680  21.760  14.490
  679BOLB   C4D16296  27.710  21.430  14.370
  680BOLB   NC116297  13.790  19.720  17.030
  680BOLB   PO116298  13.620  19.630  17.440
  680BOLB   GL116299  13.240  19.810  17.570
  680BOLB   GL216300  13.100  19.640  17.830
  680BOLB   C1A16301  13.000  20.140  17.810
  680BOLB   C2A16302  12.610  20.220  18.020
  680BOLB   C3A16303  12.330  20.140  18.230
  680BOLB   C4A16304  12.240  20.130  18.680
  680BOLB   C1B16305  13.070  19.330  18.160
  680BOLB   C2B16306  12.760  19.410  18.470
  680BOLB   C3B16307  12.590  19.670  18.710
  680BOLB   C4B16308  12.590  19.790  19.120
  680BOLB   NC216309  11.480  21.530  20.260
  680BOLB   PO216310  11.290  21.150  20.330
  680BOLB   GL316311  11.380  21.250  19.840
  680BOLB   GL416312  11.250  21.430  19.640
  680BOLB   C1C16313  11.350  20.910  19.530
  680BOLB   C2C16314  11.270  20.780  19.170
  680BOLB   C3C16315  11.500  20.550  18.800
  680BOLB   C4C16316  11.930  20.440  18.880
  680BOLB   C1D16317  11.660  21.340  19.340
  680BOLB   C2D16318  11.890  21.550  19.050
  680BOLB   C3D16319  12.150  21.800  18.840
  680BOLB   C4D16320  12.340  21.840  18.440
  681BOLB   NC116321  15.270  16.820  18.970
  681BOLB   PO116322  15.330  16.930  19.360
  681BOLB   GL116323  15.040  16.910  19.570
  681BOLB   GL216324  15.040  16.690  19.720
  681BOLB   C1A16325  14.870  17.220  19.870
  681BOLB   C2A16326  14.470  17.320  20.110
  681BOLB   C3A16327  14.340  17.490  20.560
  681BOLB   C4A16328  14.200  17.660  20.970
  681BOLB   C1B16329  15.140  16.780  20.080
  681BOLB   C2B16330  14.960  16.980  20.320
  681BOLB   C3B16331  14.830  17.370  20.480
  681BOLB   C4B16332  14.800  17.730  20.750
  681BOLB   NC216333  14.010  18.130  22.530
  681BOLB   PO216334  13.720  18.530  22.680
  681BOLB   GL316335  13.790  18.690  22.300
  681BOLB   GL416336  13.840  18.350  22.140
  681BOLB   C1C16337  13.820  18.870  21.930
  681BOLB   C2C16338  13.910  18.640  21.580
  681BOLB   C3C16339  13.920  18.320  21.170
  681BOLB   C4C16340  14.010  17.950  21.080
  681BOLB   C1D16341  13.730  17.940  22.070
  681BOLB   C2D16342  13.830  17.510  21.870
  681BOLB   C3D16343  13.780  17.510  21.460
  681BOLB   C4D16344  14.170  17.330  21.310
  682BOLB   NC116345  13.840  14.190  19.050
  682BOLB   PO116346  14.080  14.500  18.890
  682BOLB   GL116347  14.040  14.530  19.350
  682BOLB   GL216348  14.100  14.380  19.520
  682BOLB   C1A16349  13.830  14.510  19.850
  682BOLB   C2A16350  13.610  14.420  20.260
  682BOLB   C3A16351  13.760  14.580  20.670
  682BOLB   C4A16352  13.720  14.770  21.140
  682BOLB   C1B16353  14.370  14.560  19.920
  682BOLB   C2B16354  14.140  14.710  20.270
  682BOLB   C3B16355  13.980  15.010  20.550
  682BOLB   C4B16356  14.120  15.350  20.790
  682BOLB   NC216357  12.930  14.630  23.260
  682BOLB   PO216358  12.640  14.270  23.020
  682BOLB   GL316359  12.930  14.260  22.710
  682BOLB   GL416360  12.990  14.010  22.450
  682BOLB   C1C16361  13.390  14.420  22.530
  682BOLB   C2C16362  13.550  14.470  22.230
  682BOLB   C3C16363  13.450  14.320  21.840
  682BOLB   C4C16364  13.370  14.550  21.410
  682BOLB   C1D16365  12.820  13.900  22.040
  682BOLB   C2D16366  12.850  13.620  21.620
  682BOLB   C3D16367  13.240  13.470  21.450
  682BOLB   C4D16368  13.470  13.100  21.440
  683BOLB   NC116369  19.960  10.860  20.530
  683BOLB   PO116370  20.220  10.530  20.610
  683BOLB   GL116371  20.380  10.530  20.930
  683BOLB   GL216372  20.370  10.860  21.040
  683BOLB   C1A16373  20.510  10.280  21.190
  683BOLB   C2A16374  20.530  10.290  21.650
  683BOLB   C3A16375  20.750  10.260  21.990
  683BOLB   C4A16376  21.010   9.890  22.240
  683BOLB   C1B16377  20.460  10.800  21.430
  683BOLB   C2B16378  20.480  10.770  21.880
  683BOLB   C3B16379  20.810  10.780  22.200
  683BOLB   C4B16380  21.070  10.760  22.630
  683BOLB   NC216381  20.760   8.770  24.230
  683BOLB   PO216382  21.050   9.080  24.450
  683BOLB   GL316383  21.240   9.230  24.090
  683BOLB   GL416384  21.080   9.050  23.900
  683BOLB   C1C16385  21.300   9.460  23.620
  683BOLB   C2C16386  21.150   9.850  23.460
  683BOLB   C3C16387  20.950   9.780  22.980
  683BOLB   C4C16388  20.850   9.880  22.620
  683BOLB   C1D16389  21.050   9.020  23.490
  683BOLB   C2D16390  20.920   9.070  23.070
  683BOLB   C3D16391  20.900   9.340  22.740
  683BOLB   C4D16392  21.150   9.440  22.500
  684BOLB   NC116393  20.930  19.340  19.200
  684BOLB   PO116394  20.720  19.040  19.090
  684BOLB   GL116395  20.850  18.990  19.600
  684BOLB   GL216396  20.600  19.200  19.580
  684BOLB   C1A16397  20.900  19.080  20.010
  684BOLB   C2A16398  21.090  19.160  20.370
  684BOLB   C3A16399  20.990  19.300  20.760
  684BOLB   C4A16400  21.010  19.160  21.170
  684BOLB   C1B16401  20.540  19.450  19.820
  684BOLB   C2B16402  20.400  19.630  20.270
  684BOLB   C3B16403  20.390  19.960  20.550
  684BOLB   C4B16404  20.150  20.150  20.870
  684BOLB   NC216405  21.240  19.550  23.260
  684BOLB   PO216406  20.710  19.470  23.360
  684BOLB   GL316407  20.790  19.490  22.940
  684BOLB   GL416408  20.560  19.640  22.750
  684BOLB   C1C16409  21.130  19.320  22.680
  684BOLB   C2C16410  21.140  19.030  22.490
  684BOLB   C3C16411  20.880  18.930  22.040
  684BOLB   C4C16412  20.830  18.950  21.610
  684BOLB   C1D16413  20.440  19.670  22.360
  684BOLB   C2D16414  20.140  19.550  22.190
  684BOLB   C3D16415  19.760  19.760  22.130
  684BOLB   C4D16416  19.360  19.890  22.000
  685BOLB   NC116417  27.970  12.580  16.700
  685BOLB   PO116418  28.130  12.140  16.560
  685BOLB   GL116419  28.490  11.980  16.660
  685BOLB   GL216420  28.590  12.060  16.330
  685BOLB   C1A16421  28.860  11.710  16.790
  685BOLB   C2A16422  29.330  11.560  16.900
  685BOLB   C3A16423  29.710  11.310  16.900
  685BOLB   C4A16424  30.170  11.210  17.140
  685BOLB   C1B16425  28.970  11.970  16.340
  685BOLB   C2B16426  29.290  12.090  16.500
  685BOLB   C3B16427  29.630  12.140  16.420
  685BOLB   C4B16428  30.130  12.120  16.540
  685BOLB   NC216429  32.330  12.620  18.640
  685BOLB   PO216430  31.990  12.620  18.330
  685BOLB   GL316431  31.600  12.370  18.290
  685BOLB   GL416432  31.580  12.500  17.990
  685BOLB   C1C16433  31.190  12.170  18.100
  685BOLB   C2C16434  31.030  11.730  17.920
  685BOLB   C3C16435  30.710  11.590  17.690
  685BOLB   C4C16436  30.410  11.300  17.430
  685BOLB   C1D16437  31.260  12.730  17.670
  685BOLB   C2D16438  30.840  12.530  17.390
  685BOLB   C3D16439  30.680  12.210  17.170
  685BOLB   C4D16440  30.320  12.110  16.980
  686BOLB   NC116441  28.590  13.610  14.540
  686BOLB   PO116442  28.750  13.270  14.620
  686BOLB   GL116443  29.200  13.390  14.520
  686BOLB   GL216444  29.340  13.400  14.720
  686BOLB   C1A16445  29.520  13.650  14.350
  686BOLB   C2A16446  29.900  13.630  14.430
  686BOLB   C3A16447  30.360  13.750  14.440
  686BOLB   C4A16448  30.620  14.140  14.540
  686BOLB   C1B16449  29.570  13.110  15.060
  686BOLB   C2B16450  29.530  12.960  15.390
  686BOLB   C3B16451  29.580  12.790  15.710
  686BOLB   C4B16452  29.900  12.940  15.960
  686BOLB   NC216453  32.760  14.400  15.210
  686BOLB   PO216454  32.500  14.130  14.970
  686BOLB   GL316455  32.260  14.340  15.040
  686BOLB   GL416456  32.190  14.580  14.840
  686BOLB   C1C16457  31.900  14.410  15.290
  686BOLB   C2C16458  31.440  14.480  15.280
  686BOLB   C3C16459  31.160  14.310  15.210
  686BOLB   C4C16460  31.000  14.140  14.840
  686BOLB   C1D16461  31.840  14.490  14.720
  686BOLB   C2D16462  31.460  14.580  14.810
  686BOLB   C3D16463  31.030  14.640  14.840
  686BOLB   C4D16464  30.710  14.650  14.620
  687BOLB   NC116465  13.140  18.950  16.920
  687BOLB   PO116466  12.870  18.980  17.160
  687BOLB   GL116467  12.610  19.140  17.540
  687BOLB   GL216468  12.830  19.160  17.720
  687BOLB   C1A16469  12.260  18.950  17.760
  687BOLB   C2A16470  11.850  18.780  17.930
  687BOLB   C3A16471  11.540  18.850  18.270
  687BOLB   C4A16472  11.400  18.920  18.640
  687BOLB   C1B16473  12.620  19.060  18.180
  687BOLB   C2B16474  12.280  19.260  18.420
  687BOLB   C3B16475  12.150  19.660  18.470
  687BOLB   C4B16476  11.910  19.830  18.150
  687BOLB   NC216477   9.900  20.580  20.130
  687BOLB   PO216478  10.240  20.300  20.070
  687BOLB   GL316479  10.430  20.080  19.710
  687BOLB   GL416480  10.280  20.270  19.430
  687BOLB   C1C16481  10.960  19.970  19.620
  687BOLB   C2C16482  11.130  19.570  19.540
  687BOLB   C3C16483  11.170  19.140  19.330
  687BOLB   C4C16484  11.350  18.870  19.050
  687BOLB   C1D16485  10.560  20.410  19.280
  687BOLB   C2D16486  10.980  20.400  19.410
  687BOLB   C3D16487  11.400  20.270  19.230
  687BOLB   C4D16488  11.730  20.020  19.120
  688BOLB   NC116489  21.120  21.830  16.780
  688BOLB   PO116490  21.590  21.950  16.840
  688BOLB   GL116491  21.750  22.230  17.220
  688BOLB   GL216492  21.530  22.570  17.230
  688BOLB   C1A16493  21.710  22.350  17.580
  688BOLB   C2A16494  21.610  22.490  17.930
  688BOLB   C3A16495  21.700  22.710  18.330
  688BOLB   C4A16496  21.690  23.090  18.630
  688BOLB   C1B16497  21.440  22.840  17.600
  688BOLB   C2B16498  21.500  23.200  17.660
  688BOLB   C3B16499  21.200  23.440  17.950
  688BOLB   C4B16500  20.970  23.780  17.820
  688BOLB   NC216501  21.590  23.240  21.560
  688BOLB   PO216502  21.380  23.400  21.220
  688BOLB   GL316503  21.250  23.170  20.780
  688BOLB   GL416504  21.030  23.070  20.730
  688BOLB   C1C16505  21.350  23.190  20.290
  688BOLB   C2C16506  21.570  23.070  19.990
  688BOLB   C3C16507  21.750  23.140  19.520
  688BOLB   C4C16508  21.620  23.240  19.140
  688BOLB   C1D16509  21.050  22.660  20.760
  688BOLB   C2D16510  20.860  22.430  20.540
  688BOLB   C3D16511  21.060  22.330  20.240
  688BOLB   C4D16512  21.310  22.400  19.900
  689BOLB   NC116513  11.860   9.060  14.730
  689BOLB   PO116514  12.010   9.280  14.450
  689BOLB   GL116515  11.620   9.230  14.170
  689BOLB   GL216516  11.450   9.250  14.470
  689BOLB   C1A16517  11.350   8.900  14.110
  689BOLB   C2A16518  11.010   8.720  14.170
  689BOLB   C3A16519  10.700   8.330  14.210
  689BOLB   C4A16520  10.320   8.070  14.310
  689BOLB   C1B16521  11.020   9.060  14.530
  689BOLB   C2B16522  10.600   8.790  14.470
  689BOLB   C3B16523  10.150   8.580  14.460
  689BOLB   C4B16524   9.920   8.320  14.340
  689BOLB   NC216525   8.170   6.820  15.320
  689BOLB   PO216526   8.140   7.310  15.240
  689BOLB   GL316527   8.580   7.080  15.080
  689BOLB   GL416528   8.720   6.920  15.310
  689BOLB   C1C16529   9.100   7.160  15.100
  689BOLB   C2C16530   9.550   7.240  15.090
  689BOLB   C3C16531   9.820   7.280  14.750
  689BOLB   C4C16532  10.040   7.730  14.540
  689BOLB   C1D16533   8.800   7.300  15.420
  689BOLB   C2D16534   9.080   7.390  15.610
  689BOLB   C3D16535   9.460   7.260  15.820
  689BOLB   C4D16536   9.780   7.150  15.760
  690BOLB   NC116537  18.110   9.220  19.910
  690BOLB   PO116538  17.960   9.450  20.260
  690BOLB   GL116539  18.050   9.470  20.710
  690BOLB   GL216540  18.390   9.580  20.960
  690BOLB   C1A16541  17.960   9.500  21.080
  690BOLB   C2A16542  17.870   9.170  21.310
  690BOLB   C3A16543  17.550   9.080  21.660
  690BOLB   C4A16544  17.220   9.070  21.940
  690BOLB   C1B16545  18.590   9.570  21.270
  690BOLB   C2B16546  19.030   9.510  21.470
  690BOLB   C3B16547  19.120   9.430  21.800
  690BOLB   C4B16548  19.420   9.340  22.120
  690BOLB   NC216549  17.990   8.960  24.760
  690BOLB   PO216550  17.740   8.840  24.380
  690BOLB   GL316551  17.610   9.070  23.930
  690BOLB   GL416552  17.490   9.320  24.010
  690BOLB   C1C16553  17.320   9.150  23.540
  690BOLB   C2C16554  17.050   8.990  23.240
  690BOLB   C3C16555  16.990   8.860  22.800
  690BOLB   C4C16556  17.020   8.960  22.390
  690BOLB   C1D16557  17.750   9.420  23.620
  690BOLB   C2D16558  17.730   9.440  23.170
  690BOLB   C3D16559  17.490   9.710  22.950
  690BOLB   C4D16560  17.480   9.910  22.640
  691BOLB   NC116561  26.600  12.530  18.340
  691BOLB   PO116562  26.660  12.070  18.260
  691BOLB   GL116563  26.950  12.020  18.600
  691BOLB   GL216564  27.040  12.310  18.650
  691BOLB   C1A16565  27.040  11.900  19.050
  691BOLB   C2A16566  27.230  11.930  19.450
  691BOLB   C3A16567  27.060  11.860  19.840
  691BOLB   C4A16568  26.850  11.880  20.290
  691BOLB   C1B16569  27.380  12.200  18.820
  691BOLB   C2B16570  27.510  12.250  19.200
  691BOLB   C3B16571  27.680  12.150  19.570
  691BOLB   C4B16572  27.660  11.800  19.820
  691BOLB   NC216573  28.990  11.910  21.400
  691BOLB   PO216574  28.860  11.440  21.460
  691BOLB   GL316575  28.490  11.620  21.440
  691BOLB   GL416576  28.250  11.630  21.640
  691BOLB   C1C16577  28.060  11.550  21.210
  691BOLB   C2C16578  27.680  11.630  21.110
  691BOLB   C3C16579  27.430  11.670  20.760
  691BOLB   C4C16580  26.980  11.810  20.640
  691BOLB   C1D16581  28.130  11.960  21.460
  691BOLB   C2D16582  27.750  12.130  21.240
  691BOLB   C3D16583  27.430  12.270  21.080
  691BOLB   C4D16584  27.300  12.230  20.690
  692BOLB   NC116585  13.390   9.840  18.240
  692BOLB   PO116586  13.380  10.130  18.480
  692BOLB   GL116587  13.160   9.920  18.730
  692BOLB   GL216588  13.080   9.610  19.000
  692BOLB   C1A16589  12.970  10.180  18.990
  692BOLB   C2A16590  12.640  10.070  19.270
  692BOLB   C3A16591  12.340  10.280  19.610
  692BOLB   C4A16592  12.050  10.300  19.850
  692BOLB   C1B16593  12.800   9.510  19.230
  692BOLB   C2B16594  12.750   9.100  19.530
  692BOLB   C3B16595  12.700   8.880  19.950
  692BOLB   C4B16596  12.490   8.570  20.060
  692BOLB   NC216597  11.220  10.940  21.800
  692BOLB   PO216598  11.170  10.530  21.620
  692BOLB   GL316599  11.500  10.620  21.510
  692BOLB   GL416600  11.370  10.570  21.190
  692BOLB   C1C16601  11.750  10.890  21.320
  692BOLB   C2C16602  11.810  11.090  20.960
  692BOLB   C3C16603  11.950  10.770  20.570
  692BOLB   C4C16604  11.980  10.700  20.180
  692BOLB   C1D16605  11.530  10.610  20.850
  692BOLB   C2D16606  11.440  10.940  20.630
  692BOLB   C3D16607  11.430  10.950  20.190
  692BOLB   C4D16608  11.250  10.970  19.820
  693BOLB   NC116609  18.360   9.820  20.470
  693BOLB   PO116610  18.560  10.130  20.540
  693BOLB   GL116611  18.650   9.970  20.850
  693BOLB   GL216612  18.830   9.550  20.790
  693BOLB   C1A16613  18.750  10.050  21.330
  693BOLB   C2A16614  18.660   9.830  21.670
  693BOLB   C3A16615  18.660   9.750  22.050
  693BOLB   C4A16616  18.910   9.540  22.300
  693BOLB   C1B16617  18.810   9.200  21.030
  693BOLB   C2B16618  18.820   9.050  21.440
  693BOLB   C3B16619  18.550   8.870  21.720
  693BOLB   C4B16620  18.160   8.650  21.650
  693BOLB   NC216621  18.650   8.990  24.750
  693BOLB   PO216622  18.380   9.280  24.680
  693BOLB   GL316623  18.510   9.370  24.150
  693BOLB   GL416624  18.550   9.760  24.100
  693BOLB   C1C16625  18.740   9.400  23.790
  693BOLB   C2C16626  18.700   9.440  23.460
  693BOLB   C3C16627  18.660   9.620  23.120
  693BOLB   C4C16628  18.860   9.720  22.760
  693BOLB   C1D16629  18.490   9.850  23.780
  693BOLB   C2D16630  18.230   9.570  23.450
  693BOLB   C3D16631  18.230   9.410  23.070
  693BOLB   C4D16632  18.360   9.380  22.590
  694BOLB   NC116633  17.800  16.690  19.750
  694BOLB   PO116634  18.020  16.600  20.010
  694BOLB   GL116635  17.950  16.870  20.330
  694BOLB   GL216636  17.870  17.070  20.200
  694BOLB   C1A16637  17.900  16.820  20.790
  694BOLB   C2A16638  18.140  16.860  21.190
  694BOLB   C3A16639  18.020  16.990  21.540
  694BOLB   C4A16640  17.710  16.740  21.750
  694BOLB   C1B16641  17.740  17.290  20.590
  694BOLB   C2B16642  17.490  17.520  20.890
  694BOLB   C3B16643  17.310  17.730  21.130
  694BOLB   C4B16644  16.950  17.870  21.420
  694BOLB   NC216645  16.710  17.320  24.010
  694BOLB   PO216646  16.890  17.840  23.950
  694BOLB   GL316647  17.040  17.450  23.680
  694BOLB   GL416648  17.390  17.400  23.700
  694BOLB   C1C16649  17.040  17.390  23.130
  694BOLB   C2C16650  17.050  17.100  22.820
  694BOLB   C3C16651  17.150  16.730  22.540
  694BOLB   C4C16652  17.320  16.690  22.050
  694BOLB   C1D16653  17.490  17.300  23.340
  694BOLB   C2D16654  17.540  17.150  23.060
  694BOLB   C3D16655  17.640  16.940  22.800
  694BOLB   C4D16656  17.690  16.800  22.360
  695BOLB   NC116657  12.540   8.070  16.610
  695BOLB   PO116658  12.770   7.720  16.680
  695BOLB   GL116659  12.330   7.580  16.850
  695BOLB   GL216660  12.160   7.900  16.940
  695BOLB   C1A16661  12.110   7.380  17.060
  695BOLB   C2A16662  11.660   7.380  17.030
  695BOLB   C3A16663  11.210   7.520  16.830
  695BOLB   C4A16664  10.800   7.460  16.670
  695BOLB   C1B16665  11.840   7.910  17.130
  695BOLB   C2B16666  11.400   7.830  17.280
  695BOLB   C3B16667  11.260   7.410  17.440
  695BOLB   C4B16668  11.040   7.120  17.750
  695BOLB   NC216669   9.020   6.100  17.390
  695BOLB   PO216670   9.470   5.960  17.300
  695BOLB   GL316671   9.650   6.420  17.230
  695BOLB   GL416672  10.030   6.660  17.140
  695BOLB   C1C16673   9.740   6.500  16.810
  695BOLB   C2C16674   9.820   6.870  16.570
  695BOLB   C3C16675  10.070   7.230  16.420
  695BOLB   C4C16676  10.430   7.430  16.500
  695BOLB   C1D16677  10.090   7.090  17.070
  695BOLB   C2D16678  10.520   7.260  17.000
  695BOLB   C3D16679  10.890   7.240  17.100
  695BOLB   C4D16680  11.240   7.000  17.010
  696BOLB   NC116681  13.810  21.950  14.440
  696BOLB   PO116682  13.960  21.850  14.790
  696BOLB   GL116683  13.980  22.170  14.970
  696BOLB   GL216684  13.930  22.400  14.930
  696BOLB   C1A16685  14.000  22.520  15.420
  696BOLB   C2A16686  13.890  22.880  15.600
  696BOLB   C3A16687  13.860  23.280  15.420
  696BOLB   C4A16688  13.800  23.770  15.470
  696BOLB   C1B16689  13.570  22.510  14.750
  696BOLB   C2B16690  13.250  22.610  15.040
  696BOLB   C3B16691  12.900  22.920  15.070
  696BOLB   C4B16692  12.690  23.160  14.950
  696BOLB   NC216693  13.000  25.170  16.750
  696BOLB   PO216694  13.370  25.230  16.930
  696BOLB   GL316695  13.610  25.060  16.880
  696BOLB   GL416696  13.820  24.920  17.140
  696BOLB   C1C16697  13.670  24.630  16.720
  696BOLB   C2C16698  13.600  24.220  16.610
  696BOLB   C3C16699  13.520  24.020  16.190
  696BOLB   C4C16700  13.710  24.060  15.800
  696BOLB   C1D16701  13.890  24.470  17.160
  696BOLB   C2D16702  13.780  23.990  17.050
  696BOLB   C3D16703  13.630  23.610  17.220
  696BOLB   C4D16704  13.400  23.480  17.000
  697BOLB   NC116705  10.330  13.370  13.800
  697BOLB   PO116706  10.290  12.990  13.460
  697BOLB   GL116707   9.910  13.040  13.700
  697BOLB   GL216708   9.880  12.860  13.970
  697BOLB   C1A16709   9.510  13.160  13.860
  697BOLB   C2A16710   9.110  13.160  13.810
  697BOLB   C3A16711   8.710  13.090  13.720
  697BOLB   C4A16712   8.280  13.240  13.780
  697BOLB   C1B16713   9.460  12.560  13.910
  697BOLB   C2B16714   9.010  12.660  13.970
  697BOLB   C3B16715   8.670  12.490  14.020
  697BOLB   C4B16716   8.320  12.510  14.190
  697BOLB   NC216717   6.070  13.170  12.810
  697BOLB   PO216718   5.920  13.610  13.010
  697BOLB   GL316719   6.300  13.490  13.170
  697BOLB   GL416720   6.400  13.110  13.350
  697BOLB   C1C16721   6.730  13.570  13.060
  697BOLB   C2C16722   7.200  13.540  13.110
  697BOLB   C3C16723   7.600  13.500  13.350
  697BOLB   C4C16724   7.900  13.340  13.640
  697BOLB   C1D16725   6.820  13.290  13.520
  697BOLB   C2D16726   7.090  13.290  13.810
  697BOLB   C3D16727   7.210  13.540  14.150
  697BOLB   C4D16728   7.610  13.410  14.230
  698BOLB   NC116729  19.600  13.900  19.700
  698BOLB   PO116730  19.820  13.760  20.150
  698BOLB   GL116731  19.950  13.750  20.550
  698BOLB   GL216732  20.290  13.630  20.600
  698BOLB   C1A16733  19.860  13.990  20.970
  698BOLB   C2A16734  19.970  13.960  21.320
  698BOLB   C3A16735  20.080  14.000  21.760
  698BOLB   C4A16736  19.930  14.060  22.070
  698BOLB   C1B16737  20.310  13.640  21.130
  698BOLB   C2B16738  20.370  13.680  21.490
  698BOLB   C3B16739  20.380  13.440  21.870
  698BOLB   C4B16740  20.340  13.200  22.280
  698BOLB   NC216741  19.300  15.720  24.080
  698BOLB   PO216742  19.290  15.410  24.300
  698BOLB   GL316743  19.540  15.190  23.960
  698BOLB   GL416744  19.830  15.020  24.070
  698BOLB   C1C16745  19.630  14.990  23.590
  698BOLB   C2C16746  19.720  14.850  23.060
  698BOLB   C3C16747  19.670  14.630  22.670
  698BOLB   C4C16748  19.760  14.380  22.280
  698BOLB   C1D16749  20.100  14.930  23.680
  698BOLB   C2D16750  20.210  14.960  23.290
  698BOLB   C3D16751  20.170  14.680  22.930
  698BOLB   C4D16752  20.220  14.720  22.470
  699BOLB   NC116753  14.530  17.950  18.340
  699BOLB   PO116754  14.940  18.000  18.630
  699BOLB   GL116755  14.970  18.200  18.980
  699BOLB   GL216756  14.670  18.340  19.110
  699BOLB   C1A16757  15.230  18.300  19.300
  699BOLB   C2A16758  15.190  18.220  19.710
  699BOLB   C3A16759  15.040  18.250  20.150
  699BOLB   C4A16760  15.040  18.190  20.520
  699BOLB   C1B16761  14.410  18.450  19.480
  699BOLB   C2B16762  14.240  18.530  19.890
  699BOLB   C3B16763  14.110  18.540  20.320
  699BOLB   C4B16764  13.950  18.260  20.600
  699BOLB   NC216765  15.340  18.830  23.090
  699BOLB   PO216766  14.890  19.040  22.990
  699BOLB   GL316767  15.210  18.990  22.570
  699BOLB   GL416768  15.240  19.240  22.610
  699BOLB   C1C16769  15.130  18.780  22.230
  699BOLB   C2C16770  15.170  18.620  21.830
  699BOLB   C3C16771  15.240  18.320  21.420
  699BOLB   C4C16772  15.150  18.300  20.930
  699BOLB   C1D16773  15.150  19.300  22.120
  699BOLB   C2D16774  15.140  19.420  21.730
  699BOLB   C3D16775  15.030  19.380  21.230
  699BOLB   C4D16776  15.030  19.340  20.850
  700BOLB   NC116777  18.220  14.730  20.420
  700BOLB   PO116778  18.470  14.480  20.600
  700BOLB   GL116779  18.620  14.530  20.910
  700BOLB   GL216780  18.900  14.550  20.870
  700BOLB   C1A16781  18.680  14.640  21.390
  700BOLB   C2A16782  18.720  14.690  21.780
  700BOLB   C3A16783  18.930  14.980  22.110
  700BOLB   C4A16784  19.080  15.230  22.440
  700BOLB   C1B16785  19.310  14.620  20.960
  700BOLB   C2B16786  19.690  14.760  21.260
  700BOLB   C3B16787  19.860  14.870  21.570
  700BOLB   C4B16788  19.820  14.830  22.070
  700BOLB   NC216789  18.340  17.320  23.980
  700BOLB   PO216790  18.110  16.870  24.010
  700BOLB   GL316791  18.040  16.650  23.680
  700BOLB   GL416792  17.870  16.410  23.800
  700BOLB   C1C16793  18.140  16.360  23.310
  700BOLB   C2C16794  18.380  16.220  23.090
  700BOLB   C3C16795  18.660  15.940  22.790
  700BOLB   C4C16796  18.910  15.600  22.610
  700BOLB   C1D16797  17.770  16.150  23.550
  700BOLB   C2D16798  17.700  16.070  23.110
  700BOLB   C3D16799  18.010  15.970  22.740
  700BOLB   C4D16800  18.250  16.190  22.570
  701BOLB   NC116801  12.800   7.870  15.110
  701BOLB   PO116802  12.610   7.580  14.770
  701BOLB   GL116803  12.490   7.230  14.870
  701BOLB   GL216804  12.700   7.180  15.030
  701BOLB   C1A16805  12.100   7.150  14.960
  701BOLB   C2A16806  11.720   7.100  14.760
  701BOLB   C3A16807  11.460   7.000  14.450
  701BOLB   C4A16808  11.180   6.870  14.200
  701BOLB   C1B16809  12.470   6.810  15.140
  701BOLB   C2B16810  12.110   6.570  14.830
  701BOLB   C3B16811  11.970   6.180  14.610
  701BOLB   C4B16812  11.770   5.770  14.550
  701BOLB   NC216813   9.260   5.580  13.380
  701BOLB   PO216814   9.530   5.890  13.500
  701BOLB   GL316815   9.940   6.100  13.470
  701BOLB   GL416816   9.970   6.400  13.730
  701BOLB   C1C16817  10.350   6.300  13.350
  701BOLB   C2C16818  10.790   6.150  13.510
  701BOLB   C3C16819  11.050   6.190  13.800
  701BOLB   C4C16820  11.140   6.570  14.030
  701BOLB   C1D16821  10.340   6.720  13.880
  701BOLB   C2D16822  10.790   6.760  13.780
  701BOLB   C3D16823  11.090   6.950  13.480
  701BOLB   C4D16824  11.320   6.930  13.060
  702BOLB   NC116825  22.590  18.650  18.840
  702BOLB   PO116826  22.890  18.990  18.810
  702BOLB   GL116827  22.860  19.150  19.250
  702BOLB   GL216828  23.200  19.080  19.230
  702BOLB   C1A16829  23.140  19.160  19.730
  702BOLB   C2A16830  23.300  19.030  20.160
  702BOLB   C3A16831  23.500  19.010  20.570
  702BOLB   C4A16832  23.900  18.970  20.720
  702BOLB   C1B16833  23.340  19.430  19.270
  702BOLB   C2B16834  23.490  19.520  19.710
  702BOLB   C3B16835  23.910  19.830  19.860
  702BOLB   C4B16836  24.070  20.030  20.190
  702BOLB   NC216837  25.330  19.310  22.410
  702BOLB   PO216838  25.730  19.440  22.250
  702BOLB   GL316839  25.700  19.210  21.860
  702BOLB   GL416840  25.830  19.420  21.600
  702BOLB   C1C16841  25.360  19.170  21.530
  702BOLB   C2C16842  25.080  18.910  21.220
  702BOLB   C3C16843  24.770  18.840  20.910
  702BOLB   C4C16844  24.360  18.910  20.960
  702BOLB   C1D16845  25.820  19.040  21.390
  702BOLB   C2D16846  25.590  18.690  21.200
  702BOLB   C3D16847  25.370  18.600  20.900
  702BOLB   C4D16848  25.020  18.480  20.630
  703BOLB   NC116849   8.330  17.340  19.090
  703BOLB   PO116850   8.110  16.930  19.030
  703BOLB   GL116851   8.330  16.870  18.710
  703BOLB   GL216852   8.330  16.580  18.570
  703BOLB   C1A16853   8.600  17.150  18.370
  703BOLB   C2A16854   8.870  17.100  18.030
  703BOLB   C3A16855   9.040  16.750  18.010
  703BOLB   C4A16856   9.360  16.510  17.840
  703BOLB   C1B16857   8.770  16.680  18.590
  703BOLB   C2B16858   9.070  16.910  18.460
  703BOLB   C3B16859   9.410  17.130  18.750
  703BOLB   C4B16860   9.790  17.400  18.880
  703BOLB   NC216861  11.010  15.790  16.790
  703BOLB   PO216862  10.590  15.790  16.520
  703BOLB   GL316863  10.230  15.980  16.410
  703BOLB   GL416864  10.160  16.200  16.230
  703BOLB   C1C16865   9.970  15.920  16.790
  703BOLB   C2C16866   9.550  15.970  17.050
  703BOLB   C3C16867   9.580  15.900  17.390
  703BOLB   C4C16868   9.310  16.050  17.730
  703BOLB   C1D16869   9.880  16.400  16.530
  703BOLB   C2D16870   9.910  16.460  16.970
  703BOLB   C3D16871   9.870  16.330  17.370
  703BOLB   C4D16872   9.830  16.180  17.700
  704BOLB   NC116873  22.180  11.270  19.890
  704BOLB   PO116874  22.000  11.620  20.070
  704BOLB   GL116875  22.100  11.670  20.640
  704BOLB   GL216876  22.480  11.610  20.680
  704BOLB   C1A16877  22.340  12.010  20.950
  704BOLB   C2A16878  22.540  11.770  21.340
  704BOLB   C3A16879  22.720  11.410  21.720
  704BOLB   C4A16880  22.540  11.490  22.130
  704BOLB   C1B16881  22.860  11.660  20.970
  704BOLB   C2B16882  23.090  11.720  21.390
  704BOLB   C3B16883  23.290  12.090  21.650
  704BOLB   C4B16884  23.610  12.460  21.570
  704BOLB   NC216885  21.880  10.470  24.710
  704BOLB   PO216886  21.580  10.530  24.520
  704BOLB   GL316887  21.580  10.490  24.100
  704BOLB   GL416888  21.720  10.120  24.080
  704BOLB   C1C16889  21.950  10.680  23.770
  704BOLB   C2C16890  22.010  11.050  23.450
  704BOLB   C3C16891  22.160  11.100  22.990
  704BOLB   C4C16892  22.330  11.350  22.580
  704BOLB   C1D16893  22.060  10.170  23.770
  704BOLB   C2D16894  21.970  10.310  23.340
  704BOLB   C3D16895  21.990  10.160  22.890
  704BOLB   C4D16896  22.030  10.100  22.470
  705BOLB   NC116897  17.090   8.400  19.380
  705BOLB   PO116898  16.830   8.790  19.470
  705BOLB   GL116899  16.760   9.010  19.920
  705BOLB   GL216900  16.610   8.740  20.060
  705BOLB   C1A16901  16.830   9.170  20.410
  705BOLB   C2A16902  16.820   9.080  20.810
  705BOLB   C3A16903  16.820   8.910  21.180
  705BOLB   C4A16904  16.810   8.700  21.620
  705BOLB   C1B16905  16.480   8.740  20.550
  705BOLB   C2B16906  16.330   8.760  20.960
  705BOLB   C3B16907  16.270   8.730  21.380
  705BOLB   C4B16908  16.420   9.040  21.650
  705BOLB   NC216909  16.500   7.600  24.070
  705BOLB   PO216910  16.620   7.500  23.800
  705BOLB   GL316911  16.540   7.870  23.640
  705BOLB   GL416912  16.350   7.770  23.430
  705BOLB   C1C16913  16.770   8.040  23.230
  705BOLB   C2C16914  16.660   8.380  22.900
  705BOLB   C3C16915  16.680   8.560  22.460
  705BOLB   C4C16916  16.740   8.810  22.020
  705BOLB   C1D16917  16.580   7.640  22.980
  705BOLB   C2D16918  16.540   7.980  22.710
  705BOLB   C3D16919  16.450   8.000  22.300
  705BOLB   C4D16920  16.330   7.910  21.910
  706BOLB   NC116921  16.890  15.950  20.000
  706BOLB   PO116922  17.000  16.350  19.990
  706BOLB   GL116923  17.030  16.520  20.310
  706BOLB   GL216924  16.740  16.510  20.380
  706BOLB   C1A16925  17.030  16.670  20.740
  706BOLB   C2A16926  17.250  16.560  21.110
  706BOLB   C3A16927  17.170  16.850  21.300
  706BOLB   C4A16928  17.330  17.040  21.710
  706BOLB   C1B16929  16.400  16.590  20.720
  706BOLB   C2B16930  16.180  16.820  21.100
  706BOLB   C3B16931  15.900  16.860  21.380
  706BOLB   C4B16932  15.860  16.630  21.740
  706BOLB   NC216933  17.750  18.960  23.640
  706BOLB   PO216934  17.550  18.690  23.860
  706BOLB   GL316935  17.590  18.340  23.520
  706BOLB   GL416936  17.280  18.330  23.350
  706BOLB   C1C16937  17.550  17.830  23.240
  706BOLB   C2C16938  17.510  17.620  22.910
  706BOLB   C3C16939  17.420  17.320  22.560
  706BOLB   C4C16940  17.450  17.240  22.160
  706BOLB   C1D16941  17.120  17.960  23.030
  706BOLB   C2D16942  17.120  17.800  22.680
  706BOLB   C3D16943  17.100  17.650  22.280
  706BOLB   C4D16944  17.120  17.530  21.880
  707BOLB   NC116945  17.780  15.460  19.910
  707BOLB   PO116946  17.950  15.140  20.220
  707BOLB   GL116947  17.870  15.200  20.590
  707BOLB   GL216948  17.840  14.920  20.710
  707BOLB   C1A16949  17.730  15.470  20.890
  707BOLB   C2A16950  17.490  15.470  21.200
  707BOLB   C3A16951  17.500  15.490  21.610
  707BOLB   C4A16952  17.340  15.290  21.960
  707BOLB   C1B16953  17.810  14.990  21.150
  707BOLB   C2B16954  17.700  14.850  21.470
  707BOLB   C3B16955  17.810  14.920  21.790
  707BOLB   C4B16956  17.860  14.640  22.090
  707BOLB   NC216957  18.350  15.790  24.260
  707BOLB   PO216958  18.130  16.130  24.110
  707BOLB   GL316959  18.240  15.940  23.680
  707BOLB   GL416960  18.530  15.890  23.680
  707BOLB   C1C16961  18.120  15.810  23.250
  707BOLB   C2C16962  17.920  15.440  22.980
  707BOLB   C3C16963  17.790  15.280  22.620
  707BOLB   C4C16964  17.590  15.100  22.220
  707BOLB   C1D16965  18.700  15.880  23.270
  707BOLB   C2D16966  19.160  15.900  22.990
  707BOLB   C3D16967  19.520  16.090  22.710
  707BOLB   C4D16968  19.630  16.050  22.320
  708BOLB   NC116969  19.470  13.590  20.600
  708BOLB   PO116970  19.030  13.650  20.710
  708BOLB   GL116971  18.880  13.840  21.220
  708BOLB   GL216972  18.870  14.190  21.200
  708BOLB   C1A16973  18.990  13.910  21.580
  708BOLB   C2A16974  18.960  14.290  21.900
  708BOLB   C3A16975  18.790  14.390  22.330
  708BOLB   C4A16976  18.280  14.630  22.410
  708BOLB   C1B16977  19.100  14.420  21.440
  708BOLB   C2B16978  19.300  14.630  21.770
  708BOLB   C3B16979  19.260  14.670  22.260
  708BOLB   C4B16980  19.110  14.730  22.740
  708BOLB   NC216981  18.490  15.020  24.670
  708BOLB   PO216982  18.650  15.390  24.330
  708BOLB   GL316983  18.750  15.480  23.960
  708BOLB   GL416984  19.060  15.360  23.870
  708BOLB   C1C16985  18.750  15.380  23.510
  708BOLB   C2C16986  18.440  15.330  23.180
  708BOLB   C3C16987  18.210  14.920  23.220
  708BOLB   C4C16988  18.150  14.860  22.790
  708BOLB   C1D16989  19.130  15.020  23.640
  708BOLB   C2D16990  19.270  15.050  23.220
  708BOLB   C3D16991  19.510  15.290  22.900
  708BOLB   C4D16992  19.780  15.660  22.630
  709BOLB   NC116993  27.420  12.990  11.090
  709BOLB   PO116994  27.460  12.870  10.650
  709BOLB   GL116995  27.940  12.890  10.450
  709BOLB   GL216996  27.950  12.550  10.240
  709BOLB   C1A16997  28.090  12.970   9.960
  709BOLB   C2A16998  28.340  12.930   9.800
  709BOLB   C3A16999  28.770  13.060   9.660
  709BOLB   C4A17000  29.130  12.960   9.310
  709BOLB   C1B17001  28.330  12.390  10.050
  709BOLB   C2B17002  28.750  12.520  10.180
  709BOLB   C3B17003  29.140  12.690   9.910
  709BOLB   C4B17004  29.480  12.930   9.760
  709BOLB   NC217005  29.840  12.070   7.490
  709BOLB   PO217006  29.710  11.930   7.180
  709BOLB   GL317007  29.390  12.050   7.510
  709BOLB   GL417008  29.430  12.390   7.570
  709BOLB   C1C17009  29.140  12.130   7.910
  709BOLB   C2C17010  28.890  12.410   8.150
  709BOLB   C3C17011  29.030  12.670   8.550
  709BOLB   C4C17012  29.260  12.900   8.890
  709BOLB   C1D17013  28.970  12.570   7.560
  709BOLB   C2D17014  28.730  12.880   7.630
  709BOLB   C3D17015  28.350  12.900   7.830
  709BOLB   C4D17016  28.160  13.020   8.230
  710BOLB   NC117017  15.500  22.430  12.510
  710BOLB   PO117018  15.190  22.540  12.720
  710BOLB   GL117019  14.940  22.910  12.970
  710BOLB   GL217020  14.890  23.130  12.710
  710BOLB   C1A17021  14.860  23.310  13.140
  710BOLB   C2A17022  14.750  23.660  13.410
  710BOLB   C3A17023  14.430  23.880  13.640
  710BOLB   C4A17024  14.080  24.100  13.680
  710BOLB   C1B17025  14.620  23.410  12.460
  710BOLB   C2B17026  14.500  23.800  12.580
  710BOLB   C3B17027  14.230  24.280  12.560
  710BOLB   C4B17028  14.170  24.690  12.450
  710BOLB   NC217029  14.150  26.640  13.460
  710BOLB   PO217030  13.960  26.630  13.860
  710BOLB   GL317031  13.970  26.170  13.750
  710BOLB   GL417032  14.160  26.140  13.590
  710BOLB   C1C17033  13.980  25.680  13.790
  710BOLB   C2C17034  13.930  25.330  14.090
  710BOLB   C3C17035  13.870  24.910  14.010
  710BOLB   C4C17036  13.770  24.350  13.810
  710BOLB   C1D17037  14.430  25.760  13.590
  710BOLB   C2D17038  14.470  25.340  13.480
  710BOLB   C3D17039  14.620  24.940  13.410
  710BOLB   C4D17040  14.960  24.560  13.480
  711BOLB   NC117041  10.460  16.930  15.870
  711BOLB   PO117042  10.770  17.350  15.790
  711BOLB   GL117043  10.590  17.400  16.170
  711BOLB   GL217044  10.250  17.480  16.140
  711BOLB   C1A17045  10.480  17.490  16.600
  711BOLB   C2A17046  10.210  17.750  16.780
  711BOLB   C3A17047   9.760  18.000  17.020
  711BOLB   C4A17048   9.810  17.950  17.510
  711BOLB   C1B17049   9.800  17.430  15.920
  711BOLB   C2B17050   9.370  17.400  15.790
  711BOLB   C3B17051   8.980  17.590  15.930
  711BOLB   C4B17052   8.580  17.850  15.780
  711BOLB   NC217053   8.590  18.640  19.710
  711BOLB   PO217054   8.530  18.760  19.210
  711BOLB   GL317055   8.820  18.770  18.840
  711BOLB   GL417056   9.020  19.060  18.900
  711BOLB   C1C17057   8.990  18.570  18.500
  711BOLB   C2C17058   9.420  18.570  18.330
  711BOLB   C3C17059   9.500  18.420  18.020
  711BOLB   C4C17060   9.750  18.310  17.620
  711BOLB   C1D17061   9.390  18.830  18.920
  711BOLB   C2D17062   9.850  18.820  19.040
  711BOLB   C3D17063  10.320  18.830  19.090
  711BOLB   C4D17064  10.850  18.920  19.060
  712BOLB   NC117065  11.180  17.200  14.160
  712BOLB   PO117066  10.790  17.180  14.380
  712BOLB   GL117067  10.390  17.230  14.120
  712BOLB   GL217068  10.100  16.990  14.030
  712BOLB   C1A17069  10.000  17.360  14.360
  712BOLB   C2A17070   9.530  17.140  14.550
  712BOLB   C3A17071   9.090  16.990  14.620
  712BOLB   C4A17072   8.620  16.860  14.670
  712BOLB   C1B17073   9.620  16.840  14.140
  712BOLB   C2B17074   9.160  17.000  14.140
  712BOLB   C3B17075   8.820  17.200  14.300
  712BOLB   C4B17076   8.420  17.310  14.340
  712BOLB   NC217077   6.700  18.030  15.600
  712BOLB   PO217078   6.870  18.330  15.870
  712BOLB   GL317079   7.170  18.170  15.610
  712BOLB   GL417080   7.440  18.360  15.570
  712BOLB   C1C17081   7.440  17.840  15.440
  712BOLB   C2C17082   7.610  17.480  15.300
  712BOLB   C3C17083   7.880  17.160  15.110
  712BOLB   C4C17084   8.230  17.020  14.850
  712BOLB   C1D17085   7.750  18.150  15.720
  712BOLB   C2D17086   8.030  17.780  15.590
  712BOLB   C3D17087   8.010  17.350  15.590
  712BOLB   C4D17088   8.190  17.040  15.640
  713BOLB   NC117089  23.630  19.910  10.290
  713BOLB   PO117090  23.740  20.340   9.910
  713BOLB   GL117091  23.990  20.670   9.720
  713BOLB   GL217092  23.890  20.570   9.420
  713BOLB   C1A17093  24.260  20.970   9.440
  713BOLB   C2A17094  24.650  21.280   9.350
  713BOLB   C3A17095  24.850  21.650   9.100
  713BOLB   C4A17096  24.930  22.090   9.140
  713BOLB   C1B17097  23.830  20.890   9.140
  713BOLB   C2B17098  24.160  21.220   8.970
  713BOLB   C3B17099  24.570  21.240   8.830
  713BOLB   C4B17100  25.060  21.160   8.770
  713BOLB   NC217101  26.650  23.630   7.930
  713BOLB   PO217102  26.360  23.170   7.960
  713BOLB   GL317103  25.960  22.910   7.980
  713BOLB   GL417104  26.000  22.720   8.250
  713BOLB   C1C17105  25.470  22.960   8.100
  713BOLB   C2C17106  25.210  22.700   8.190
  713BOLB   C3C17107  25.050  22.590   8.570
  713BOLB   C4C17108  25.060  22.460   8.940
  713BOLB   C1D17109  25.670  22.630   8.410
  713BOLB   C2D17110  25.530  22.450   8.650
  713BOLB   C3D17111  25.440  22.130   8.900
  713BOLB   C4D17112  25.430  21.850   9.320
  714BOLB   NC117113  23.360  22.140  11.960
  714BOLB   PO117114  23.310  22.190  11.470
  714BOLB   GL117115  23.550  22.530  11.630
  714BOLB   GL217116  23.490  22.770  11.810
  714BOLB   C1A17117  23.920  22.610  11.870
  714BOLB   C2A17118  24.360  22.770  11.780
  714BOLB   C3A17119  24.700  22.960  11.910
  714BOLB   C4A17120  25.000  23.370  11.820
  714BOLB   C1B17121  23.800  22.920  11.500
  714BOLB   C2B17122  24.240  23.050  11.400
  714BOLB   C3B17123  24.720  23.200  11.440
  714BOLB   C4B17124  24.920  23.640  11.300
  714BOLB   NC217125  26.420  25.570  11.030
  714BOLB   PO217126  26.200  25.290  11.320
  714BOLB   GL317127  26.090  24.850  11.520
  714BOLB   GL417128  26.050  24.660  11.280
  714BOLB   C1C17129  25.860  24.680  11.860
  714BOLB   C2C17130  25.570  24.350  11.950
  714BOLB   C3C17131  25.350  24.010  11.780
  714BOLB   C4C17132  25.260  23.670  11.930
  714BOLB   C1D17133  25.680  24.420  10.980
  714BOLB   C2D17134  25.350  24.030  10.810
  714BOLB   C3D17135  24.930  23.940  10.880
  714BOLB   C4D17136  24.490  23.780  10.880
  715BOLB   NC117137  22.610  22.170  10.170
  715BOLB   PO117138  22.290  22.150   9.820
  715BOLB   GL117139  22.570  22.440   9.730
  715BOLB   GL217140  22.330  22.640   9.560
  715BOLB   C1A17141  22.950  22.690   9.930
  715BOLB   C2A17142  23.150  23.100   9.940
  715BOLB   C3A17143  23.050  23.490   9.750
  715BOLB   C4A17144  22.890  23.830   9.860
  715BOLB   C1B17145  22.480  22.870   9.270
  715BOLB   C2B17146  22.360  22.980   8.770
  715BOLB   C3B17147  22.350  23.270   8.440
  715BOLB   C4B17148  22.120  23.480   8.300
  715BOLB   NC217149  23.250  26.630   9.000
  715BOLB   PO217150  23.400  26.290   9.360
  715BOLB   GL317151  23.320  25.940   9.610
  715BOLB   GL417152  23.540  25.830   9.840
  715BOLB   C1C17153  23.100  25.540   9.780
  715BOLB   C2C17154  22.820  25.170   9.670
  715BOLB   C3C17155  22.920  24.760   9.770
  715BOLB   C4C17156  22.970  24.290   9.820
  715BOLB   C1D17157  23.530  25.410  10.020
  715BOLB   C2D17158  23.350  24.970   9.990
  715BOLB   C3D17159  23.260  24.570  10.080
  715BOLB   C4D17160  23.050  24.430  10.450
  716BOLB   NC117161  24.410  20.010   9.870
  716BOLB   PO117162  24.550  19.570   9.890
  716BOLB   GL117163  24.900  19.760   9.720
  716BOLB   GL217164  24.920  20.170   9.760
  716BOLB   C1A17165  25.150  19.790   9.290
  716BOLB   C2A17166  25.380  20.010   8.980
  716BOLB   C3A17167  25.460  20.200   8.520
  716BOLB   C4A17168  25.870  20.090   8.210
  716BOLB   C1B17169  25.060  20.570   9.710
  716BOLB   C2B17170  25.380  20.790   9.580
  716BOLB   C3B17171  25.710  20.940   9.230
  716BOLB   C4B17172  25.820  20.880   8.910
  716BOLB   NC217173  27.740  20.840   6.970
  716BOLB   PO217174  27.380  21.150   6.970
  716BOLB   GL317175  26.980  20.970   7.050
  716BOLB   GL417176  27.210  20.560   7.020
  716BOLB   C1C17177  26.560  20.750   7.130
  716BOLB   C2C17178  26.300  20.580   7.370
  716BOLB   C3C17179  26.330  20.160   7.490
  716BOLB   C4C17180  26.110  20.000   7.810
  716BOLB   C1D17181  27.150  20.090   7.000
  716BOLB   C2D17182  27.020  19.780   7.290
  716BOLB   C3D17183  26.580  19.660   7.410
  716BOLB   C4D17184  26.130  19.720   7.360
  717BOLB   NC117185  23.190  21.190  15.960
  717BOLB   PO117186  23.590  20.920  16.000
  717BOLB   GL117187  23.910  21.370  15.970
  717BOLB   GL217188  24.140  21.460  15.700
  717BOLB   C1A17189  24.320  21.580  16.120
  717BOLB   C2A17190  24.610  21.830  16.240
  717BOLB   C3A17191  24.900  21.890  16.640
  717BOLB   C4A17192  25.060  22.030  17.080
  717BOLB   C1B17193  24.300  21.880  15.720
  717BOLB   C2B17194  24.550  22.190  15.890
  717BOLB   C3B17195  24.900  22.450  15.990
  717BOLB   C4B17196  24.960  22.830  16.180
  717BOLB   NC217197  26.010  23.850  19.090
  717BOLB   PO217198  26.140  23.500  18.660
  717BOLB   GL317199  25.930  23.330  18.300
  717BOLB   GL417200  25.830  23.160  18.510
  717BOLB   C1C17201  25.840  23.130  17.980
  717BOLB   C2C17202  25.620  22.950  17.670
  717BOLB   C3C17203  25.530  22.710  17.410
  717BOLB   C4C17204  25.300  22.370  17.300
  717BOLB   C1D17205  25.550  22.800  18.260
  717BOLB   C2D17206  25.430  22.470  18.290
  717BOLB   C3D17207  25.200  22.200  18.440
  717BOLB   C4D17208  25.270  21.830  18.560
  718BOLB   NC117209  19.420  18.180  18.840
  718BOLB   PO117210  19.420  18.620  19.140
  718BOLB   GL117211  19.560  18.730  19.480
  718BOLB   GL217212  19.470  18.500  19.750
  718BOLB   C1A17213  19.600  18.930  19.910
  718BOLB   C2A17214  19.610  19.190  20.380
  718BOLB   C3A17215  19.500  19.490  20.770
  718BOLB   C4A17216  19.490  19.440  21.200
  718BOLB   C1B17217  19.870  18.510  20.080
  718BOLB   C2B17218  20.030  18.780  20.310
  718BOLB   C3B17219  20.350  18.640  20.560
  718BOLB   C4B17220  20.470  18.320  20.700
  718BOLB   NC217221  20.150  20.630  23.150
  718BOLB   PO217222  20.240  21.040  22.870
  718BOLB   GL317223  20.130  20.970  22.430
  718BOLB   GL417224  19.780  21.020  22.380
  718BOLB   C1C17225  20.080  20.800  22.010
  718BOLB   C2C17226  19.980  20.590  21.660
  718BOLB   C3C17227  19.790  20.220  21.560
  718BOLB   C4C17228  19.580  19.780  21.500
  718BOLB   C1D17229  19.610  20.740  22.170
  718BOLB   C2D17230  19.240  20.510  22.280
  718BOLB   C3D17231  18.810  20.570  22.160
  718BOLB   C4D17232  18.390  20.620  22.140
  719BOLB   NC117233  17.300  23.720  13.880
  719BOLB   PO117234  17.500  23.950  13.590
  719BOLB   GL117235  17.790  24.290  13.640
  719BOLB   GL217236  18.150  24.300  13.780
  719BOLB   C1A17237  17.760  24.770  13.650
  719BOLB   C2A17238  17.800  25.080  13.290
  719BOLB   C3A17239  18.030  25.470  13.190
  719BOLB   C4A17240  18.030  25.850  13.090
  719BOLB   C1B17241  18.240  24.670  13.930
  719BOLB   C2B17242  18.250  25.070  14.180
  719BOLB   C3B17243  18.510  25.520  14.130
  719BOLB   C4B17244  18.860  25.790  14.170
  719BOLB   NC217245  18.500  28.200  13.520
  719BOLB   PO217246  18.350  27.840  13.720
  719BOLB   GL317247  18.410  27.350  13.720
  719BOLB   GL417248  18.500  27.210  14.020
  719BOLB   C1C17249  18.730  27.070  13.470
  719BOLB   C2C17250  18.510  26.740  13.120
  719BOLB   C3C17251  18.320  26.600  12.770
  719BOLB   C4C17252  18.090  26.130  12.820
  719BOLB   C1D17253  18.200  26.870  13.940
  719BOLB   C2D17254  17.960  26.570  13.670
  719BOLB   C3D17255  17.500  26.460  13.420
  719BOLB   C4D17256  17.160  26.390  13.200
  720BOLB   NC117257  17.520  17.610  19.020
  720BOLB   PO117258  17.240  17.670  19.430
  720BOLB   GL117259  17.140  17.680  19.730
  720BOLB   GL217260  16.870  17.490  19.870
  720BOLB   C1A17261  17.120  17.840  20.180
  720BOLB   C2A17262  16.840  18.000  20.490
  720BOLB   C3A17263  16.400  18.010  20.860
  720BOLB   C4A17264  16.010  17.860  21.170
  720BOLB   C1B17265  16.680  17.520  20.270
  720BOLB   C2B17266  16.310  17.370  20.540
  720BOLB   C3B17267  16.100  17.000  20.630
  720BOLB   C4B17268  16.100  16.630  20.280
  720BOLB   NC217269  16.540  18.610  23.520
  720BOLB   PO217270  16.060  18.330  23.500
  720BOLB   GL317271  15.910  18.050  23.270
  720BOLB   GL417272  16.230  17.930  23.250
  720BOLB   C1C17273  15.970  17.780  22.870
  720BOLB   C2C17274  15.940  17.780  22.460
  720BOLB   C3C17275  15.950  17.720  22.030
  720BOLB   C4C17276  15.960  17.530  21.560
  720BOLB   C1D17277  16.550  17.720  22.990
  720BOLB   C2D17278  16.770  17.480  22.660
  720BOLB   C3D17279  16.950  17.190  22.370
  720BOLB   C4D17280  16.760  17.020  22.030
  721BOLB   NC117281  10.860  18.510  14.470
  721BOLB   PO117282  11.170  18.750  14.180
  721BOLB   GL117283  10.920  19.000  14.200
  721BOLB   GL217284  10.620  18.870  14.120
  721BOLB   C1A17285  10.750  19.230  14.620
  721BOLB   C2A17286  10.460  19.640  14.750
  721BOLB   C3A17287  10.140  19.760  14.540
  721BOLB   C4A17288   9.850  20.070  14.560
  721BOLB   C1B17289  10.330  19.010  14.410
  721BOLB   C2B17290   9.990  19.190  14.570
  721BOLB   C3B17291   9.650  19.100  14.990
  721BOLB   C4B17292   9.330  19.080  15.340
  721BOLB   NC217293   8.870  22.350  13.910
  721BOLB   PO217294   8.870  21.810  13.850
  721BOLB   GL317295   9.080  21.390  13.540
  721BOLB   GL417296   9.010  21.490  13.230
  721BOLB   C1C17297   9.410  21.130  13.390
  721BOLB   C2C17298   9.510  20.830  13.690
  721BOLB   C3C17299   9.410  20.520  13.940
  721BOLB   C4C17300   9.640  20.260  14.310
  721BOLB   C1D17301   8.970  21.040  13.140
  721BOLB   C2D17302   9.160  20.770  12.760
  721BOLB   C3D17303   9.250  20.950  12.260
  721BOLB   C4D17304   8.990  21.060  11.940
  722BOLB   NC117305  21.580  19.170  18.520
  722BOLB   PO117306  21.370  19.350  18.980
  722BOLB   GL117307  21.570  19.380  19.360
  722BOLB   GL217308  21.780  19.050  19.400
  722BOLB   C1A17309  21.520  19.190  19.850
  722BOLB   C2A17310  21.830  18.950  20.140
  722BOLB   C3A17311  21.890  18.730  20.520
  722BOLB   C4A17312  21.860  18.550  20.990
  722BOLB   C1B17313  22.080  19.300  19.500
  722BOLB   C2B17314  21.920  19.540  19.780
  722BOLB   C3B17315  21.710  19.440  20.230
  722BOLB   C4B17316  21.590  19.220  20.480
  722BOLB   NC217317  22.130  19.900  23.510
  722BOLB   PO217318  22.030  19.460  23.250
  722BOLB   GL317319  22.110  19.340  22.790
  722BOLB   GL417320  22.160  19.530  22.500
  722BOLB   C1C17321  22.260  18.970  22.600
  722BOLB   C2C17322  22.100  18.680  22.380
  722BOLB   C3C17323  22.000  18.490  21.910
  722BOLB   C4C17324  21.890  18.360  21.480
  722BOLB   C1D17325  22.070  19.170  22.200
  722BOLB   C2D17326  21.910  19.040  21.750
  722BOLB   C3D17327  21.760  19.020  21.270
  722BOLB   C4D17328  21.980  19.020  20.900
  723BOLB   NC117329  23.660  21.280  14.790
  723BOLB   PO117330  23.670  21.440  15.130
  723BOLB   GL117331  23.730  21.780  15.410
  723BOLB   GL217332  23.760  21.740  15.640
  723BOLB   C1A17333  23.870  22.160  15.340
  723BOLB   C2A17334  23.760  22.580  15.420
  723BOLB   C3A17335  23.830  22.960  15.420
  723BOLB   C4A17336  23.970  23.320  15.670
  723BOLB   C1B17337  23.900  21.880  16.060
  723BOLB   C2B17338  24.120  22.000  16.360
  723BOLB   C3B17339  24.390  22.140  16.710
  723BOLB   C4B17340  24.560  21.920  17.050
  723BOLB   NC217341  24.820  25.840  16.260
  723BOLB   PO217342  24.650  25.660  15.950
  723BOLB   GL317343  24.260  25.520  15.990
  723BOLB   GL417344  24.040  25.710  15.720
  723BOLB   C1C17345  24.180  25.140  15.960
  723BOLB   C2C17346  24.070  24.610  15.950
  723BOLB   C3C17347  23.930  24.260  15.770
  723BOLB   C4C17348  23.780  23.790  15.670
  723BOLB   C1D17349  23.760  25.350  15.700
  723BOLB   C2D17350  23.710  24.870  15.730
  723BOLB   C3D17351  23.520  24.570  15.700
  723BOLB   C4D17352  23.340  24.170  15.750
  724BOLB   NC117353  19.680  22.870   9.580
  724BOLB   PO117354  19.390  22.510   9.440
  724BOLB   GL117355  19.290  22.780   9.160
  724BOLB   GL217356  19.270  23.090   9.440
  724BOLB   C1A17357  19.510  23.180   9.000
  724BOLB   C2A17358  19.820  23.250   8.670
  724BOLB   C3A17359  19.940  23.410   8.220
  724BOLB   C4A17360  20.060  23.790   8.040
  724BOLB   C1B17361  18.990  23.390   9.220
  724BOLB   C2B17362  18.920  23.380   8.870
  724BOLB   C3B17363  18.910  23.770   8.670
  724BOLB   C4B17364  19.190  24.170   8.500
  724BOLB   NC217365  20.910  26.330   8.080
  724BOLB   PO217366  20.790  25.980   7.770
  724BOLB   GL317367  20.660  25.620   7.950
  724BOLB   GL417368  20.310  25.660   7.980
  724BOLB   C1C17369  20.790  25.300   8.090
  724BOLB   C2C17370  20.490  25.070   8.130
  724BOLB   C3C17371  20.110  24.700   8.170
  724BOLB   C4C17372  20.020  24.280   8.020
  724BOLB   C1D17373  20.060  25.350   7.970
  724BOLB   C2D17374  19.660  25.360   8.070
  724BOLB   C3D17375  19.300  25.170   8.280
  724BOLB   C4D17376  19.270  24.690   8.480
  725BOLB   NC117377  22.530  21.920  16.120
  725BOLB   PO117378  22.450  22.300  15.750
  725BOLB   GL117379  22.640  22.700  15.810
  725BOLB   GL217380  23.000  22.700  15.700
  725BOLB   C1A17381  22.650  23.150  16.040
  725BOLB   C2A17382  22.970  23.410  16.060
  725BOLB   C3A17383  23.240  23.560  15.990
  725BOLB   C4A17384  23.760  23.580  16.160
  725BOLB   C1B17385  22.980  23.160  15.650
  725BOLB   C2B17386  22.890  23.680  15.580
  725BOLB   C3B17387  22.660  24.150  15.600
  725BOLB   C4B17388  22.620  24.460  15.860
  725BOLB   NC217389  24.860  25.860  16.750
  725BOLB   PO217390  24.820  25.530  16.810
  725BOLB   GL317391  24.630  25.240  16.590
  725BOLB   GL417392  24.650  25.290  16.270
  725BOLB   C1C17393  24.850  24.790  16.500
  725BOLB   C2C17394  24.660  24.400  16.630
  725BOLB   C3C17395  24.380  24.020  16.500
  725BOLB   C4C17396  24.010  23.870  16.440
  725BOLB   C1D17397  24.650  24.870  16.060
  725BOLB   C2D17398  24.550  24.450  16.130
  725BOLB   C3D17399  24.380  24.120  15.980
  725BOLB   C4D17400  24.210  23.770  15.970
  726BOLB   NC117401  23.650  20.990  11.890
  726BOLB   PO117402  24.020  21.220  11.850
  726BOLB   GL117403  24.360  21.470  11.780
  726BOLB   GL217404  24.700  21.360  11.600
  726BOLB   C1A17405  24.630  21.810  11.640
  726BOLB   C2A17406  25.000  22.010  11.540
  726BOLB   C3A17407  25.040  22.410  11.580
  726BOLB   C4A17408  25.050  22.810  11.540
  726BOLB   C1B17409  24.950  21.550  11.360
  726BOLB   C2B17410  25.030  21.850  11.040
  726BOLB   C3B17411  25.230  22.190  11.160
  726BOLB   C4B17412  25.630  22.390  11.000
  726BOLB   NC217413  26.390  25.020  10.980
  726BOLB   PO217414  26.570  24.670  10.720
  726BOLB   GL317415  26.360  24.230  10.650
  726BOLB   GL417416  26.140  24.230  10.540
  726BOLB   C1C17417  26.240  23.740  10.820
  726BOLB   C2C17418  26.040  23.470  11.060
  726BOLB   C3C17419  25.690  23.250  11.160
  726BOLB   C4C17420  25.360  23.170  11.420
  726BOLB   C1D17421  25.830  23.960  10.590
  726BOLB   C2D17422  25.680  23.590  10.690
  726BOLB   C3D17423  25.710  23.160  10.560
  726BOLB   C4D17424  25.380  23.110  10.750
  727BOLB   NC117425  27.040  17.370  11.790
  727BOLB   PO117426  27.260  17.740  12.040
  727BOLB   GL117427  27.570  17.910  11.890
  727BOLB   GL217428  27.640  17.720  11.720
  727BOLB   C1A17429  27.850  18.350  11.640
  727BOLB   C2A17430  28.140  18.420  11.340
  727BOLB   C3A17431  28.590  18.470  11.390
  727BOLB   C4A17432  28.960  18.840  11.540
  727BOLB   C1B17433  28.010  17.910  11.780
  727BOLB   C2B17434  28.330  18.090  11.650
  727BOLB   C3B17435  28.830  18.090  11.700
  727BOLB   C4B17436  29.270  17.940  11.680
  727BOLB   NC217437  30.750  20.300  10.960
  727BOLB   PO217438  31.030  20.060  11.240
  727BOLB   GL317439  30.790  19.750  11.340
  727BOLB   GL417440  30.890  19.510  11.550
  727BOLB   C1C17441  30.370  19.430  11.520
  727BOLB   C2C17442  29.890  19.210  11.580
  727BOLB   C3C17443  29.550  19.400  11.720
  727BOLB   C4C17444  29.170  19.240  11.750
  727BOLB   C1D17445  30.560  19.800  11.800
  727BOLB   C2D17446  30.190  19.920  11.640
  727BOLB   C3D17447  29.920  19.720  11.550
  727BOLB   C4D17448  29.910  19.640  11.940
  728BOLB   NC117449  14.430  16.790   8.130
  728BOLB   PO117450  14.520  16.570   7.690
  728BOLB   GL117451  14.430  16.710   7.330
  728BOLB   GL217452  14.180  16.950   7.350
  728BOLB   C1A17453  14.210  16.740   6.930
  728BOLB   C2A17454  13.910  16.890   6.860
  728BOLB   C3A17455  13.730  16.910   6.490
  728BOLB   C4A17456  13.450  17.250   6.280
  728BOLB   C1B17457  14.440  17.150   7.050
  728BOLB   C2B17458  14.170  17.190   6.640
  728BOLB   C3B17459  13.760  17.440   6.600
  728BOLB   C4B17460  13.580  17.680   6.850
  728BOLB   NC217461  11.840  17.320   4.570
  728BOLB   PO217462  11.920  17.720   4.570
  728BOLB   GL317463  12.020  17.560   5.000
  728BOLB   GL417464  12.330  17.640   4.920
  728BOLB   C1C17465  12.320  17.250   5.220
  728BOLB   C2C17466  12.460  17.320   5.570
  728BOLB   C3C17467  12.910  17.290   5.810
  728BOLB   C4C17468  13.240  17.330   6.020
  728BOLB   C1D17469  12.370  17.860   5.280
  728BOLB   C2D17470  12.520  17.970   5.700
  728BOLB   C3D17471  12.810  17.730   6.030
  728BOLB   C4D17472  13.260  17.760   6.280
  729BOLB   NC117473  24.040  20.340  16.430
  729BOLB   PO117474  24.430  20.460  16.210
  729BOLB   GL117475  24.360  20.800  16.420
  729BOLB   GL217476  24.410  20.950  16.460
  729BOLB   C1A17477  24.460  20.970  16.960
  729BOLB   C2A17478  24.780  21.180  17.200
  729BOLB   C3A17479  24.820  21.550  17.390
  729BOLB   C4A17480  24.830  21.950  17.550
  729BOLB   C1B17481  24.670  21.280  16.390
  729BOLB   C2B17482  25.110  21.470  16.320
  729BOLB   C3B17483  25.460  21.760  16.210
  729BOLB   C4B17484  25.580  22.130  16.020
  729BOLB   NC217485  25.950  23.820  18.350
  729BOLB   PO217486  25.780  24.080  18.740
  729BOLB   GL317487  25.640  23.590  18.700
  729BOLB   GL417488  25.660  23.490  18.990
  729BOLB   C1C17489  25.470  23.410  18.320
  729BOLB   C2C17490  25.250  23.110  17.920
  729BOLB   C3C17491  25.030  22.780  17.680
  729BOLB   C4C17492  24.850  22.460  17.560
  729BOLB   C1D17493  25.620  23.080  18.990
  729BOLB   C2D17494  25.510  22.690  18.830
  729BOLB   C3D17495  25.500  22.210  18.870
  729BOLB   C4D17496  25.650  21.850  19.150
  730BOLB   NC117497  24.770  19.990  10.200
  730BOLB   PO117498  24.720  20.370  10.210
  730BOLB   GL117499  25.100  20.640  10.240
  730BOLB   GL217500  25.320  20.660  10.430
  730BOLB   C1A17501  25.310  20.920  10.010
  730BOLB   C2A17502  25.760  21.040   9.790
  730BOLB   C3A17503  26.090  21.130   9.420
  730BOLB   C4A17504  26.500  21.040   9.310
  730BOLB   C1B17505  25.740  20.820  10.320
  730BOLB   C2B17506  26.100  20.900  10.230
  730BOLB   C3B17507  26.540  20.810  10.370
  730BOLB   C4B17508  26.770  20.740  10.710
  730BOLB   NC217509  27.410  21.470   7.440
  730BOLB   PO217510  27.560  21.810   7.720
  730BOLB   GL317511  27.500  22.130   8.100
  730BOLB   GL417512  27.540  21.800   8.300
  730BOLB   C1C17513  27.230  22.190   8.490
  730BOLB   C2C17514  27.170  21.940   8.720
  730BOLB   C3C17515  26.890  21.720   8.970
  730BOLB   C4C17516  26.810  21.320   9.030
  730BOLB   C1D17517  27.080  21.780   8.240
  730BOLB   C2D17518  26.690  21.600   8.350
  730BOLB   C3D17519  26.490  21.460   8.650
  730BOLB   C4D17520  26.030  21.380   8.520
  731BOLB   NC117521  17.480  23.740  13.170
  731BOLB   PO117522  17.110  23.690  12.920
  731BOLB   GL117523  17.220  24.050  12.940
  731BOLB   GL217524  17.500  24.050  12.620
  731BOLB   C1A17525  17.000  24.430  13.060
  731BOLB   C2A17526  16.940  24.860  13.210
  731BOLB   C3A17527  16.780  25.260  13.080
  731BOLB   C4A17528  16.380  25.480  13.110
  731BOLB   C1B17529  17.490  24.440  12.730
  731BOLB   C2B17530  17.190  24.860  12.750
  731BOLB   C3B17531  17.220  25.280  12.660
  731BOLB   C4B17532  17.140  25.720  12.450
  731BOLB   NC217533  15.430  27.780  12.420
  731BOLB   PO217534  15.450  27.590  12.820
  731BOLB   GL317535  15.650  27.280  13.080
  731BOLB   GL417536  15.800  27.050  12.860
  731BOLB   C1C17537  15.670  26.900  13.380
  731BOLB   C2C17538  15.870  26.480  13.510
  731BOLB   C3C17539  16.080  26.130  13.460
  731BOLB   C4C17540  16.180  25.810  13.130
  731BOLB   C1D17541  15.700  26.620  12.510
  731BOLB   C2D17542  15.910  26.440  12.190
  731BOLB   C3D17543  16.070  25.990  12.060
  731BOLB   C4D17544  16.090  25.700  11.790
  732BOLB   NC117545  26.210  19.170  11.070
  732BOLB   PO117546  26.130  19.500  11.470
  732BOLB   GL117547  26.450  19.810  11.390
  732BOLB   GL217548  26.640  19.910  11.020
  732BOLB   C1A17549  26.690  20.190  11.540
  732BOLB   C2A17550  26.860  20.370  11.200
  732BOLB   C3A17551  27.160  20.670  11.150
  732BOLB   C4A17552  27.540  20.730  11.410
  732BOLB   C1B17553  26.830  19.770  10.730
  732BOLB   C2B17554  27.090  19.880  10.390
  732BOLB   C3B17555  27.170  20.020  10.060
  732BOLB   C4B17556  27.180  20.210   9.620
  732BOLB   NC217557  28.750  22.760  10.640
  732BOLB   PO217558  28.860  22.360  10.510
  732BOLB   GL317559  28.700  22.310  10.810
  732BOLB   GL417560  28.800  22.430  11.090
  732BOLB   C1C17561  28.320  22.140  11.050
  732BOLB   C2C17562  28.150  21.840  11.290
  732BOLB   C3C17563  27.910  21.490  11.330
  732BOLB   C4C17564  27.780  21.070  11.560
  732BOLB   C1D17565  28.600  22.160  11.480
  732BOLB   C2D17566  28.250  21.910  11.760
  732BOLB   C3D17567  28.000  21.500  11.790
  732BOLB   C4D17568  27.890  21.240  12.160
  733BOLB   NC117569  22.890  22.010  11.250
  733BOLB   PO117570  22.640  22.350  11.200
  733BOLB   GL117571  22.670  22.650  10.930
  733BOLB   GL217572  22.960  22.670  10.970
  733BOLB   C1A17573  22.520  23.050  10.800
  733BOLB   C2A17574  22.600  23.420  10.650
  733BOLB   C3A17575  22.600  23.920  10.580
  733BOLB   C4A17576  22.650  24.320  10.770
  733BOLB   C1B17577  23.010  23.030  10.770
  733BOLB   C2B17578  23.290  23.390  10.800
  733BOLB   C3B17579  23.420  23.750  10.770
  733BOLB   C4B17580  23.870  23.940  10.840
  733BOLB   NC217581  22.730  26.670  10.340
  733BOLB   PO217582  22.540  26.460  10.010
  733BOLB   GL317583  22.800  26.170  10.180
  733BOLB   GL417584  22.940  25.880  10.000
  733BOLB   C1C17585  22.940  26.010  10.600
  733BOLB   C2C17586  22.890  25.560  10.720
  733BOLB   C3C17587  22.950  25.120  10.750
  733BOLB   C4C17588  22.650  24.840  10.720
  733BOLB   C1D17589  22.680  25.590  10.240
  733BOLB   C2D17590  22.560  25.290  10.480
  733BOLB   C3D17591  22.210  25.100  10.840
  733BOLB   C4D17592  22.280  24.910  11.300
  734BOLB   NC117593  25.570  20.300  14.170
  734BOLB   PO117594  25.670  20.370  14.490
  734BOLB   GL117595  25.990  20.580  14.640
  734BOLB   GL217596  26.310  20.530  14.450
  734BOLB   C1A17597  26.230  20.790  14.970
  734BOLB   C2A17598  26.480  20.930  15.370
  734BOLB   C3A17599  26.900  20.990  15.560
  734BOLB   C4A17600  27.000  21.220  15.920
  734BOLB   C1B17601  26.650  20.560  14.440
  734BOLB   C2B17602  26.930  21.010  14.480
  734BOLB   C3B17603  27.300  21.060  14.740
  734BOLB   C4B17604  27.370  21.480  14.810
  734BOLB   NC217605  27.360  23.450  17.040
  734BOLB   PO217606  27.680  23.210  17.130
  734BOLB   GL317607  27.250  22.980  16.890
  734BOLB   GL417608  27.420  22.790  16.700
  734BOLB   C1C17609  26.840  22.720  16.880
  734BOLB   C2C17610  26.820  22.340  16.590
  734BOLB   C3C17611  26.820  21.880  16.370
  734BOLB   C4C17612  26.870  21.540  16.100
  734BOLB   C1D17613  27.310  22.390  16.910
  734BOLB   C2D17614  27.000  22.190  17.080
  734BOLB   C3D17615  26.820  21.800  16.870
  734BOLB   C4D17616  26.720  21.360  16.640
  735BOLB   NC117617  26.120  19.250  15.440
  735BOLB   PO117618  26.540  19.100  15.290
  735BOLB   GL117619  26.610  19.520  15.390
  735BOLB   GL217620  26.810  19.490  15.640
  735BOLB   C1A17621  26.780  19.950  15.200
  735BOLB   C2A17622  27.050  20.230  14.940
  735BOLB   C3A17623  27.150  20.520  14.620
  735BOLB   C4A17624  27.460  20.580  14.490
  735BOLB   C1B17625  27.170  19.660  15.920
  735BOLB   C2B17626  27.330  19.890  16.120
  735BOLB   C3B17627  27.560  20.070  16.470
  735BOLB   C4B17628  27.840  20.430  16.500
  735BOLB   NC217629  29.200  21.870  15.820
  735BOLB   PO217630  28.910  22.150  15.600
  735BOLB   GL317631  28.790  21.790  15.490
  735BOLB   GL417632  28.880  21.570  15.590
  735BOLB   C1C17633  28.530  21.450  15.260
  735BOLB   C2C17634  28.470  21.030  15.240
  735BOLB   C3C17635  28.180  20.820  14.990
  735BOLB   C4C17636  27.830  20.610  14.720
  735BOLB   C1D17637  28.690  21.280  15.790
  735BOLB   C2D17638  28.360  21.060  15.950
  735BOLB   C3D17639  27.930  21.200  16.160
  735BOLB   C4D17640  27.800  21.640  15.980
  736BOLB   NC117641  18.060  27.050  16.560
  736BOLB   PO117642  17.780  27.070  16.880
  736BOLB   GL117643  17.810  26.640  16.870
  736BOLB   GL217644  17.960  26.480  17.050
  736BOLB   C1A17645  17.670  26.160  16.760
  736BOLB   C2A17646  18.050  25.890  16.660
  736BOLB   C3A17647  18.260  25.610  16.450
  736BOLB   C4A17648  18.490  25.300  16.300
  736BOLB   C1B17649  18.160  26.410  16.660
  736BOLB   C2B17650  18.040  26.330  16.290
  736BOLB   C3B17651  18.080  26.050  16.020
  736BOLB   C4B17652  18.220  25.780  15.850
  736BOLB   NC217653  18.350  27.730  15.490
  736BOLB   PO217654  18.640  27.400  15.550
  736BOLB   GL317655  18.860  27.070  15.340
  736BOLB   GL417656  19.150  26.910  15.150
  736BOLB   C1C17657  18.700  26.660  15.400
  736BOLB   C2C17658  18.800  26.210  15.450
  736BOLB   C3C17659  18.720  25.910  15.610
  736BOLB   C4C17660  18.630  25.500  15.840
  736BOLB   C1D17661  19.270  26.590  15.030
  736BOLB   C2D17662  19.430  26.190  15.020
  736BOLB   C3D17663  19.760  25.880  15.220
  736BOLB   C4D17664  19.770  25.700  15.630
  737BOLB   NC117665  24.890  19.220   9.910
  737BOLB   PO117666  24.830  19.270   9.500
  737BOLB   GL117667  24.900  19.440   9.060
  737BOLB   GL217668  24.720  19.310   8.790
  737BOLB   C1A17669  24.890  19.840   8.790
  737BOLB   C2A17670  24.970  20.210   8.690
  737BOLB   C3A17671  25.070  20.550   8.440
  737BOLB   C4A17672  25.370  20.670   8.220
  737BOLB   C1B17673  24.850  19.280   8.300
  737BOLB   C2B17674  25.090  19.470   7.970
  737BOLB   C3B17675  25.120  19.740   7.640
  737BOLB   C4B17676  25.220  19.910   7.200
  737BOLB   NC217677  27.280  22.330   7.680
  737BOLB   PO217678  27.170  21.960   7.430
  737BOLB   GL317679  26.880  21.930   7.790
  737BOLB   GL417680  26.890  22.280   8.050
  737BOLB   C1C17681  26.500  21.590   7.740
  737BOLB   C2C17682  26.160  21.340   7.570
  737BOLB   C3C17683  26.060  20.900   7.830
  737BOLB   C4C17684  25.740  20.670   8.000
  737BOLB   C1D17685  26.430  22.130   8.060
  737BOLB   C2D17686  26.220  21.720   8.140
  737BOLB   C3D17687  25.960  21.370   8.030
  737BOLB   C4D17688  25.560  21.280   7.920
  738BOLB   NC117689  23.210  21.730   9.910
  738BOLB   PO117690  23.480  21.350   9.970
  738BOLB   GL117691  23.450  21.500   9.530
  738BOLB   GL217692  23.150  21.580   9.360
  738BOLB   C1A17693  23.710  21.770   9.320
  738BOLB   C2A17694  23.700  22.210   9.080
  738BOLB   C3A17695  23.720  22.640   9.220
  738BOLB   C4A17696  23.740  23.120   9.250
  738BOLB   C1B17697  23.270  22.010   9.220
  738BOLB   C2B17698  23.240  22.460   9.120
  738BOLB   C3B17699  23.070  22.800   8.960
  738BOLB   C4B17700  22.860  23.150   9.020
  738BOLB   NC217701  24.220  24.150   7.170
  738BOLB   PO217702  24.530  24.080   7.520
  738BOLB   GL317703  24.290  23.870   7.680
  738BOLB   GL417704  24.050  24.070   7.790
  738BOLB   C1C17705  24.090  23.590   7.890
  738BOLB   C2C17706  23.960  23.640   8.260
  738BOLB   C3C17707  23.660  23.510   8.580
  738BOLB   C4C17708  23.760  23.460   8.950
  738BOLB   C1D17709  23.830  24.150   8.110
  738BOLB   C2D17710  23.710  24.120   8.450
  738BOLB   C3D17711  23.400  23.980   8.680
  738BOLB   C4D17712  23.250  23.640   8.880
  739BOLB   NC117713  22.630  22.860  13.450
  739BOLB   PO117714  23.020  22.680  13.520
  739BOLB   GL117715  23.490  22.970  13.480
  739BOLB   GL217716  23.320  23.120  13.710
  739BOLB   C1A17717  23.730  23.180  13.160
  739BOLB   C2A17718  23.850  23.450  12.900
  739BOLB   C3A17719  24.070  23.370  12.450
  739BOLB   C4A17720  24.250  23.660  12.290
  739BOLB   C1B17721  23.570  23.360  14.060
  739BOLB   C2B17722  23.490  23.760  14.370
  739BOLB   C3B17723  23.630  24.090  14.560
  739BOLB   C4B17724  23.900  24.310  14.830
  739BOLB   NC217725  26.190  25.360  12.400
  739BOLB   PO217726  25.950  25.140  12.710
  739BOLB   GL317727  25.610  24.900  12.900
  739BOLB   GL417728  25.430  25.080  13.190
  739BOLB   C1C17729  25.290  24.630  12.720
  739BOLB   C2C17730  24.980  24.630  12.660
  739BOLB   C3C17731  24.690  24.380  12.410
  739BOLB   C4C17732  24.480  24.050  12.280
  739BOLB   C1D17733  25.110  24.810  13.140
  739BOLB   C2D17734  24.870  24.460  13.140
  739BOLB   C3D17735  24.820  24.030  13.150
  739BOLB   C4D17736  24.620  23.680  13.330
  740BOLB   NC117737  23.980  21.650  14.780
  740BOLB   PO117738  24.210  21.330  14.840
  740BOLB   GL117739  24.520  21.710  14.860
  740BOLB   GL217740  24.340  21.950  14.840
  740BOLB   C1A17741  24.860  21.880  14.920
  740BOLB   C2A17742  25.060  22.180  15.070
  740BOLB   C3A17743  25.100  22.580  15.290
  740BOLB   C4A17744  25.430  22.860  15.330
  740BOLB   C1B17745  24.490  22.200  15.070
  740BOLB   C2B17746  24.690  22.360  15.450
  740BOLB   C3B17747  24.710  22.800  15.760
  740BOLB   C4B17748  24.550  23.240  15.840
  740BOLB   NC217749  27.060  24.550  15.300
  740BOLB   PO217750  26.840  24.660  15.670
  740BOLB   GL317751  26.680  24.220  15.600
  740BOLB   GL417752  26.480  24.250  15.810
  740BOLB   C1C17753  26.570  23.840  15.410
  740BOLB   C2C17754  26.400  23.630  15.090
  740BOLB   C3C17755  26.080  23.350  15.080
  740BOLB   C4C17756  25.600  23.180  15.110
  740BOLB   C1D17757  26.140  24.050  15.680
  740BOLB   C2D17758  26.060  23.800  15.400
  740BOLB   C3D17759  25.610  23.670  15.280
  740BOLB   C4D17760  25.310  23.410  15.520
  741BOLB   NC117761  26.120  17.660  17.750
  741BOLB   PO117762  25.800  17.910  17.550
  741BOLB   GL117763  26.030  18.270  17.830
  741BOLB   GL217764  25.760  18.430  18.030
  741BOLB   C1A17765  26.440  18.420  17.900
  741BOLB   C2A17766  26.630  18.430  18.330
  741BOLB   C3A17767  26.660  18.480  18.800
  741BOLB   C4A17768  26.590  18.490  19.190
  741BOLB   C1B17769  26.100  18.490  18.270
  741BOLB   C2B17770  26.200  18.580  18.720
  741BOLB   C3B17771  26.160  18.780  19.230
  741BOLB   C4B17772  25.890  19.010  19.540
  741BOLB   NC217773  27.800  19.080  21.340
  741BOLB   PO217774  28.240  19.090  21.110
  741BOLB   GL317775  27.960  18.950  20.780
  741BOLB   GL417776  28.080  18.890  20.520
  741BOLB   C1C17777  27.460  18.900  20.590
  741BOLB   C2C17778  27.120  18.740  20.290
  741BOLB   C3C17779  26.810  18.580  20.000
  741BOLB   C4C17780  26.670  18.570  19.620
  741BOLB   C1D17781  27.790  18.580  20.410
  741BOLB   C2D17782  27.480  18.340  20.410
  741BOLB   C3D17783  27.240  18.010  20.270
  741BOLB   C4D17784  26.800  17.800  20.310
  742BOLB   NC117785  25.230  18.890   9.670
  742BOLB   PO117786  25.350  19.040  10.060
  742BOLB   GL117787  25.460  19.460   9.910
  742BOLB   GL217788  25.680  19.550  10.130
  742BOLB   C1A17789  25.370  19.850   9.830
  742BOLB   C2A17790  25.520  20.140   9.530
  742BOLB   C3A17791  25.710  20.380   9.320
  742BOLB   C4A17792  26.100  20.640   9.210
  742BOLB   C1B17793  26.140  19.640  10.040
  742BOLB   C2B17794  26.500  19.550   9.830
  742BOLB   C3B17795  26.750  19.220   9.440
  742BOLB   C4B17796  26.980  18.850   9.200
  742BOLB   NC217797  28.390  22.210   9.270
  742BOLB   PO217798  28.060  22.140   8.860
  742BOLB   GL317799  27.740  21.850   8.770
  742BOLB   GL417800  27.880  21.630   8.910
  742BOLB   C1C17801  27.450  21.510   8.700
  742BOLB   C2C17802  26.980  21.320   8.580
  742BOLB   C3C17803  26.680  20.970   8.750
  742BOLB   C4C17804  26.360  20.750   8.870
  742BOLB   C1D17805  27.510  21.520   9.210
  742BOLB   C2D17806  27.120  21.280   9.480
  742BOLB   C3D17807  26.960  21.020   9.800
  742BOLB   C4D17808  26.980  20.960  10.250
  743BOLB   NC117809  18.060  20.710   8.570
  743BOLB   PO117810  18.450  20.810   8.360
  743BOLB   GL117811  18.260  21.000   7.980
  743BOLB   GL217812  18.150  20.920   7.730
  743BOLB   C1A17813  17.940  21.340   7.780
  743BOLB   C2A17814  17.780  21.600   7.460
  743BOLB   C3A17815  17.730  21.680   7.000
  743BOLB   C4A17816  17.710  21.630   6.640
  743BOLB   C1B17817  18.420  20.900   7.420
  743BOLB   C2B17818  18.620  21.150   7.160
  743BOLB   C3B17819  18.460  21.460   7.020
  743BOLB   C4B17820  18.170  21.640   6.770
  743BOLB   NC217821  17.130  23.040   5.000
  743BOLB   PO217822  16.890  22.850   4.660
  743BOLB   GL317823  17.240  22.580   4.870
  743BOLB   GL417824  17.130  22.210   4.870
  743BOLB   C1C17825  17.450  22.340   5.230
  743BOLB   C2C17826  17.460  22.200   5.600
  743BOLB   C3C17827  17.550  21.850   5.820
  743BOLB   C4C17828  17.580  21.750   6.220
  743BOLB   C1D17829  16.950  22.390   5.310
  743BOLB   C2D17830  17.040  22.400   5.790
  743BOLB   C3D17831  17.210  22.180   6.140
  743BOLB   C4D17832  17.140  21.880   6.410
  744BOLB   NC117833  29.560  18.660  19.670
  744BOLB   PO117834  29.560  18.640  19.240
  744BOLB   GL117835  29.210  18.500  18.950
  744BOLB   GL217836  28.980  18.700  19.080
  744BOLB   C1A17837  29.140  18.310  18.630
  744BOLB   C2A17838  28.820  17.910  18.430
  744BOLB   C3A17839  28.610  17.940  17.960
  744BOLB   C4A17840  28.440  18.280  17.560
  744BOLB   C1B17841  29.000  18.800  18.590
  744BOLB   C2B17842  28.960  18.710  18.220
  744BOLB   C3B17843  28.690  18.760  17.840
  744BOLB   C4B17844  28.460  18.560  17.960
  744BOLB   NC217845  29.990  20.250  17.070
  744BOLB   PO217846  30.010  19.820  17.260
  744BOLB   GL317847  29.530  19.580  17.170
  744BOLB   GL417848  29.340  19.780  16.910
  744BOLB   C1C17849  29.100  19.540  17.350
  744BOLB   C2C17850  28.760  19.530  17.140
  744BOLB   C3C17851  28.570  19.100  17.150
  744BOLB   C4C17852  28.400  18.750  17.390
  744BOLB   C1D17853  29.090  19.560  16.770
  744BOLB   C2D17854  28.700  19.340  16.660
  744BOLB   C3D17855  28.440  19.120  16.520
  744BOLB   C4D17856  28.040  18.950  16.350
  745BOLB   NC117857  20.630  17.030  19.270
  745BOLB   PO117858  20.560  17.410  19.550
  745BOLB   GL117859  20.640  17.320  20.030
  745BOLB   GL217860  20.840  17.170  20.190
  745BOLB   C1A17861  20.420  17.460  20.400
  745BOLB   C2A17862  20.410  17.410  20.820
  745BOLB   C3A17863  20.400  17.270  21.270
  745BOLB   C4A17864  20.500  17.220  21.650
  745BOLB   C1B17865  20.810  17.190  20.630
  745BOLB   C2B17866  20.860  17.300  21.060
  745BOLB   C3B17867  20.910  17.480  21.430
  745BOLB   C4B17868  21.110  17.840  21.750
  745BOLB   NC217869  20.230  16.890  24.330
  745BOLB   PO217870  20.240  17.260  24.060
  745BOLB   GL317871  20.260  17.320  23.650
  745BOLB   GL417872  19.960  17.280  23.560
  745BOLB   C1C17873  20.340  17.240  23.210
  745BOLB   C2C17874  20.530  17.160  22.900
  745BOLB   C3C17875  20.660  17.140  22.470
  745BOLB   C4C17876  20.590  17.070  22.030
  745BOLB   C1D17877  19.830  17.370  23.150
  745BOLB   C2D17878  19.720  17.440  22.660
  745BOLB   C3D17879  19.650  17.490  22.190
  745BOLB   C4D17880  19.270  17.710  21.890
  746BOLB   NC117881  25.780  22.740  20.060
  746BOLB   PO117882  25.520  22.780  19.760
  746BOLB   GL117883  25.430  22.470  19.520
  746BOLB   GL217884  25.070  22.600  19.460
  746BOLB   C1A17885  25.220  22.110  19.420
  746BOLB   C2A17886  25.140  21.710  19.270
  746BOLB   C3A17887  25.330  21.450  18.960
  746BOLB   C4A17888  25.290  20.970  18.920
  746BOLB   C1B17889  24.670  22.450  19.310
  746BOLB   C2B17890  24.300  22.540  19.470
  746BOLB   C3B17891  24.140  22.170  19.270
  746BOLB   C4B17892  24.100  21.730  19.120
  746BOLB   NC217893  26.520  21.940  20.170
  746BOLB   PO217894  26.920  21.790  19.880
  746BOLB   GL317895  26.740  21.560  19.680
  746BOLB   GL417896  26.820  21.250  19.810
  746BOLB   C1C17897  26.520  21.290  19.350
  746BOLB   C2C17898  26.230  20.940  19.130
  746BOLB   C3C17899  25.980  20.610  18.920
  746BOLB   C4C17900  25.570  20.640  18.990
  746BOLB   C1D17901  26.670  20.910  19.700
  746BOLB   C2D17902  26.650  20.480  19.520
  746BOLB   C3D17903  26.530  20.220  19.350
  746BOLB   C4D17904  26.560  19.770  19.270
  747BOLB   NC117905  16.580  22.330  15.240
  747BOLB   PO117906  16.580  22.810  15.600
  747BOLB   GL117907  16.420  23.070  15.770
  747BOLB   GL217908  16.160  23.150  15.620
  747BOLB   C1A17909  16.530  23.330  16.060
  747BOLB   C2A17910  16.590  23.650  16.240
  747BOLB   C3A17911  16.430  23.980  16.520
  747BOLB   C4A17912  16.630  24.370  16.570
  747BOLB   C1B17913  16.040  23.250  16.000
  747BOLB   C2B17914  16.140  23.510  16.450
  747BOLB   C3B17915  15.850  23.810  16.540
  747BOLB   C4B17916  15.560  24.140  16.540
  747BOLB   NC217917  15.700  25.680  18.580
  747BOLB   PO217918  15.550  25.170  18.580
  747BOLB   GL317919  15.630  24.820  18.360
  747BOLB   GL417920  15.660  24.480  18.250
  747BOLB   C1C17921  15.870  24.880  18.040
  747BOLB   C2C17922  16.070  24.770  17.640
  747BOLB   C3C17923  16.210  24.800  17.160
  747BOLB   C4C17924  16.400  24.730  16.810
  747BOLB   C1D17925  15.740  24.410  17.850
  747BOLB   C2D17926  15.650  24.070  17.480
  747BOLB   C3D17927  15.980  23.890  17.180
  747BOLB   C4D17928  16.200  23.580  16.920
  748BOLB   NC117929  11.440  16.030  17.050
  748BOLB   PO117930  11.050  16.310  17.040
  748BOLB   GL117931  10.780  16.460  17.340
  748BOLB   GL217932  10.990  16.430  17.530
  748BOLB   C1A17933  10.410  16.650  17.330
  748BOLB   C2A17934  10.010  16.870  17.380
  748BOLB   C3A17935   9.740  17.170  17.150
  748BOLB   C4A17936   9.380  17.260  17.290
  748BOLB   C1B17937  10.570  16.480  17.790
  748BOLB   C2B17938  10.450  16.540  18.180
  748BOLB   C3B17939  10.290  16.680  18.470
  748BOLB   C4B17940  10.170  17.030  18.830
  748BOLB   NC217941   6.700  17.000  17.150
  748BOLB   PO217942   6.940  17.430  17.320
  748BOLB   GL317943   7.370  17.600  17.250
  748BOLB   GL417944   7.600  17.730  17.440
  748BOLB   C1C17945   7.780  17.500  17.070
  748BOLB   C2C17946   8.170  17.420  17.110
  748BOLB   C3C17947   8.570  17.380  17.390
  748BOLB   C4C17948   9.010  17.330  17.170
  748BOLB   C1D17949   7.530  18.100  17.100
  748BOLB   C2D17950   7.740  18.330  16.890
  748BOLB   C3D17951   7.980  18.620  16.610
  748BOLB   C4D17952   7.930  19.080  16.730
  749BOLB   NC117953  25.550  11.540   9.140
  749BOLB   PO117954  25.670  12.010   8.940
  749BOLB   GL117955  25.860  11.720   8.670
  749BOLB   GL217956  25.870  11.340   8.790
  749BOLB   C1A17957  26.160  11.810   8.350
  749BOLB   C2A17958  26.430  11.560   8.130
  749BOLB   C3A17959  26.540  11.500   7.680
  749BOLB   C4A17960  26.670  11.430   7.240
  749BOLB   C1B17961  26.180  11.140   8.490
  749BOLB   C2B17962  26.140  10.780   8.220
  749BOLB   C3B17963  26.080  10.590   7.910
  749BOLB   C4B17964  26.140  10.500   7.490
  749BOLB   NC217965  28.070  11.360   5.300
  749BOLB   PO217966  28.380  11.410   5.510
  749BOLB   GL317967  28.100  11.630   5.660
  749BOLB   GL417968  28.120  11.870   5.910
  749BOLB   C1C17969  27.670  11.660   5.830
  749BOLB   C2C17970  27.350  11.630   6.160
  749BOLB   C3C17971  27.180  11.510   6.550
  749BOLB   C4C17972  26.990  11.430   6.880
  749BOLB   C1D17973  27.900  11.630   6.290
  749BOLB   C2D17974  27.730  11.520   6.720
  749BOLB   C3D17975  27.400  11.680   6.960
  749BOLB   C4D17976  27.100  11.830   7.220
  750BOLB   NC117977  22.590  20.890   9.430
  750BOLB   PO117978  22.660  21.370   9.480
  750BOLB   GL117979  22.720  21.410   9.150
  750BOLB   GL217980  22.900  21.200   9.080
  750BOLB   C1A17981  22.840  21.800   8.960
  750BOLB   C2A17982  22.980  22.090   8.770
  750BOLB   C3A17983  23.100  22.520   8.560
  750BOLB   C4A17984  23.490  22.610   8.290
  750BOLB   C1B17985  23.200  21.440   8.900
  750BOLB   C2B17986  23.310  21.800   8.670
  750BOLB   C3B17987  23.500  22.160   8.520
  750BOLB   C4B17988  23.650  22.580   8.760
  750BOLB   NC217989  24.930  23.100   6.190
  750BOLB   PO217990  24.720  23.090   6.550
  750BOLB   GL317991  24.600  22.890   6.890
  750BOLB   GL417992  24.680  23.140   7.150
  750BOLB   C1C17993  24.590  22.450   7.030
  750BOLB   C2C17994  24.450  22.230   7.440
  750BOLB   C3C17995  24.270  22.420   7.780
  750BOLB   C4C17996  23.950  22.570   8.160
  750BOLB   C1D17997  24.580  22.710   7.430
  750BOLB   C2D17998  24.690  22.640   7.870
  750BOLB   C3D17999  24.480  22.480   8.230
  750BOLB   C4D18000  24.180  22.380   8.610
  751BOLB   NC118001  23.860  15.410  24.420
  751BOLB   PO118002  23.660  15.010  24.280
  751BOLB   GL118003  23.530  14.940  23.890
  751BOLB   GL218004  23.160  14.810  23.870
  751BOLB   C1A18005  23.480  14.900  23.440
  751BOLB   C2A18006  23.520  14.800  23.070
  751BOLB   C3A18007  23.410  15.000  22.710
  751BOLB   C4A18008  23.710  14.690  22.370
  751BOLB   C1B18009  22.980  14.920  23.500
  751BOLB   C2B18010  23.000  14.720  23.140
  751BOLB   C3B18011  22.750  14.400  23.040
  751BOLB   C4B18012  22.610  14.150  23.170
  751BOLB   NC218013  25.550  14.170  24.000
  751BOLB   PO218014  25.790  13.950  23.650
  751BOLB   GL318015  25.490  14.250  23.470
  751BOLB   GL418016  25.380  14.530  23.750
  751BOLB   C1C18017  25.170  14.120  23.110
  751BOLB   C2C18018  24.910  14.000  22.690
  751BOLB   C3C18019  24.510  14.200  22.490
  751BOLB   C4C18020  24.090  14.440  22.400
  751BOLB   C1D18021  25.150  14.690  23.370
  751BOLB   C2D18022  25.360  14.570  22.990
  751BOLB   C3D18023  25.350  14.220  22.580
  751BOLB   C4D18024  25.470  13.890  22.420
  752BOLB   NC118025  13.030  20.380  11.310
  752BOLB   PO118026  13.130  20.800  11.430
  752BOLB   GL118027  12.900  20.920  11.150
  752BOLB   GL218028  12.860  20.680  10.940
  752BOLB   C1A18029  12.610  21.180  10.960
  752BOLB   C2A18030  12.440  21.490  10.730
  752BOLB   C3A18031  12.370  21.900  10.460
  752BOLB   C4A18032  11.900  22.110  10.440
  752BOLB   C1B18033  12.530  20.780  10.670
  752BOLB   C2B18034  12.280  21.080  10.520
  752BOLB   C3B18035  11.950  21.330  10.680
  752BOLB   C4B18036  11.670  21.690  10.580
  752BOLB   NC218037   9.280  23.080  10.830
  752BOLB   PO218038   9.680  22.940  10.740
  752BOLB   GL318039  10.120  22.590  10.860
  752BOLB   GL418040   9.990  22.600  11.160
  752BOLB   C1C18041  10.410  22.340  10.710
  752BOLB   C2C18042  10.810  22.250  10.660
  752BOLB   C3C18043  11.070  22.260  10.400
  752BOLB   C4C18044  11.440  22.190  10.300
  752BOLB   C1D18045  10.500  22.680  11.160
  752BOLB   C2D18046  10.840  22.350  11.190
  752BOLB   C3D18047  10.980  22.100  11.490
  752BOLB   C4D18048  11.460  21.940  11.610
  753BOLB   NC118049  13.740  22.170  13.170
  753BOLB   PO118050  13.530  22.090  12.840
  753BOLB   GL118051  13.410  22.540  12.760
  753BOLB   GL218052  13.620  22.530  12.450
  753BOLB   C1A18053  13.320  23.000  12.600
  753BOLB   C2A18054  12.910  23.140  12.410
  753BOLB   C3A18055  12.780  23.400  12.140
  753BOLB   C4A18056  12.840  23.790  12.210
  753BOLB   C1B18057  13.090  22.600  12.370
  753BOLB   C2B18058  12.710  22.750  12.120
  753BOLB   C3B18059  12.350  23.010  12.140
  753BOLB   C4B18060  11.930  23.070  11.970
  753BOLB   NC218061  12.730  25.500  11.700
  753BOLB   PO218062  13.130  25.610  11.570
  753BOLB   GL318063  13.040  25.100  11.570
  753BOLB   GL418064  13.020  25.040  11.190
  753BOLB   C1C18065  12.640  24.820  11.370
  753BOLB   C2C18066  12.260  24.680  11.650
  753BOLB   C3C18067  12.460  24.520  12.070
  753BOLB   C4C18068  12.820  24.300  12.170
  753BOLB   C1D18069  13.490  24.950  11.310
  753BOLB   C2D18070  13.930  24.720  11.330
  753BOLB   C3D18071  14.050  24.210  11.270
  753BOLB   C4D18072  14.320  23.920  11.560
  754BOLB   NC118073  24.470  14.170   7.950
  754BOLB   PO118074  24.040  14.370   7.800
  754BOLB   GL118075  24.020  14.290   7.310
  754BOLB   GL218076  24.060  14.600   7.080
  754BOLB   C1A18077  24.350  14.170   6.990
  754BOLB   C2A18078  24.680  14.110   6.660
  754BOLB   C3A18079  24.690  14.490   6.500
  754BOLB   C4A18080  25.100  14.650   6.460
  754BOLB   C1B18081  23.790  14.780   6.800
  754BOLB   C2B18082  23.640  14.900   6.350
  754BOLB   C3B18083  23.420  14.770   5.980
  754BOLB   C4B18084  23.410  14.880   5.520
  754BOLB   NC218085  27.070  14.820   4.550
  754BOLB   PO218086  26.620  14.820   4.480
  754BOLB   GL318087  26.310  14.840   4.770
  754BOLB   GL418088  26.490  14.570   5.100
  754BOLB   C1C18089  26.040  14.790   5.160
  754BOLB   C2C18090  25.940  14.510   5.410
  754BOLB   C3C18091  25.680  14.460   5.810
  754BOLB   C4C18092  25.380  14.750   6.140
  754BOLB   C1D18093  26.850  14.400   5.340
  754BOLB   C2D18094  26.860  14.390   5.810
  754BOLB   C3D18095  26.590  14.340   6.110
  754BOLB   C4D18096  26.500  14.470   6.560
  755BOLB   NC118097  24.540  19.970  16.890
  755BOLB   PO118098  24.560  19.900  16.450
  755BOLB   GL118099  24.910  20.140  16.540
  755BOLB   GL218100  24.910  20.440  16.400
  755BOLB   C1A18101  25.030  20.390  16.880
  755BOLB   C2A18102  25.260  20.630  17.070
  755BOLB   C3A18103  25.400  21.040  17.250
  755BOLB   C4A18104  25.560  20.940  17.610
  755BOLB   C1B18105  25.270  20.620  16.500
  755BOLB   C2B18106  25.650  20.880  16.710
  755BOLB   C3B18107  25.830  21.000  17.000
  755BOLB   C4B18108  25.740  21.460  17.050
  755BOLB   NC218109  27.170  22.390  18.890
  755BOLB   PO218110  27.270  22.050  19.130
  755BOLB   GL318111  27.150  21.680  18.920
  755BOLB   GL418112  27.440  21.520  18.990
  755BOLB   C1C18113  26.680  21.420  18.800
  755BOLB   C2C18114  26.220  21.320  18.690
  755BOLB   C3C18115  26.040  21.240  18.340
  755BOLB   C4C18116  25.770  21.210  17.930
  755BOLB   C1D18117  27.500  21.070  19.080
  755BOLB   C2D18118  27.500  20.610  19.040
  755BOLB   C3D18119  27.710  20.290  18.770
  755BOLB   C4D18120  28.070  20.120  18.820
  756BOLB   NC118121  26.280  19.620  11.910
  756BOLB   PO118122  26.500  19.690  12.290
  756BOLB   GL118123  26.870  19.720  12.100
  756BOLB   GL218124  26.760  19.580  11.830
  756BOLB   C1A18125  27.290  19.970  12.100
  756BOLB   C2A18126  27.610  20.180  12.060
  756BOLB   C3A18127  28.000  20.270  11.880
  756BOLB   C4A18128  28.310  20.280  11.640
  756BOLB   C1B18129  26.990  19.780  11.370
  756BOLB   C2B18130  27.240  19.880  10.920
  756BOLB   C3B18131  27.520  20.030  10.540
  756BOLB   C4B18132  27.940  20.060  10.430
  756BOLB   NC218133  30.240  22.070  11.480
  756BOLB   PO218134  30.160  21.720  11.530
  756BOLB   GL318135  29.770  21.520  11.730
  756BOLB   GL418136  29.760  21.150  11.710
  756BOLB   C1C18137  29.390  21.450  11.600
  756BOLB   C2C18138  29.010  21.220  11.710
  756BOLB   C3C18139  28.840  21.020  11.400
  756BOLB   C4C18140  28.600  20.620  11.540
  756BOLB   C1D18141  29.430  21.150  11.970
  756BOLB   C2D18142  29.020  20.980  12.270
  756BOLB   C3D18143  28.800  20.720  12.410
  756BOLB   C4D18144  28.650  20.270  12.440
  757BOLB   NC118145  21.740  22.660  16.220
  757BOLB   PO118146  21.280  22.620  16.410
  757BOLB   GL118147  21.230  22.840  16.850
  757BOLB   GL218148  21.110  23.150  16.790
  757BOLB   C1A18149  21.400  23.060  17.170
  757BOLB   C2A18150  21.520  23.490  17.250
  757BOLB   C3A18151  21.730  23.760  17.190
  757BOLB   C4A18152  22.110  23.790  17.270
  757BOLB   C1B18153  21.010  23.410  17.030
  757BOLB   C2B18154  21.160  23.760  17.000
  757BOLB   C3B18155  21.430  24.120  17.060
  757BOLB   C4B18156  21.850  24.260  16.930
  757BOLB   NC218157  23.620  25.770  17.640
  757BOLB   PO218158  23.170  25.660  17.620
  757BOLB   GL318159  22.750  25.470  17.560
  757BOLB   GL418160  23.000  25.210  17.490
  757BOLB   C1C18161  22.460  25.220  17.670
  757BOLB   C2C18162  22.450  24.890  17.470
  757BOLB   C3C18163  22.380  24.530  17.230
  757BOLB   C4C18164  22.350  24.160  17.150
  757BOLB   C1D18165  22.930  24.780  17.330
  757BOLB   C2D18166  22.800  24.420  17.590
  757BOLB   C3D18167  22.580  24.140  17.570
  757BOLB   C4D18168  22.220  24.030  17.670
  758BOLB   NC118169  14.570  19.720   9.800
  758BOLB   PO118170  14.610  19.950   9.310
  758BOLB   GL118171  14.390  20.230   9.040
  758BOLB   GL218172  14.430  20.600   9.000
  758BOLB   C1A18173  14.300  20.370   8.600
  758BOLB   C2A18174  14.280  20.600   8.210
  758BOLB   C3A18175  14.070  20.610   7.800
  758BOLB   C4A18176  13.930  20.850   7.510
  758BOLB   C1B18177  14.520  20.900   8.620
  758BOLB   C2B18178  14.290  21.070   8.280
  758BOLB   C3B18179  14.000  21.190   7.900
  758BOLB   C4B18180  13.660  21.390   7.620
  758BOLB   NC218181  14.130  22.230   5.610
  758BOLB   PO218182  14.080  21.810   5.490
  758BOLB   GL318183  13.900  21.570   5.850
  758BOLB   GL418184  13.650  21.470   5.830
  758BOLB   C1C18185  13.920  21.250   6.160
  758BOLB   C2C18186  13.970  20.990   6.400
  758BOLB   C3C18187  13.950  20.700   6.720
  758BOLB   C4C18188  13.800  20.720   7.030
  758BOLB   C1D18189  13.530  21.500   6.260
  758BOLB   C2D18190  13.620  21.420   6.620
  758BOLB   C3D18191  13.900  21.300   6.810
  758BOLB   C4D18192  14.010  21.280   7.240
  759BOLB   NC118193  27.540  16.370  11.380
  759BOLB   PO118194  27.310  16.750  11.480
  759BOLB   GL118195  27.640  16.900  11.190
  759BOLB   GL218196  27.820  16.670  11.060
  759BOLB   C1A18197  27.980  17.150  10.950
  759BOLB   C2A18198  28.330  17.400  10.950
  759BOLB   C3A18199  28.650  17.530  10.870
  759BOLB   C4A18200  29.130  17.560  10.790
  759BOLB   C1B18201  28.150  16.730  10.720
  759BOLB   C2B18202  28.470  17.060  10.660
  759BOLB   C3B18203  28.890  16.990  10.510
  759BOLB   C4B18204  29.210  17.220  10.460
  759BOLB   NC218205  31.360  17.860  10.980
  759BOLB   PO218206  31.330  17.370  10.810
  759BOLB   GL318207  31.110  17.500  11.210
  759BOLB   GL418208  31.110  17.310  11.510
  759BOLB   C1C18209  30.680  17.540  11.280
  759BOLB   C2C18210  30.340  17.220  11.340
  759BOLB   C3C18211  30.020  17.250  11.020
  759BOLB   C4C18212  29.620  17.530  10.910
  759BOLB   C1D18213  30.830  17.400  11.790
  759BOLB   C2D18214  30.570  17.710  12.060
  759BOLB   C3D18215  30.170  17.780  12.130
  759BOLB   C4D18216  29.870  17.890  11.720
  760BOLB   NC118217  26.840  16.910  11.200
  760BOLB   PO118218  26.970  17.340  11.300
  760BOLB   GL118219  27.220  17.560  11.090
  760BOLB   GL218220  27.480  17.490  11.230
  760BOLB   C1A18221  27.530  17.740  10.780
  760BOLB   C2A18222  27.880  17.630  10.850
  760BOLB   C3A18223  28.250  17.780  10.590
  760BOLB   C4A18224  28.400  18.000  10.260
  760BOLB   C1B18225  27.930  17.510  11.320
  760BOLB   C2B18226  28.220  17.790  11.290
  760BOLB   C3B18227  28.580  17.960  11.090
  760BOLB   C4B18228  28.750  17.970  10.690
  760BOLB   NC218229  30.700  18.240   8.790
  760BOLB   PO218230  30.350  18.510   9.060
  760BOLB   GL318231  29.890  18.420   8.950
  760BOLB   GL418232  29.720  18.170   8.680
  760BOLB   C1C18233  29.600  18.270   9.350
  760BOLB   C2C18234  29.480  17.850   9.630
  760BOLB   C3C18235  29.020  17.630   9.700
  760BOLB   C4C18236  28.590  17.720   9.920
  760BOLB   C1D18237  29.340  18.110   8.960
  760BOLB   C2D18238  29.150  18.110   9.360
  760BOLB   C3D18239  29.000  18.120   9.770
  760BOLB   C4D18240  29.020  17.920  10.110
  761BOLB   NC118241  12.350  19.570  13.230
  761BOLB   PO118242  11.930  19.770  13.160
  761BOLB   GL118243  11.540  19.950  13.000
  761BOLB   GL218244  11.560  20.250  12.800
  761BOLB   C1A18245  11.120  19.870  12.760
  761BOLB   C2A18246  10.720  20.120  12.740
  761BOLB   C3A18247  10.420  20.350  12.830
  761BOLB   C4A18248  10.380  20.670  12.480
  761BOLB   C1B18249  11.290  20.500  12.980
  761BOLB   C2B18250  11.180  21.010  12.860
  761BOLB   C3B18251  10.960  21.360  12.920
  761BOLB   C4B18252  10.980  21.860  12.800
  761BOLB   NC218253   8.930  22.540  12.360
  761BOLB   PO218254   9.140  22.900  12.280
  761BOLB   GL318255   9.500  22.520  12.130
  761BOLB   GL418256   9.780  22.570  12.100
  761BOLB   C1C18257   9.810  22.150  11.920
  761BOLB   C2C18258  10.070  21.820  12.130
  761BOLB   C3C18259  10.140  21.410  12.260
  761BOLB   C4C18260  10.290  21.020  12.310
  761BOLB   C1D18261  10.220  22.320  12.220
  761BOLB   C2D18262  10.530  22.460  12.470
  761BOLB   C3D18263  10.920  22.370  12.650
  761BOLB   C4D18264  11.400  22.100  12.690
  762BOLB   NC118265  26.400  19.560  14.430
  762BOLB   PO118266  26.640  19.210  14.390
  762BOLB   GL118267  26.860  19.430  14.550
  762BOLB   GL218268  26.780  19.430  14.910
  762BOLB   C1A18269  27.330  19.530  14.400
  762BOLB   C2A18270  27.690  19.710  14.210
  762BOLB   C3A18271  28.020  19.530  13.930
  762BOLB   C4A18272  28.370  19.690  13.810
  762BOLB   C1B18273  27.140  19.590  14.890
  762BOLB   C2B18274  27.500  19.760  15.070
  762BOLB   C3B18275  27.720  19.800  15.430
  762BOLB   C4B18276  28.070  19.490  15.590
  762BOLB   NC218277  29.930  21.780  13.620
  762BOLB   PO218278  29.650  21.890  13.340
  762BOLB   GL318279  29.500  21.500  13.530
  762BOLB   GL418280  29.120  21.420  13.700
  762BOLB   C1C18281  29.430  21.020  13.620
  762BOLB   C2C18282  29.310  20.500  13.820
  762BOLB   C3C18283  29.090  20.190  13.860
  762BOLB   C4C18284  28.690  19.940  13.760
  762BOLB   C1D18285  28.700  21.390  13.670
  762BOLB   C2D18286  28.330  21.290  13.430
  762BOLB   C3D18287  27.980  21.060  13.310
  762BOLB   C4D18288  27.670  20.770  13.180
  763BOLB   NC118289  21.930  20.990  17.710
  763BOLB   PO118290  22.240  21.230  17.810
  763BOLB   GL118291  22.310  21.290  18.150
  763BOLB   GL218292  22.490  21.280  18.420
  763BOLB   C1A18293  22.180  21.690  18.330
  763BOLB   C2A18294  22.250  21.970  18.530
  763BOLB   C3A18295  22.210  22.230  18.870
  763BOLB   C4A18296  21.930  22.430  19.220
  763BOLB   C1B18297  22.710  21.370  18.780
  763BOLB   C2B18298  22.790  21.600  19.120
  763BOLB   C3B18299  22.820  21.480  19.480
  763BOLB   C4B18300  22.680  21.540  19.830
  763BOLB   NC218301  22.050  24.460  20.820
  763BOLB   PO218302  21.960  24.120  20.580
  763BOLB   GL318303  22.080  23.740  20.330
  763BOLB   GL418304  22.020  23.610  19.920
  763BOLB   C1C18305  22.140  23.260  20.310
  763BOLB   C2C18306  21.920  22.880  20.230
  763BOLB   C3C18307  21.750  22.550  20.010
  763BOLB   C4C18308  21.590  22.590  19.510
  763BOLB   C1D18309  22.290  23.430  19.620
  763BOLB   C2D18310  22.600  23.160  19.390
  763BOLB   C3D18311  22.820  23.060  19.010
  763BOLB   C4D18312  22.880  22.920  18.580
  764BOLB   NC118313  19.390  22.680  10.330
  764BOLB   PO118314  19.010  22.880  10.360
  764BOLB   GL118315  19.140  23.290  10.210
  764BOLB   GL218316  19.060  23.420   9.920
  764BOLB   C1A18317  19.060  23.670  10.370
  764BOLB   C2A18318  19.030  24.110  10.120
  764BOLB   C3A18319  19.120  24.460   9.840
  764BOLB   C4A18320  19.040  24.900   9.860
  764BOLB   C1B18321  18.960  23.740   9.650
  764BOLB   C2B18322  19.190  23.970   9.280
  764BOLB   C3B18323  18.970  24.220   9.070
  764BOLB   C4B18324  18.860  24.520   8.800
  764BOLB   NC218325  19.060  27.440   9.670
  764BOLB   PO218326  19.510  27.430   9.820
  764BOLB   GL318327  19.280  27.070   9.910
  764BOLB   GL418328  19.280  26.880  10.200
  764BOLB   C1C18329  19.270  26.590   9.740
  764BOLB   C2C18330  18.900  26.290   9.940
  764BOLB   C3C18331  18.800  25.810  10.040
  764BOLB   C4C18332  18.840  25.350   9.930
  764BOLB   C1D18333  19.440  26.400  10.260
  764BOLB   C2D18334  19.330  26.020  10.130
  764BOLB   C3D18335  19.480  25.700   9.860
  764BOLB   C4D18336  19.360  25.310   9.870
  765BOLB   NC118337  26.860  18.750  15.250
  765BOLB   PO118338  26.800  18.390  15.510
  765BOLB   GL118339  27.160  18.360  15.560
  765BOLB   GL218340  27.250  18.170  15.750
  765BOLB   C1A18341  27.460  18.730  15.610
  765BOLB   C2A18342  27.770  18.950  15.390
  765BOLB   C3A18343  27.820  19.290  15.200
  765BOLB   C4A18344  28.250  19.380  15.120
  765BOLB   C1B18345  27.680  18.280  15.960
  765BOLB   C2B18346  28.050  18.490  16.190
  765BOLB   C3B18347  28.380  18.760  15.960
  765BOLB   C4B18348  28.760  18.970  16.060
  765BOLB   NC218349  30.440  20.480  15.170
  765BOLB   PO218350  30.450  20.070  15.410
  765BOLB   GL318351  30.080  19.900  15.530
  765BOLB   GL418352  30.130  19.710  15.260
  765BOLB   C1C18353  29.640  19.990  15.570
  765BOLB   C2C18354  29.360  20.010  15.410
  765BOLB   C3C18355  28.910  19.840  15.490
  765BOLB   C4C18356  28.610  19.710  15.180
  765BOLB   C1D18357  29.730  19.600  15.140
  765BOLB   C2D18358  29.280  19.510  15.070
  765BOLB   C3D18359  29.010  19.340  15.000
  765BOLB   C4D18360  28.660  19.070  15.170
  766BOLB   NC118361  27.920  13.190  13.690
  766BOLB   PO118362  28.270  13.150  13.870
  766BOLB   GL118363  28.690  13.040  13.590
  766BOLB   GL218364  28.780  12.820  13.410
  766BOLB   C1A18365  29.200  13.150  13.570
  766BOLB   C2A18366  29.670  13.000  13.630
  766BOLB   C3A18367  30.100  13.020  13.660
  766BOLB   C4A18368  30.650  12.940  13.720
  766BOLB   C1B18369  29.200  12.670  13.380
  766BOLB   C2B18370  29.580  12.690  13.270
  766BOLB   C3B18371  29.990  12.630  13.300
  766BOLB   C4B18372  30.330  12.620  13.500
  766BOLB   NC218373  33.010  11.690  13.820
  766BOLB   PO218374  32.840  11.970  13.440
  766BOLB   GL318375  32.520  12.210  13.670
  766BOLB   GL418376  32.350  12.490  13.880
  766BOLB   C1C18377  32.060  12.110  13.750
  766BOLB   C2C18378  31.790  12.290  13.950
  766BOLB   C3C18379  31.440  12.610  13.890
  766BOLB   C4C18380  31.040  12.760  13.880
  766BOLB   C1D18381  31.930  12.810  13.950
  766BOLB   C2D18382  31.700  12.960  13.590
  766BOLB   C3D18383  31.760  12.880  13.190
  766BOLB   C4D18384  31.830  13.060  12.790
  767BOLB   NC118385  16.060  22.950  14.230
  767BOLB   PO118386  15.840  23.110  13.760
  767BOLB   GL118387  15.690  23.490  13.950
  767BOLB   GL218388  15.820  23.520  14.230
  767BOLB   C1A18389  15.270  23.600  14.140
  767BOLB   C2A18390  15.050  23.890  14.070
  767BOLB   C3A18391  14.650  24.170  13.970
  767BOLB   C4A18392  14.520  24.380  13.600
  767BOLB   C1B18393  15.900  23.950  14.310
  767BOLB   C2B18394  15.970  24.370  14.350
  767BOLB   C3B18395  16.310  24.530  14.620
  767BOLB   C4B18396  16.380  24.900  14.960
  767BOLB   NC218397  13.330  26.570  14.350
  767BOLB   PO218398  13.040  26.360  14.170
  767BOLB   GL318399  13.440  26.180  14.030
  767BOLB   GL418400  13.610  26.080  14.300
  767BOLB   C1C18401  13.450  25.710  13.960
  767BOLB   C2C18402  13.560  25.240  13.730
  767BOLB   C3C18403  13.900  25.000  13.510
  767BOLB   C4C18404  14.160  24.680  13.520
  767BOLB   C1D18405  13.660  25.660  14.400
  767BOLB   C2D18406  13.570  25.390  14.660
  767BOLB   C3D18407  13.800  25.130  14.910
  767BOLB   C4D18408  13.820  25.360  15.230
  768BOLB   NC118409  21.100  27.500  14.980
  768BOLB   PO118410  20.800  27.770  14.680
  768BOLB   GL118411  20.860  27.390  14.460
  768BOLB   GL218412  21.040  27.440  14.090
  768BOLB   C1A18413  20.880  27.000  14.450
  768BOLB   C2A18414  20.750  26.630  14.140
  768BOLB   C3A18415  20.730  26.110  13.940
  768BOLB   C4A18416  20.560  25.750  14.150
  768BOLB   C1B18417  20.780  27.170  13.970
  768BOLB   C2B18418  20.650  26.900  13.570
  768BOLB   C3B18419  20.550  27.010  13.130
  768BOLB   C4B18420  20.370  27.310  12.910
  768BOLB   NC218421  19.160  27.530  15.530
  768BOLB   PO218422  19.220  27.400  15.170
  768BOLB   GL318423  19.480  27.190  14.830
  768BOLB   GL418424  19.350  27.270  14.500
  768BOLB   C1C18425  19.630  26.750  14.700
  768BOLB   C2C18426  19.770  26.310  14.690
  768BOLB   C3C18427  19.970  25.890  14.680
  768BOLB   C4C18428  20.240  25.690  14.560
  768BOLB   C1D18429  19.120  26.860  14.700
  768BOLB   C2D18430  18.890  26.470  14.510
  768BOLB   C3D18431  18.680  26.090  14.480
  768BOLB   C4D18432  18.310  25.900  14.390
  769BOLB   NC118433  20.030  22.530  15.920
  769BOLB   PO118434  20.260  22.650  16.330
  769BOLB   GL118435  20.210  23.130  16.390
  769BOLB   GL218436  19.900  23.220  16.190
  769BOLB   C1A18437  20.380  23.570  16.330
  769BOLB   C2A18438  20.360  23.990  16.480
  769BOLB   C3A18439  20.320  24.390  16.750
  769BOLB   C4A18440  20.350  24.800  16.930
  769BOLB   C1B18441  19.900  23.720  16.240
  769BOLB   C2B18442  19.790  24.080  16.390
  769BOLB   C3B18443  19.890  24.480  16.380
  769BOLB   C4B18444  20.110  24.940  16.440
  769BOLB   NC218445  21.190  25.180  19.730
  769BOLB   PO218446  21.210  25.280  19.330
  769BOLB   GL318447  21.010  25.310  18.990
  769BOLB   GL418448  21.090  24.970  18.920
  769BOLB   C1C18449  20.800  25.300  18.610
  769BOLB   C2C18450  20.690  25.110  18.290
  769BOLB   C3C18451  20.640  25.250  17.780
  769BOLB   C4C18452  20.660  25.000  17.300
  769BOLB   C1D18453  21.100  24.890  18.540
  769BOLB   C2D18454  21.330  24.580  18.330
  769BOLB   C3D18455  21.290  24.180  18.320
  769BOLB   C4D18456  21.380  23.810  18.210
  770BOLB   NC118457  25.670  18.510   9.580
  770BOLB   PO118458  25.750  18.830   9.800
  770BOLB   GL118459  25.910  19.240   9.730
  770BOLB   GL218460  26.260  19.150   9.560
  770BOLB   C1A18461  25.850  19.660   9.570
  770BOLB   C2A18462  25.900  19.920   9.200
  770BOLB   C3A18463  25.800  20.260   8.910
  770BOLB   C4A18464  26.010  20.440   8.540
  770BOLB   C1B18465  26.010  19.320   9.190
  770BOLB   C2B18466  26.190  19.340   8.750
  770BOLB   C3B18467  26.380  19.170   8.470
  770BOLB   C4B18468  26.740  18.920   8.330
  770BOLB   NC218469  28.180  21.030   7.690
  770BOLB   PO218470  27.930  20.670   7.430
  770BOLB   GL318471  27.400  20.920   7.460
  770BOLB   GL418472  27.400  21.030   7.740
  770BOLB   C1C18473  26.970  20.830   7.620
  770BOLB   C2C18474  26.540  20.980   7.780
  770BOLB   C3C18475  26.410  21.120   8.250
  770BOLB   C4C18476  26.160  20.900   8.480
  770BOLB   C1D18477  27.320  20.530   7.770
  770BOLB   C2D18478  27.240  20.260   8.230
  770BOLB   C3D18479  27.130  20.080   8.480
  770BOLB   C4D18480  26.780  19.980   8.770
  771BOLB   NC118481  20.990  22.860  15.240
  771BOLB   PO118482  20.940  22.920  15.660
  771BOLB   GL118483  21.170  23.270  15.760
  771BOLB   GL218484  21.370  23.500  15.570
  771BOLB   C1A18485  21.180  23.680  15.990
  771BOLB   C2A18486  21.320  23.990  16.260
  771BOLB   C3A18487  21.260  24.190  16.630
  771BOLB   C4A18488  21.380  24.610  16.650
  771BOLB   C1B18489  21.640  23.850  15.800
  771BOLB   C2B18490  21.950  23.940  15.830
  771BOLB   C3B18491  22.230  23.970  16.150
  771BOLB   C4B18492  22.570  24.090  16.540
  771BOLB   NC218493  21.670  26.970  16.630
  771BOLB   PO218494  21.940  27.020  16.940
  771BOLB   GL318495  21.830  26.560  16.850
  771BOLB   GL418496  22.020  26.370  16.810
  771BOLB   C1C18497  21.520  26.320  16.750
  771BOLB   C2C18498  21.420  26.000  16.390
  771BOLB   C3C18499  21.360  25.540  16.610
  771BOLB   C4C18500  21.380  25.140  16.660
  771BOLB   C1D18501  21.960  26.000  16.620
  771BOLB   C2D18502  21.840  25.630  16.440
  771BOLB   C3D18503  21.530  25.430  16.150
  771BOLB   C4D18504  21.060  25.260  16.290
  772BOLB   NC118505  18.720  23.640  14.750
  772BOLB   PO118506  18.310  23.520  14.570
  772BOLB   GL118507  18.140  23.790  14.830
  772BOLB   GL218508  17.920  23.840  14.570
  772BOLB   C1A18509  18.230  24.230  14.850
  772BOLB   C2A18510  18.360  24.690  14.970
  772BOLB   C3A18511  18.250  25.140  14.990
  772BOLB   C4A18512  18.300  25.360  15.470
  772BOLB   C1B18513  17.800  24.340  14.710
  772BOLB   C2B18514  17.830  24.640  15.040
  772BOLB   C3B18515  17.860  24.970  15.330
  772BOLB   C4B18516  17.660  24.820  15.730
  772BOLB   NC218517  17.410  27.170  15.980
  772BOLB   PO218518  17.340  27.230  16.460
  772BOLB   GL318519  17.460  26.820  16.380
  772BOLB   GL418520  17.250  26.610  16.690
  772BOLB   C1C18521  17.510  26.340  16.340
  772BOLB   C2C18522  17.630  25.880  16.410
  772BOLB   C3C18523  17.810  25.540  16.100
  772BOLB   C4C18524  18.090  25.220  15.870
  772BOLB   C1D18525  17.170  26.220  16.730
  772BOLB   C2D18526  17.140  25.750  16.550
  772BOLB   C3D18527  17.380  25.450  16.400
  772BOLB   C4D18528  17.440  25.170  15.990
  773BOLB   NC118529  27.540  16.500  11.860
  773BOLB   PO118530  27.680  16.890  12.070
  773BOLB   GL118531  28.120  16.800  12.230
  773BOLB   GL218532  28.270  17.120  12.300
  773BOLB   C1A18533  28.650  16.720  12.190
  773BOLB   C2A18534  29.020  16.750  11.940
  773BOLB   C3A18535  29.140  16.830  11.600
  773BOLB   C4A18536  29.250  16.840  11.200
  773BOLB   C1B18537  28.450  17.150  12.000
  773BOLB   C2B18538  28.830  17.180  11.700
  773BOLB   C3B18539  29.290  17.400  11.750
  773BOLB   C4B18540  29.670  17.450  11.970
  773BOLB   NC218541  31.240  17.260  10.330
  773BOLB   PO218542  31.030  16.910  10.060
  773BOLB   GL318543  30.650  16.920  10.050
  773BOLB   GL418544  30.530  16.600   9.960
  773BOLB   C1C18545  30.470  17.020  10.370
  773BOLB   C2C18546  30.070  17.200  10.490
  773BOLB   C3C18547  29.680  17.130  10.610
  773BOLB   C4C18548  29.370  17.100  10.940
  773BOLB   C1D18549  30.240  16.520  10.320
  773BOLB   C2D18550  29.920  16.190  10.470
  773BOLB   C3D18551  29.890  15.940  10.750
  773BOLB   C4D18552  30.320  15.750  10.870
  774BOLB   NC118553  22.280  25.120  20.270
  774BOLB   PO118554  22.550  25.010  19.950
  774BOLB   GL118555  22.630  24.500  19.710
  774BOLB   GL218556  22.940  24.360  19.470
  774BOLB   C1A18557  22.390  24.260  19.520
  774BOLB   C2A18558  22.020  23.870  19.420
  774BOLB   C3A18559  21.670  23.640  19.460
  774BOLB   C4A18560  21.500  23.550  19.820
  774BOLB   C1B18561  22.750  24.190  19.140
  774BOLB   C2B18562  22.560  23.910  18.890
  774BOLB   C3B18563  22.450  23.720  18.500
  774BOLB   C4B18564  22.150  23.360  18.330
  774BOLB   NC218565  21.420  22.670  22.170
  774BOLB   PO218566  21.590  22.840  21.900
  774BOLB   GL318567  21.630  22.700  21.530
  774BOLB   GL418568  21.420  22.500  21.540
  774BOLB   C1C18569  21.760  22.750  21.160
  774BOLB   C2C18570  21.940  23.010  20.790
  774BOLB   C3C18571  21.730  23.300  20.560
  774BOLB   C4C18572  21.470  23.630  20.180
  774BOLB   C1D18573  21.340  22.510  21.130
  774BOLB   C2D18574  21.520  22.770  20.730
  774BOLB   C3D18575  21.390  22.730  20.330
  774BOLB   C4D18576  20.980  22.820  20.270
  775BOLB   NC118577  21.420  20.160  18.530
  775BOLB   PO118578  21.560  20.470  18.960
  775BOLB   GL118579  21.570  20.400  19.360
  775BOLB   GL218580  21.860  20.260  19.520
  775BOLB   C1A18581  21.770  20.710  19.670
  775BOLB   C2A18582  22.030  20.970  19.930
  775BOLB   C3A18583  21.890  21.340  20.210
  775BOLB   C4A18584  21.550  21.500  20.300
  775BOLB   C1B18585  21.950  20.080  19.840
  775BOLB   C2B18586  21.800  19.980  20.170
  775BOLB   C3B18587  21.640  20.260  20.560
  775BOLB   C4B18588  21.560  20.540  20.860
  775BOLB   NC218589  20.660  21.330  22.860
  775BOLB   PO218590  20.880  21.530  22.550
  775BOLB   GL318591  20.680  21.330  22.170
  775BOLB   GL418592  20.470  21.120  22.100
  775BOLB   C1C18593  20.890  21.210  21.790
  775BOLB   C2C18594  20.980  21.140  21.330
  775BOLB   C3C18595  21.120  21.310  20.910
  775BOLB   C4C18596  21.220  21.380  20.490
  775BOLB   C1D18597  20.350  21.110  21.580
  775BOLB   C2D18598  20.030  21.050  21.300
  775BOLB   C3D18599  19.970  20.580  21.170
  775BOLB   C4D18600  19.620  20.390  21.090
  776BOLB   NC118601  25.830  19.950  11.400
  776BOLB   PO118602  26.070  20.060  11.700
  776BOLB   GL118603  26.010  20.440  11.750
  776BOLB   GL218604  25.800  20.640  11.660
  776BOLB   C1A18605  26.470  20.680  11.540
  776BOLB   C2A18606  26.850  20.850  11.560
  776BOLB   C3A18607  27.200  20.890  11.720
  776BOLB   C4A18608  27.400  21.250  11.850
  776BOLB   C1B18609  26.090  20.930  11.760
  776BOLB   C2B18610  26.440  21.200  11.670
  776BOLB   C3B18611  26.900  21.420  11.600
  776BOLB   C4B18612  27.210  21.550  11.360
  776BOLB   NC218613  29.260  23.320  11.080
  776BOLB   PO218614  28.760  23.210  10.990
  776BOLB   GL318615  28.510  22.910  11.130
  776BOLB   GL418616  28.340  22.680  10.900
  776BOLB   C1C18617  28.280  22.610  11.400
  776BOLB   C2C18618  28.030  22.290  11.500
  776BOLB   C3C18619  27.680  21.990  11.550
  776BOLB   C4C18620  27.550  21.610  11.670
  776BOLB   C1D18621  27.930  22.480  10.760
  776BOLB   C2D18622  27.550  22.210  10.670
  776BOLB   C3D18623  27.610  21.790  10.500
  776BOLB   C4D18624  27.710  21.580  10.180
  777BOLB   NC118625  25.150  20.860  12.230
  777BOLB   PO118626  25.200  20.660  11.850
  777BOLB   GL118627  25.550  21.000  11.860
  777BOLB   GL218628  25.620  21.200  11.640
  777BOLB   C1A18629  25.860  21.280  12.050
  777BOLB   C2A18630  26.170  21.550  11.970
  777BOLB   C3A18631  26.530  21.710  11.660
  777BOLB   C4A18632  26.810  21.850  11.340
  777BOLB   C1B18633  25.920  21.460  11.560
  777BOLB   C2B18634  26.000  21.850  11.640
  777BOLB   C3B18635  26.220  22.290  11.770
  777BOLB   C4B18636  26.200  22.680  11.760
  777BOLB   NC218637  28.130  23.650  11.750
  777BOLB   PO218638  27.920  23.500  11.420
  777BOLB   GL318639  27.740  23.130  11.390
  777BOLB   GL418640  27.450  23.220  11.140
  777BOLB   C1C18641  27.480  22.990  11.670
  777BOLB   C2C18642  27.220  22.790  11.750
  777BOLB   C3C18643  27.330  22.460  11.580
  777BOLB   C4C18644  27.170  22.050  11.460
  777BOLB   C1D18645  27.300  22.760  11.110
  777BOLB   C2D18646  26.940  22.510  11.280
  777BOLB   C3D18647  26.560  22.330  11.300
  777BOLB   C4D18648  26.320  21.960  11.310
  778BOLB   NC118649  19.320  23.060  15.480
  778BOLB   PO118650  19.590  23.310  15.420
  778BOLB   GL118651  19.880  23.520  15.740
  778BOLB   GL218652  20.210  23.480  15.750
  778BOLB   C1A18653  19.820  23.920  15.830
  778BOLB   C2A18654  19.620  24.340  16.000
  778BOLB   C3A18655  19.630  24.820  16.110
  778BOLB   C4A18656  19.690  25.220  16.210
  778BOLB   C1B18657  20.300  23.860  15.950
  778BOLB   C2B18658  20.120  24.230  16.040
  778BOLB   C3B18659  20.170  24.570  15.920
  778BOLB   C4B18660  20.440  24.970  15.950
  778BOLB   NC218661  18.680  27.470  16.420
  778BOLB   PO218662  18.500  27.240  16.720
  778BOLB   GL318663  18.610  26.870  16.450
  778BOLB   GL418664  18.390  26.710  16.280
  778BOLB   C1C18665  18.680  26.550  16.680
  778BOLB   C2C18666  18.970  26.250  16.470
  778BOLB   C3C18667  19.280  25.920  16.370
  778BOLB   C4C18668  19.530  25.570  16.160
  778BOLB   C1D18669  18.550  26.280  16.190
  778BOLB   C2D18670  18.590  25.890  16.160
  778BOLB   C3D18671  18.860  25.700  16.450
  778BOLB   C4D18672  19.220  25.460  16.620
  779BOLB   NC118673  25.530  18.080   8.990
  779BOLB   PO118674  25.210  18.200   8.810
  779BOLB   GL118675  25.480  17.970   8.420
  779BOLB   GL218676  25.260  17.910   8.170
  779BOLB   C1A18677  25.810  18.200   8.160
  779BOLB   C2A18678  26.040  18.530   7.940
  779BOLB   C3A18679  26.250  18.800   7.550
  779BOLB   C4A18680  26.020  18.760   7.110
  779BOLB   C1B18681  25.390  18.120   7.770
  779BOLB   C2B18682  25.440  18.390   7.420
  779BOLB   C3B18683  25.630  18.500   7.050
  779BOLB   C4B18684  25.530  18.850   6.840
  779BOLB   NC218685  27.190  18.850   5.200
  779BOLB   PO218686  26.950  18.420   5.130
  779BOLB   GL318687  26.750  18.660   5.380
  779BOLB   GL418688  26.940  18.660   5.620
  779BOLB   C1C18689  26.450  18.840   5.540
  779BOLB   C2C18690  26.250  19.050   5.840
  779BOLB   C3C18691  26.180  19.220   6.340
  779BOLB   C4C18692  26.100  18.990   6.750
  779BOLB   C1D18693  26.700  18.510   5.930
  779BOLB   C2D18694  26.450  18.260   6.210
  779BOLB   C3D18695  26.080  18.130   6.200
  779BOLB   C4D18696  25.790  18.130   6.550
  780BOLB   NC118697  31.350  10.350   8.980
  780BOLB   PO118698  31.060  10.100   8.940
  780BOLB   GL118699  30.590  10.210   9.100
  780BOLB   GL218700  30.520  10.570   9.290
  780BOLB   C1A18701  30.240  10.190   9.440
  780BOLB   C2A18702  29.870  10.150   9.650
  780BOLB   C3A18703  29.610  10.190   9.940
  780BOLB   C4A18704  29.380  10.510   9.800
  780BOLB   C1B18705  30.060  10.760   9.390
  780BOLB   C2B18706  29.770  10.570   9.380
  780BOLB   C3B18707  29.440  10.240   9.370
  780BOLB   C4B18708  29.090  10.160   9.560
  780BOLB   NC218709  31.400  11.300   9.060
  780BOLB   PO218710  31.290  10.820   9.120
  780BOLB   GL318711  30.820  11.030   9.100
  780BOLB   GL418712  30.760  11.270   8.820
  780BOLB   C1C18713  30.450  11.120   9.350
  780BOLB   C2C18714  30.070  11.240   9.140
  780BOLB   C3C18715  29.680  11.140   9.390
  780BOLB   C4C18716  29.420  10.900   9.590
  780BOLB   C1D18717  30.330  11.580   8.940
  780BOLB   C2D18718  30.100  11.750   9.290
  780BOLB   C3D18719  29.780  11.640   9.560
  780BOLB   C4D18720  29.590  11.270   9.920
  781BOLB   NC118721  17.880  21.550   9.580
  781BOLB   PO118722  17.660  21.590   9.160
  781BOLB   GL118723  17.670  21.900   8.900
  781BOLB   GL218724  17.570  22.200   8.990
  781BOLB   C1A18725  17.330  21.930   8.620
  781BOLB   C2A18726  17.190  22.230   8.250
  781BOLB   C3A18727  16.870  22.410   8.050
  781BOLB   C4A18728  16.840  22.370   7.660
  781BOLB   C1B18729  17.620  22.400   8.630
  781BOLB   C2B18730  17.330  22.680   8.410
  781BOLB   C3B18731  17.100  22.880   8.160
  781BOLB   C4B18732  17.020  22.930   7.780
  781BOLB   NC218733  16.030  23.850   5.230
  781BOLB   PO218734  15.920  23.590   5.700
  781BOLB   GL318735  16.120  23.640   6.140
  781BOLB   GL418736  16.450  23.680   6.120
  781BOLB   C1C18737  16.080  23.310   6.450
  781BOLB   C2C18738  16.380  23.010   6.710
  781BOLB   C3C18739  16.500  22.860   7.080
  781BOLB   C4C18740  16.790  22.530   7.280
  781BOLB   C1D18741  16.660  23.370   6.450
  781BOLB   C2D18742  16.820  23.190   6.860
  781BOLB   C3D18743  16.800  23.100   7.360
  781BOLB   C4D18744  16.550  22.820   7.640
  782BOLB   NC118745  30.160  21.030  10.940
  782BOLB   PO118746  30.140  21.010  11.380
  782BOLB   GL118747  29.800  20.820  11.270
  782BOLB   GL218748  29.850  20.590  10.970
  782BOLB   C1A18749  29.360  20.660  11.070
  782BOLB   C2A18750  28.930  20.550  11.200
  782BOLB   C3A18751  28.510  20.310  11.170
  782BOLB   C4A18752  28.120  20.460  11.040
  782BOLB   C1B18753  29.750  20.340  11.340
  782BOLB   C2B18754  29.480  19.960  11.550
  782BOLB   C3B18755  29.190  19.740  11.570
  782BOLB   C4B18756  29.060  19.630  11.330
  782BOLB   NC218757  29.070  21.540   9.570
  782BOLB   PO218758  29.040  21.230   9.220
  782BOLB   GL318759  28.700  21.060   9.370
  782BOLB   GL418760  28.450  21.300   9.490
  782BOLB   C1C18761  28.550  20.870   9.670
  782BOLB   C2C18762  28.510  20.680   9.980
  782BOLB   C3C18763  28.090  20.490  10.230
  782BOLB   C4C18764  27.980  20.540  10.560
  782BOLB   C1D18765  28.140  21.090   9.480
  782BOLB   C2D18766  27.770  20.880   9.430
  782BOLB   C3D18767  27.450  20.490   9.220
  782BOLB   C4D18768  27.190  20.260   9.030
  783BOLB   NC118769  19.150  26.200  18.350
  783BOLB   PO118770  18.730  26.030  18.350
  783BOLB   GL118771  18.820  25.900  18.010
  783BOLB   GL218772  18.580  25.690  17.980
  783BOLB   C1A18773  19.130  25.720  17.630
  783BOLB   C2A18774  19.340  25.380  17.620
  783BOLB   C3A18775  19.540  25.040  17.510
  783BOLB   C4A18776  19.850  24.900  17.700
  783BOLB   C1B18777  18.860  25.290  17.890
  783BOLB   C2B18778  18.980  25.000  17.630
  783BOLB   C3B18779  19.120  24.680  17.430
  783BOLB   C4B18780  19.400  24.330  17.220
  783BOLB   NC218781  21.340  26.160  18.720
  783BOLB   PO218782  21.660  26.040  18.590
  783BOLB   GL318783  21.550  25.620  18.410
  783BOLB   GL418784  21.720  25.580  18.170
  783BOLB   C1C18785  21.240  25.350  18.250
  783BOLB   C2C18786  21.140  24.940  18.020
  783BOLB   C3C18787  20.670  24.730  17.870
  783BOLB   C4C18788  20.340  24.890  17.690
  783BOLB   C1D18789  21.580  25.170  17.850
  783BOLB   C2D18790  21.500  24.840  17.640
  783BOLB   C3D18791  21.380  24.350  17.720
  783BOLB   C4D18792  21.400  23.910  17.590
  784BOLB   NC118793  16.220  23.390  11.700
  784BOLB   PO118794  16.490  23.310  11.200
  784BOLB   GL118795  16.140  23.580  11.030
  784BOLB   GL218796  15.820  23.710  11.150
  784BOLB   C1A18797  16.120  23.980  10.780
  784BOLB   C2A18798  16.270  24.120  10.440
  784BOLB   C3A18799  16.210  24.460  10.240
  784BOLB   C4A18800  16.420  24.730   9.970
  784BOLB   C1B18801  15.590  24.000  10.890
  784BOLB   C2B18802  15.390  24.290  10.950
  784BOLB   C3B18803  15.370  24.620  11.330
  784BOLB   C4B18804  15.320  24.520  11.760
  784BOLB   NC218805  15.450  26.450   9.180
  784BOLB   PO218806  15.680  26.790   9.370
  784BOLB   GL318807  15.860  26.370   9.560
  784BOLB   GL418808  16.040  26.360   9.860
  784BOLB   C1C18809  16.170  26.000   9.530
  784BOLB   C2C18810  16.390  25.710   9.790
  784BOLB   C3C18811  16.380  25.400   9.980
  784BOLB   C4C18812  16.440  25.040   9.890
  784BOLB   C1D18813  16.010  26.100  10.110
  784BOLB   C2D18814  16.250  26.000  10.390
  784BOLB   C3D18815  16.630  25.710  10.370
  784BOLB   C4D18816  16.730  25.200  10.320
  785BOLB   NC118817  22.880  19.890  17.690
  785BOLB   PO118818  23.330  20.020  17.840
  785BOLB   GL118819  23.670  20.260  17.990
  785BOLB   GL218820  23.590  20.570  17.910
  785BOLB   C1A18821  23.910  20.400  18.360
  785BOLB   C2A18822  24.280  20.450  18.710
  785BOLB   C3A18823  24.320  20.560  19.180
  785BOLB   C4A18824  24.640  20.460  19.470
  785BOLB   C1B18825  23.840  20.900  18.250
  785BOLB   C2B18826  23.930  21.360  18.350
  785BOLB   C3B18827  24.220  21.460  18.720
  785BOLB   C4B18828  24.050  21.260  19.090
  785BOLB   NC218829  26.480  21.560  20.710
  785BOLB   PO218830  26.270  21.650  20.990
  785BOLB   GL318831  26.040  21.270  20.800
  785BOLB   GL418832  26.170  20.910  20.930
  785BOLB   C1C18833  25.660  21.200  20.580
  785BOLB   C2C18834  25.240  20.930  20.620
  785BOLB   C3C18835  24.910  20.710  20.400
  785BOLB   C4C18836  24.830  20.630  19.900
  785BOLB   C1D18837  25.960  20.800  20.490
  785BOLB   C2D18838  25.970  20.540  20.170
  785BOLB   C3D18839  25.680  20.480  19.820
  785BOLB   C4D18840  25.630  20.410  19.420
  786BOLB   NC118841  22.030  22.520  11.900
  786BOLB   PO118842  22.210  22.420  11.570
  786BOLB   GL118843  22.480  22.760  11.370
  786BOLB   GL218844  22.300  22.960  11.270
  786BOLB   C1A18845  22.790  22.990  11.240
  786BOLB   C2A18846  22.900  23.390  11.070
  786BOLB   C3A18847  22.860  23.870  11.020
  786BOLB   C4A18848  23.080  24.110  10.850
  786BOLB   C1B18849  22.420  23.370  11.180
  786BOLB   C2B18850  22.540  23.790  11.400
  786BOLB   C3B18851  22.730  24.080  11.740
  786BOLB   C4B18852  22.920  24.020  12.150
  786BOLB   NC218853  24.190  26.160   9.920
  786BOLB   PO218854  24.530  25.910   9.870
  786BOLB   GL318855  24.160  25.690  10.040
  786BOLB   GL418856  23.920  25.740  10.280
  786BOLB   C1C18857  23.990  25.180   9.940
  786BOLB   C2C18858  23.670  25.040  10.330
  786BOLB   C3C18859  23.300  24.820  10.530
  786BOLB   C4C18860  23.130  24.580  10.880
  786BOLB   C1D18861  23.750  25.550  10.670
  786BOLB   C2D18862  23.480  25.240  10.760
  786BOLB   C3D18863  23.450  24.930  11.120
  786BOLB   C4D18864  23.320  24.940  11.620
  787BOLB   NC118865  32.620  11.180  13.500
  787BOLB   PO118866  32.640  10.850  13.750
  787BOLB   GL118867  32.180  10.690  13.740
  787BOLB   GL218868  32.200  10.490  13.460
  787BOLB   C1A18869  31.720  10.590  13.850
  787BOLB   C2A18870  31.280  10.530  13.920
  787BOLB   C3A18871  30.910  10.610  13.690
  787BOLB   C4A18872  30.820  10.920  13.380
  787BOLB   C1B18873  31.850  10.580  13.390
  787BOLB   C2B18874  31.620  10.430  13.090
  787BOLB   C3B18875  31.350  10.170  12.910
  787BOLB   C4B18876  31.340   9.670  12.740
  787BOLB   NC218877  32.520  11.080  12.110
  787BOLB   PO218878  32.720  10.950  12.520
  787BOLB   GL318879  32.520  11.180  12.890
  787BOLB   GL418880  32.550  10.930  13.100
  787BOLB   C1C18881  32.220  11.460  13.100
  787BOLB   C2C18882  31.810  11.390  13.140
  787BOLB   C3C18883  31.380  11.370  13.160
  787BOLB   C4C18884  31.080  11.270  13.300
  787BOLB   C1D18885  32.110  10.960  13.160
  787BOLB   C2D18886  31.540  10.920  13.020
  787BOLB   C3D18887  31.060  11.000  12.890
  787BOLB   C4D18888  30.650  11.150  12.920
  788BOLB   NC118889  25.360  17.670  18.540
  788BOLB   PO118890  25.440  17.240  18.680
  788BOLB   GL118891  25.530  17.310  19.050
  788BOLB   GL218892  25.360  17.140  19.220
  788BOLB   C1A18893  25.780  17.290  19.430
  788BOLB   C2A18894  26.060  17.370  19.860
  788BOLB   C3A18895  26.210  17.190  20.290
  788BOLB   C4A18896  26.190  16.760  20.490
  788BOLB   C1B18897  25.420  16.980  19.660
  788BOLB   C2B18898  25.690  17.070  19.960
  788BOLB   C3B18899  25.630  17.310  20.300
  788BOLB   C4B18900  25.880  17.530  20.650
  788BOLB   NC218901  27.990  15.880  21.930
  788BOLB   PO218902  27.470  15.760  22.050
  788BOLB   GL318903  27.290  15.830  21.570
  788BOLB   GL418904  27.440  15.650  21.290
  788BOLB   C1C18905  26.890  16.010  21.330
  788BOLB   C2C18906  26.390  15.970  21.240
  788BOLB   C3C18907  26.120  16.280  21.160
  788BOLB   C4C18908  26.190  16.580  20.870
  788BOLB   C1D18909  27.050  15.560  21.100
  788BOLB   C2D18910  26.770  15.860  20.880
  788BOLB   C3D18911  26.500  16.150  20.730
  788BOLB   C4D18912  26.000  16.210  20.640
  789BOLB   NC118913  25.960   8.510  16.070
  789BOLB   PO118914  26.390   8.470  15.890
  789BOLB   GL118915  26.790   8.020  15.940
  789BOLB   GL218916  26.830   7.880  15.620
  789BOLB   C1A18917  27.110   7.750  16.040
  789BOLB   C2A18918  27.380   7.340  16.010
  789BOLB   C3A18919  27.630   6.940  16.070
  789BOLB   C4A18920  27.780   6.900  16.400
  789BOLB   C1B18921  27.120   7.480  15.600
  789BOLB   C2B18922  27.390   7.150  15.300
  789BOLB   C3B18923  27.580   6.730  15.380
  789BOLB   C4B18924  27.470   6.320  15.410
  789BOLB   NC218925  29.690   5.140  16.430
  789BOLB   PO218926  29.900   5.580  16.300
  789BOLB   GL318927  29.490   5.730  16.320
  789BOLB   GL418928  29.270   5.500  16.360
  789BOLB   C1C18929  29.240   6.060  16.100
  789BOLB   C2C18930  28.830   6.320  16.150
  789BOLB   C3C18931  28.370   6.720  16.160
  789BOLB   C4C18932  28.130   6.930  16.350
  789BOLB   C1D18933  28.890   5.330  16.240
  789BOLB   C2D18934  28.480   5.180  16.380
  789BOLB   C3D18935  28.080   5.230  16.510
  789BOLB   C4D18936  27.760   5.120  16.230
  790BOLB   NC118937  27.350  12.460  17.220
  790BOLB   PO118938  27.230  12.200  17.590
  790BOLB   GL118939  27.600  12.030  17.890
  790BOLB   GL218940  27.910  12.130  17.820
  790BOLB   C1A18941  27.570  11.970  18.280
  790BOLB   C2A18942  27.820  11.940  18.670
  790BOLB   C3A18943  27.970  12.000  19.000
  790BOLB   C4A18944  28.040  11.850  19.430
  790BOLB   C1B18945  28.050  12.040  18.270
  790BOLB   C2B18946  28.350  11.920  18.610
  790BOLB   C3B18947  28.820  11.760  18.670
  790BOLB   C4B18948  29.280  11.650  18.880
  790BOLB   NC218949  29.430  12.800  21.430
  790BOLB   PO218950  29.500  12.590  21.120
  790BOLB   GL318951  29.470  12.340  20.820
  790BOLB   GL418952  29.210  12.110  20.880
  790BOLB   C1C18953  28.980  12.470  20.660
  790BOLB   C2C18954  28.620  12.380  20.430
  790BOLB   C3C18955  28.340  12.230  20.070
  790BOLB   C4C18956  28.110  12.010  19.850
  790BOLB   C1D18957  29.290  12.150  20.430
  790BOLB   C2D18958  29.330  12.530  20.090
  790BOLB   C3D18959  29.110  12.780  19.800
  790BOLB   C4D18960  28.870  13.060  19.710
  791BOLB   NC118961  23.320   7.690  10.070
  791BOLB   PO118962  23.630   8.020   9.960
  791BOLB   GL118963  23.690   8.080   9.480
  791BOLB   GL218964  23.910   8.250   9.330
  791BOLB   C1A18965  23.430   7.960   9.230
  791BOLB   C2A18966  23.440   7.530   8.910
  791BOLB   C3A18967  23.450   7.240   8.600
  791BOLB   C4A18968  23.690   6.980   8.460
  791BOLB   C1B18969  23.960   8.270   8.910
  791BOLB   C2B18970  24.310   8.120   8.570
  791BOLB   C3B18971  24.460   7.900   8.180
  791BOLB   C4B18972  24.310   7.970   7.800
  791BOLB   NC218973  25.160   5.510   7.230
  791BOLB   PO218974  24.840   5.510   6.880
  791BOLB   GL318975  24.480   5.700   7.120
  791BOLB   GL418976  24.660   5.980   7.230
  791BOLB   C1C18977  24.450   5.700   7.520
  791BOLB   C2C18978  24.270   6.050   7.870
  791BOLB   C3C18979  24.040   6.270   8.140
  791BOLB   C4C18980  24.010   6.650   8.370
  791BOLB   C1D18981  24.550   6.260   7.500
  791BOLB   C2D18982  24.460   6.620   7.520
  791BOLB   C3D18983  24.260   7.070   7.480
  791BOLB   C4D18984  23.820   7.240   7.390
  792BOLB   NC118985  25.650   8.110   5.550
  792BOLB   PO118986  25.440   8.290   5.240
  792BOLB   GL118987  25.120   8.230   5.480
  792BOLB   GL218988  25.430   8.530   5.690
  792BOLB   C1A18989  24.980   8.280   5.800
  792BOLB   C2A18990  24.980   8.240   6.230
  792BOLB   C3A18991  24.840   8.310   6.750
  792BOLB   C4A18992  24.730   8.210   7.170
  792BOLB   C1B18993  25.400   8.450   6.170
  792BOLB   C2B18994  25.350   8.260   6.610
  792BOLB   C3B18995  25.220   8.210   7.010
  792BOLB   C4B18996  25.210   8.430   7.350
  792BOLB   NC218997  25.160   5.820   6.440
  792BOLB   PO218998  25.370   5.700   6.830
  792BOLB   GL318999  25.200   5.990   7.210
  792BOLB   GL419000  25.340   6.050   7.530
  792BOLB   C1C19001  25.090   6.420   7.300
  792BOLB   C2C19002  24.910   6.820   7.400
  792BOLB   C3C19003  24.820   7.310   7.470
  792BOLB   C4C19004  24.710   7.790   7.400
  792BOLB   C1D19005  24.940   5.930   7.640
  792BOLB   C2D19006  24.720   5.970   8.050
  792BOLB   C3D19007  24.470   6.080   8.350
  792BOLB   C4D19008  24.320   6.340   8.560
  793BOLB   NC119009  20.420  22.280  16.640
  793BOLB   PO119010  20.670  22.090  17.000
  793BOLB   GL119011  20.700  22.420  17.320
  793BOLB   GL219012  21.020  22.650  17.240
  793BOLB   C1A19013  20.590  22.810  17.540
  793BOLB   C2A19014  20.540  22.930  18.020
  793BOLB   C3A19015  20.330  23.050  18.350
  793BOLB   C4A19016  20.200  23.140  18.770
  793BOLB   C1B19017  21.000  23.110  17.480
  793BOLB   C2B19018  20.760  23.330  17.670
  793BOLB   C3B19019  20.660  23.360  18.110
  793BOLB   C4B19020  20.880  23.550  18.520
  793BOLB   NC219021  20.810  24.850  20.960
  793BOLB   PO219022  20.610  24.500  20.820
  793BOLB   GL319023  20.740  24.200  20.500
  793BOLB   GL419024  21.060  24.140  20.380
  793BOLB   C1C19025  20.690  23.870  20.230
  793BOLB   C2C19026  20.580  23.500  19.950
  793BOLB   C3C19027  20.340  23.410  19.550
  793BOLB   C4C19028  20.100  23.210  19.220
  793BOLB   C1D19029  21.090  23.830  19.960
  793BOLB   C2D19030  21.190  23.780  19.520
  793BOLB   C3D19031  21.200  23.560  19.100
  793BOLB   C4D19032  21.150  23.180  18.900
  794BOLB   NC119033  24.050   6.010   6.120
  794BOLB   PO119034  23.590   5.980   6.120
  794BOLB   GL119035  23.780   6.220   6.470
  794BOLB   GL219036  23.640   6.520   6.410
  794BOLB   C1A19037  23.760   6.050   6.980
  794BOLB   C2A19038  23.600   5.990   7.440
  794BOLB   C3A19039  23.620   6.030   7.920
  794BOLB   C4A19040  23.580   5.630   8.250
  794BOLB   C1B19041  23.300   6.520   6.700
  794BOLB   C2B19042  23.420   6.360   7.170
  794BOLB   C3B19043  23.450   6.410   7.630
  794BOLB   C4B19044  23.620   6.530   8.090
  794BOLB   NC219045  24.640   3.300   8.900
  794BOLB   PO219046  24.940   3.380   9.200
  794BOLB   GL319047  24.640   3.780   9.110
  794BOLB   GL419048  24.780   4.090   9.270
  794BOLB   C1C19049  24.330   4.260   8.960
  794BOLB   C2C19050  24.210   4.620   8.720
  794BOLB   C3C19051  24.030   4.980   8.510
  794BOLB   C4C19052  23.850   5.300   8.350
  794BOLB   C1D19053  24.740   4.540   9.190
  794BOLB   C2D19054  24.610   4.950   9.270
  794BOLB   C3D19055  24.250   5.160   9.440
  794BOLB   C4D19056  24.020   5.430   9.670
  795BOLB   NC119057  27.160  15.150  17.210
  795BOLB   PO119058  27.090  14.760  17.600
  795BOLB   GL119059  27.330  14.690  17.820
  795BOLB   GL219060  27.230  14.770  18.160
  795BOLB   C1A19061  27.650  15.040  17.930
  795BOLB   C2A19062  27.750  15.310  18.190
  795BOLB   C3A19063  28.030  15.670  18.140
  795BOLB   C4A19064  28.310  15.980  18.280
  795BOLB   C1B19065  27.270  15.160  18.270
  795BOLB   C2B19066  27.510  15.170  18.630
  795BOLB   C3B19067  27.900  14.960  18.720
  795BOLB   C4B19068  28.450  14.700  18.640
  795BOLB   NC219069  29.710  17.030  19.860
  795BOLB   PO219070  30.120  16.870  19.730
  795BOLB   GL319071  29.910  16.980  19.270
  795BOLB   GL419072  29.580  16.950  19.380
  795BOLB   C1C19073  29.760  16.690  18.920
  795BOLB   C2C19074  29.390  16.490  18.890
  795BOLB   C3C19075  28.980  16.500  18.790
  795BOLB   C4C19076  28.690  16.270  18.430
  795BOLB   C1D19077  29.320  17.260  19.150
  795BOLB   C2D19078  29.140  17.360  18.760
  795BOLB   C3D19079  29.010  17.300  18.340
  795BOLB   C4D19080  28.760  17.050  18.100
  796BOLB   NC119081  27.650  19.000  22.390
  796BOLB   PO119082  27.620  19.060  21.880
  796BOLB   GL119083  27.360  18.970  21.570
  796BOLB   GL219084  27.040  18.850  21.710
  796BOLB   C1A19085  27.100  18.800  21.230
  796BOLB   C2A19086  26.660  18.680  21.050
  796BOLB   C3A19087  26.460  18.350  20.840
  796BOLB   C4A19088  26.540  17.920  20.740
  796BOLB   C1B19089  26.730  18.510  21.510
  796BOLB   C2B19090  26.360  18.350  21.340
  796BOLB   C3B19091  26.210  18.000  21.190
  796BOLB   C4B19092  25.960  18.010  20.780
  796BOLB   NC219093  28.450  18.190  21.350
  796BOLB   PO219094  28.220  18.260  21.750
  796BOLB   GL319095  27.990  17.900  21.400
  796BOLB   GL419096  27.890  18.150  21.180
  796BOLB   C1C19097  27.680  17.670  21.050
  796BOLB   C2C19098  27.590  17.370  20.770
  796BOLB   C3C19099  27.140  17.490  20.580
  796BOLB   C4C19100  26.740  17.480  20.760
  796BOLB   C1D19101  27.590  18.190  20.920
  796BOLB   C2D19102  27.210  18.440  20.790
  796BOLB   C3D19103  26.990  18.920  20.730
  796BOLB   C4D19104  26.980  19.340  20.550
  797BOLB   NC119105  26.750  12.280   9.830
  797BOLB   PO119106  26.610  11.840   9.950
  797BOLB   GL119107  26.830  11.800   9.560
  797BOLB   GL219108  27.120  11.620   9.500
  797BOLB   C1A19109  27.080  12.100   9.280
  797BOLB   C2A19110  27.460  12.100   8.950
  797BOLB   C3A19111  27.610  12.040   8.590
  797BOLB   C4A19112  27.890  12.050   8.270
  797BOLB   C1B19113  27.440  11.710   9.230
  797BOLB   C2B19114  27.810  11.630   9.020
  797BOLB   C3B19115  28.090  11.850   8.730
  797BOLB   C4B19116  28.340  12.100   8.380
  797BOLB   NC219117  28.730  11.580   5.900
  797BOLB   PO219118  28.390  11.360   6.000
  797BOLB   GL319119  28.370  11.650   6.350
  797BOLB   GL419120  28.630  11.760   6.490
  797BOLB   C1C19121  28.190  11.840   6.690
  797BOLB   C2C19122  28.120  11.990   7.100
  797BOLB   C3C19123  28.070  11.960   7.580
  797BOLB   C4C19124  28.140  12.040   7.920
  797BOLB   C1D19125  28.710  11.710   6.970
  797BOLB   C2D19126  28.500  11.580   7.370
  797BOLB   C3D19127  28.420  11.580   7.810
  797BOLB   C4D19128  28.600  11.920   8.030
  798BOLB   NC119129  30.940  12.700   8.180
  798BOLB   PO119130  30.900  12.310   8.190
  798BOLB   GL119131  30.460  12.490   8.290
  798BOLB   GL219132  30.410  12.170   8.490
  798BOLB   C1A19133  30.140  12.840   8.310
  798BOLB   C2A19134  30.220  13.190   8.590
  798BOLB   C3A19135  29.940  13.490   8.920
  798BOLB   C4A19136  29.630  13.620   9.190
  798BOLB   C1B19137  30.040  12.030   8.800
  798BOLB   C2B19138  29.600  12.050   9.040
  798BOLB   C3B19139  29.420  11.980   9.300
  798BOLB   C4B19140  29.350  11.890   9.640
  798BOLB   NC219141  31.160  15.300   8.530
  798BOLB   PO219142  31.000  14.970   8.930
  798BOLB   GL319143  30.690  15.090   9.160
  798BOLB   GL419144  30.500  15.330   9.280
  798BOLB   C1C19145  30.370  14.830   9.330
  798BOLB   C2C19146  29.910  14.640   9.360
  798BOLB   C3C19147  29.520  14.390   9.520
  798BOLB   C4C19148  29.410  13.930   9.410
  798BOLB   C1D19149  30.060  15.570   9.360
  798BOLB   C2D19150  29.660  15.440   9.610
  798BOLB   C3D19151  29.600  14.960   9.550
  798BOLB   C4D19152  29.370  14.790   9.310
  799BOLB   NC119153  22.190   8.560   9.590
  799BOLB   PO119154  22.180   8.480   9.170
  799BOLB   GL119155  22.310   8.360   8.800
  799BOLB   GL219156  22.620   8.290   8.840
  799BOLB   C1A19157  22.300   7.990   8.520
  799BOLB   C2A19158  22.170   7.850   8.180
  799BOLB   C3A19159  22.190   7.810   7.700
  799BOLB   C4A19160  22.280   7.850   7.340
  799BOLB   C1B19161  22.790   8.080   8.620
  799BOLB   C2B19162  22.900   7.980   8.200
  799BOLB   C3B19163  23.070   7.540   8.050
  799BOLB   C4B19164  23.230   7.090   8.130
  799BOLB   NC219165  23.030   7.140   4.880
  799BOLB   PO219166  23.010   7.000   5.310
  799BOLB   GL319167  23.230   7.330   5.610
  799BOLB   GL419168  23.600   7.180   5.650
  799BOLB   C1C19169  23.150   7.400   6.060
  799BOLB   C2C19170  22.960   7.240   6.440
  799BOLB   C3C19171  22.820   7.440   6.880
  799BOLB   C4C19172  22.590   7.750   7.070
  799BOLB   C1D19173  23.570   6.850   6.020
  799BOLB   C2D19174  23.430   6.950   6.480
  799BOLB   C3D19175  23.420   7.350   6.710
  799BOLB   C4D19176  23.340   7.680   7.000
  800BOLB   NC119177  31.570  17.240  16.760
  800BOLB   PO119178  31.310  17.560  16.790
  800BOLB   GL119179  31.030  17.300  16.770
  800BOLB   GL219180  31.060  17.200  16.470
  800BOLB   C1A19181  30.720  16.980  16.850
  800BOLB   C2A19182  30.270  16.850  16.670
  800BOLB   C3A19183  30.120  16.700  16.220
  800BOLB   C4A19184  30.300  16.530  15.890
  800BOLB   C1B19185  31.170  16.730  16.540
  800BOLB   C2B19186  31.360  16.420  16.250
  800BOLB   C3B19187  31.510  16.010  16.310
  800BOLB   C4B19188  31.770  15.630  16.110
  800BOLB   NC219189  32.660  16.840  15.080
  800BOLB   PO219190  32.220  17.020  15.070
  800BOLB   GL319191  31.840  16.750  15.160
  800BOLB   GL419192  31.620  16.820  15.430
  800BOLB   C1C19193  31.520  16.600  14.900
  800BOLB   C2C19194  31.060  16.520  14.950
  800BOLB   C3C19195  30.650  16.680  15.080
  800BOLB   C4C19196  30.340  16.550  15.460
  800BOLB   C1D19197  31.280  16.590  15.570
  800BOLB   C2D19198  30.820  16.800  15.560
  800BOLB   C3D19199  30.530  17.030  15.930
  800BOLB   C4D19200  30.620  16.920  16.360
  801BOLB   NC119201  22.610  22.070  14.460
  801BOLB   PO119202  22.700  22.500  14.560
  801BOLB   GL119203  22.940  22.830  14.560
  801BOLB   GL219204  23.240  22.820  14.690
  801BOLB   C1A19205  22.790  23.150  14.560
  801BOLB   C2A19206  22.790  23.530  14.700
  801BOLB   C3A19207  23.160  23.910  14.720
  801BOLB   C4A19208  23.310  24.330  14.890
  801BOLB   C1B19209  23.320  23.240  14.680
  801BOLB   C2B19210  23.750  23.360  14.580
  801BOLB   C3B19211  24.090  23.320  14.720
  801BOLB   C4B19212  24.620  23.250  14.860
  801BOLB   NC219213  24.170  26.550  14.770
  801BOLB   PO219214  23.940  26.380  14.970
  801BOLB   GL319215  23.440  26.320  14.960
  801BOLB   GL419216  23.310  26.280  14.620
  801BOLB   C1C19217  23.050  26.210  15.260
  801BOLB   C2C19218  23.070  25.730  15.360
  801BOLB   C3C19219  22.960  25.250  15.080
  801BOLB   C4C19220  23.110  24.740  15.030
  801BOLB   C1D19221  23.420  25.870  14.430
  801BOLB   C2D19222  23.390  25.490  14.310
  801BOLB   C3D19223  23.260  25.040  14.260
  801BOLB   C4D19224  23.080  24.730  14.550
  802BOLB   NC119225  23.390   6.430  11.430
  802BOLB   PO119226  22.980   6.430  11.240
  802BOLB   GL119227  23.100   6.070  11.030
  802BOLB   GL219228  22.960   5.790  11.120
  802BOLB   C1A19229  23.410   5.940  10.790
  802BOLB   C2A19230  23.650   5.660  10.480
  802BOLB   C3A19231  24.040   5.470  10.160
  802BOLB   C4A19232  24.040   5.090  10.020
  802BOLB   C1B19233  23.090   5.540  10.910
  802BOLB   C2B19234  23.390   5.280  10.660
  802BOLB   C3B19235  23.810   5.150  10.500
  802BOLB   C4B19236  24.110   4.790  10.510
  802BOLB   NC219237  25.210   3.790   9.220
  802BOLB   PO219238  25.420   3.550   9.730
  802BOLB   GL319239  25.370   3.950   9.680
  802BOLB   GL419240  25.690   4.150   9.600
  802BOLB   C1C19241  25.130   4.330   9.630
  802BOLB   C2C19242  24.800   4.520   9.680
  802BOLB   C3C19243  24.470   4.700   9.720
  802BOLB   C4C19244  24.050   4.790   9.760
  802BOLB   C1D19245  25.550   4.550   9.540
  802BOLB   C2D19246  25.510   4.920   9.770
  802BOLB   C3D19247  25.680   5.390   9.720
  802BOLB   C4D19248  25.890   5.680   9.440
  803BOLB   NC119249  12.080  14.690  17.950
  803BOLB   PO119250  11.760  15.020  17.680
  803BOLB   GL119251  11.580  14.890  18.010
  803BOLB   GL219252  11.750  14.920  18.280
  803BOLB   C1A19253  11.260  14.630  18.190
  803BOLB   C2A19254  10.910  14.550  18.320
  803BOLB   C3A19255  10.510  14.780  18.480
  803BOLB   C4A19256  10.120  14.890  18.640
  803BOLB   C1B19257  11.500  15.010  18.620
  803BOLB   C2B19258  11.160  15.060  19.000
  803BOLB   C3B19259  10.840  15.040  19.190
  803BOLB   C4B19260  10.510  14.850  19.320
  803BOLB   NC219261   8.510  16.490  19.750
  803BOLB   PO219262   8.470  16.110  19.950
  803BOLB   GL319263   8.740  15.800  19.730
  803BOLB   GL419264   8.560  16.030  19.440
  803BOLB   C1C19265   8.990  15.420  19.490
  803BOLB   C2C19266   9.150  15.070  19.230
  803BOLB   C3C19267   9.370  14.920  18.910
  803BOLB   C4C19268   9.690  14.950  18.660
  803BOLB   C1D19269   8.920  15.820  19.180
  803BOLB   C2D19270   9.290  15.600  19.130
  803BOLB   C3D19271   9.580  15.310  19.310
  803BOLB   C4D19272  10.010  15.270  19.110
  804BOLB   NC119273  20.270  27.130  16.510
  804BOLB   PO119274  19.960  27.410  16.210
  804BOLB   GL119275  19.870  27.120  15.950
  804BOLB   GL219276  19.950  27.120  15.710
  804BOLB   C1A19277  19.730  26.640  15.890
  804BOLB   C2A19278  19.540  26.140  15.980
  804BOLB   C3A19279  19.820  25.970  16.290
  804BOLB   C4A19280  20.060  25.600  16.210
  804BOLB   C1B19281  20.230  26.650  15.810
  804BOLB   C2B19282  20.360  26.330  15.580
  804BOLB   C3B19283  20.350  25.860  15.520
  804BOLB   C4B19284  20.180  25.560  15.310
  804BOLB   NC219285  21.520  26.700  17.330
  804BOLB   PO219286  21.370  26.900  17.000
  804BOLB   GL319287  21.130  26.850  16.750
  804BOLB   GL419288  21.270  26.780  16.460
  804BOLB   C1C19289  20.950  26.510  16.710
  804BOLB   C2C19290  20.750  26.190  16.500
  804BOLB   C3C19291  20.610  25.710  16.500
  804BOLB   C4C19292  20.370  25.350  16.340
  804BOLB   C1D19293  21.070  26.520  16.240
  804BOLB   C2D19294  20.580  26.300  16.070
  804BOLB   C3D19295  20.510  25.810  16.020
  804BOLB   C4D19296  20.700  25.410  16.000
  805BOLB   NC119297  26.440  13.010   9.490
  805BOLB   PO119298  26.500  12.630   9.580
  805BOLB   GL119299  27.020  12.530   9.440
  805BOLB   GL219300  27.190  12.390   9.610
  805BOLB   C1A19301  27.300  12.560   9.120
  805BOLB   C2A19302  27.540  12.620   8.770
  805BOLB   C3A19303  27.550  12.530   8.340
  805BOLB   C4A19304  27.850  12.420   7.950
  805BOLB   C1B19305  27.610  12.220   9.400
  805BOLB   C2B19306  27.950  12.200   9.060
  805BOLB   C3B19307  27.960  12.300   8.660
  805BOLB   C4B19308  28.000  12.700   8.560
  805BOLB   NC219309  29.120  12.920   5.890
  805BOLB   PO219310  28.800  13.130   5.650
  805BOLB   GL319311  28.510  12.870   5.870
  805BOLB   GL419312  28.450  13.150   6.060
  805BOLB   C1C19313  28.280  12.740   6.250
  805BOLB   C2C19314  28.270  12.690   6.730
  805BOLB   C3C19315  28.120  12.450   7.130
  805BOLB   C4C19316  28.050  12.500   7.600
  805BOLB   C1D19317  28.280  13.370   6.410
  805BOLB   C2D19318  27.980  13.500   6.630
  805BOLB   C3D19319  27.680  13.770   6.880
  805BOLB   C4D19320  27.240  13.910   6.930
  806BOLB   NC119321  20.880  12.930   7.570
  806BOLB   PO119322  21.110  12.530   7.770
  806BOLB   GL119323  20.980  12.460   7.360
  806BOLB   GL219324  21.140  12.160   7.280
  806BOLB   C1A19325  20.930  12.390   6.860
  806BOLB   C2A19326  20.960  12.270   6.460
  806BOLB   C3A19327  21.250  12.350   6.080
  806BOLB   C4A19328  21.430  12.200   5.700
  806BOLB   C1B19329  21.030  11.880   6.910
  806BOLB   C2B19330  21.020  11.790   6.460
  806BOLB   C3B19331  20.850  11.880   6.060
  806BOLB   C4B19332  20.430  11.950   5.870
  806BOLB   NC219333  22.680  13.030   3.550
  806BOLB   PO219334  22.470  12.750   3.690
  806BOLB   GL319335  22.170  12.610   4.040
  806BOLB   GL419336  21.980  12.790   4.120
  806BOLB   C1C19337  22.240  12.430   4.500
  806BOLB   C2C19338  22.180  12.250   4.860
  806BOLB   C3C19339  21.780  12.310   5.050
  806BOLB   C4C19340  21.790  12.310   5.500
  806BOLB   C1D19341  22.240  12.970   4.450
  806BOLB   C2D19342  22.010  13.160   4.840
  806BOLB   C3D19343  21.940  13.160   5.340
  806BOLB   C4D19344  22.030  13.300   5.780
  807BOLB   NC119345  27.930  13.660  11.120
  807BOLB   PO119346  27.900  13.410  10.750
  807BOLB   GL119347  28.290  13.640  10.640
  807BOLB   GL219348  28.480  13.420  10.650
  807BOLB   C1A19349  28.480  13.920  10.370
  807BOLB   C2A19350  28.630  13.960   9.950
  807BOLB   C3A19351  28.840  13.650   9.610
  807BOLB   C4A19352  29.180  13.420   9.600
  807BOLB   C1B19353  28.840  13.170  10.660
  807BOLB   C2B19354  29.270  13.300  10.500
  807BOLB   C3B19355  29.590  13.570  10.190
  807BOLB   C4B19356  29.900  13.700  10.060
  807BOLB   NC219357  31.700  13.390   8.460
  807BOLB   PO219358  31.420  13.190   8.640
  807BOLB   GL319359  31.050  13.280   8.730
  807BOLB   GL419360  30.910  13.000   8.660
  807BOLB   C1C19361  30.600  13.300   8.960
  807BOLB   C2C19362  30.330  13.530   9.290
  807BOLB   C3C19363  30.060  13.570   9.630
  807BOLB   C4C19364  29.610  13.550   9.710
  807BOLB   C1D19365  30.530  12.840   8.730
  807BOLB   C2D19366  30.190  12.620   8.760
  807BOLB   C3D19367  29.760  12.610   9.100
  807BOLB   C4D19368  29.480  12.480   9.360
  808BOLB   NC119369  27.820  15.790  23.340
  808BOLB   PO119370  27.530  15.940  22.940
  808BOLB   GL119371  27.240  15.710  22.780
  808BOLB   GL219372  27.040  15.860  22.570
  808BOLB   C1A19373  27.020  15.300  22.670
  808BOLB   C2A19374  26.580  15.050  22.580
  808BOLB   C3A19375  26.140  15.090  22.260
  808BOLB   C4A19376  25.790  15.110  22.050
  808BOLB   C1B19377  26.630  15.630  22.350
  808BOLB   C2B19378  26.380  15.540  22.030
  808BOLB   C3B19379  26.280  15.500  21.540
  808BOLB   C4B19380  26.470  15.520  21.080
  808BOLB   NC219381  24.540  15.570  24.230
  808BOLB   PO219382  24.980  15.610  24.090
  808BOLB   GL319383  24.980  15.580  23.620
  808BOLB   GL419384  24.800  15.750  23.440
  808BOLB   C1C19385  25.050  15.210  23.370
  808BOLB   C2C19386  25.040  14.930  22.900
  808BOLB   C3C19387  25.220  14.910  22.520
  808BOLB   C4C19388  25.360  15.160  22.230
  808BOLB   C1D19389  24.470  15.730  23.580
  808BOLB   C2D19390  24.310  15.300  23.480
  808BOLB   C3D19391  24.080  14.990  23.150
  808BOLB   C4D19392  23.910  14.900  22.760
  809BOLB   NC119393  20.950  18.600  19.050
  809BOLB   PO119394  21.370  18.460  19.240
  809BOLB   GL119395  21.500  18.630  19.630
  809BOLB   GL219396  21.810  18.520  19.750
  809BOLB   C1A19397  21.330  18.760  20.060
  809BOLB   C2A19398  21.350  18.760  20.470
  809BOLB   C3A19399  21.410  18.980  20.860
  809BOLB   C4A19400  21.450  19.380  21.010
  809BOLB   C1B19401  21.850  18.440  20.100
  809BOLB   C2B19402  21.580  18.310  20.410
  809BOLB   C3B19403  21.500  17.960  20.500
  809BOLB   C4B19404  21.720  17.500  20.420
  809BOLB   NC219405  22.420  20.550  22.630
  809BOLB   PO219406  22.000  20.500  22.860
  809BOLB   GL319407  21.930  20.380  22.470
  809BOLB   GL419408  21.680  20.530  22.400
  809BOLB   C1C19409  21.770  20.330  21.990
  809BOLB   C2C19410  21.930  20.160  21.630
  809BOLB   C3C19411  22.130  19.850  21.360
  809BOLB   C4C19412  21.870  19.540  21.050
  809BOLB   C1D19413  21.250  20.470  22.120
  809BOLB   C2D19414  20.960  20.290  21.850
  809BOLB   C3D19415  20.830  20.130  21.460
  809BOLB   C4D19416  20.750  20.160  21.040
  810BOLB   NC119417  22.980   7.860  10.380
  810BOLB   PO119418  22.940   7.430  10.100
  810BOLB   GL119419  23.150   7.300   9.700
  810BOLB   GL219420  23.280   7.570   9.540
  810BOLB   C1A19421  23.320   7.110   9.300
  810BOLB   C2A19422  23.650   7.100   9.050
  810BOLB   C3A19423  24.010   7.030   8.820
  810BOLB   C4A19424  24.460   7.080   8.790
  810BOLB   C1B19425  23.660   7.410   9.440
  810BOLB   C2B19426  23.780   6.980   9.510
  810BOLB   C3B19427  24.140   6.690   9.380
  810BOLB   C4B19428  24.310   6.650   8.930
  810BOLB   NC219429  26.220   5.850   7.620
  810BOLB   PO219430  26.080   5.590   7.500
  810BOLB   GL319431  25.750   5.870   7.860
  810BOLB   GL419432  25.720   6.220   7.820
  810BOLB   C1C19433  25.300   5.980   8.040
  810BOLB   C2C19434  25.090   6.290   8.280
  810BOLB   C3C19435  24.790   6.390   8.440
  810BOLB   C4C19436  24.460   6.820   8.480
  810BOLB   C1D19437  25.500   6.510   8.120
  810BOLB   C2D19438  25.010   6.840   8.230
  810BOLB   C3D19439  24.670   7.000   7.900
  810BOLB   C4D19440  24.410   7.450   7.810
  811BOLB   NC119441  31.680  12.180   9.330
  811BOLB   PO119442  31.300  11.830   9.120
  811BOLB   GL119443  30.830  11.870   9.060
  811BOLB   GL219444  30.750  11.590   9.230
  811BOLB   C1A19445  30.470  12.100   9.120
  811BOLB   C2A19446  30.080  12.280   9.310
  811BOLB   C3A19447  29.760  12.150   9.580
  811BOLB   C4A19448  29.540  12.410   9.820
  811BOLB   C1B19449  30.520  11.820   9.510
  811BOLB   C2B19450  30.190  11.960   9.740
  811BOLB   C3B19451  30.040  12.240  10.080
  811BOLB   C4B19452  29.690  12.330  10.440
  811BOLB   NC219453  31.870  12.880   9.560
  811BOLB   PO219454  31.760  13.040   9.990
  811BOLB   GL319455  31.380  12.800  10.040
  811BOLB   GL419456  31.420  12.550  10.230
  811BOLB   C1C19457  30.970  12.790   9.970
  811BOLB   C2C19458  30.560  12.890   9.960
  811BOLB   C3C19459  30.140  12.840  10.180
  811BOLB   C4C19460  29.810  12.650  10.090
  811BOLB   C1D19461  31.320  12.560  10.590
  811BOLB   C2D19462  30.890  12.480  10.910
  811BOLB   C3D19463  30.710  12.220  11.300
  811BOLB   C4D19464  30.600  12.360  11.730
  812BOLB   NC119465  24.240   6.480  12.680
  812BOLB   PO119466  23.960   6.280  12.800
  812BOLB   GL119467  23.910   5.940  12.800
  812BOLB   GL219468  24.250   5.850  12.880
  812BOLB   C1A19469  23.890   5.660  12.550
  812BOLB   C2A19470  24.220   5.410  12.480
  812BOLB   C3A19471  24.560   5.230  12.510
  812BOLB   C4A19472  24.720   4.860  12.610
  812BOLB   C1B19473  24.600   5.700  12.760
  812BOLB   C2B19474  24.920   5.790  12.980
  812BOLB   C3B19475  25.260   5.490  13.140
  812BOLB   C4B19476  25.620   5.290  12.920
  812BOLB   NC219477  26.260   2.580  11.950
  812BOLB   PO219478  26.420   3.040  11.880
  812BOLB   GL319479  26.210   3.430  12.120
  812BOLB   GL419480  26.480   3.590  12.050
  812BOLB   C1C19481  25.820   3.640  12.330
  812BOLB   C2C19482  25.710   4.080  12.290
  812BOLB   C3C19483  25.200   4.200  12.520
  812BOLB   C4C19484  24.920   4.430  12.710
  812BOLB   C1D19485  26.160   4.020  12.110
  812BOLB   C2D19486  26.030   4.490  12.210
  812BOLB   C3D19487  26.220   4.960  12.280
  812BOLB   C4D19488  26.260   5.390  12.060
  813BOLB   NC119489  28.870  11.450  13.530
  813BOLB   PO119490  28.620  11.260  13.030
  813BOLB   GL119491  29.130  11.280  13.080
  813BOLB   GL219492  29.070  11.340  12.780
  813BOLB   C1A19493  29.260  11.000  13.330
  813BOLB   C2A19494  29.760  10.850  13.340
  813BOLB   C3A19495  30.100  10.880  13.610
  813BOLB   C4A19496  30.430  10.700  13.860
  813BOLB   C1B19497  29.450  11.010  12.880
  813BOLB   C2B19498  29.870  10.740  12.830
  813BOLB   C3B19499  30.110  10.350  12.680
  813BOLB   C4B19500  30.370   9.950  12.760
  813BOLB   NC219501  32.940   9.930  14.680
  813BOLB   PO219502  32.500   9.740  14.960
  813BOLB   GL319503  32.030   9.830  14.990
  813BOLB   GL419504  31.870   9.580  14.930
  813BOLB   C1C19505  31.580  10.020  14.850
  813BOLB   C2C19506  31.290  10.260  14.620
  813BOLB   C3C19507  30.970  10.610  14.510
  813BOLB   C4C19508  30.810  10.820  14.160
  813BOLB   C1D19509  31.440   9.530  14.740
  813BOLB   C2D19510  31.290   9.730  14.440
  813BOLB   C3D19511  30.960   9.900  14.550
  813BOLB   C4D19512  30.650  10.170  14.660
  814BOLB   NC119513  23.280  15.940  19.350
  814BOLB   PO119514  23.180  15.990  19.780
  814BOLB   GL119515  23.330  16.210  20.070
  814BOLB   GL219516  23.470  16.550  20.090
  814BOLB   C1A19517  23.510  16.270  20.490
  814BOLB   C2A19518  23.490  16.410  20.900
  814BOLB   C3A19519  23.230  16.770  21.130
  814BOLB   C4A19520  23.250  17.060  21.470
  814BOLB   C1B19521  23.770  16.650  20.360
  814BOLB   C2B19522  23.940  16.650  20.780
  814BOLB   C3B19523  23.920  16.450  21.160
  814BOLB   C4B19524  23.860  16.290  21.560
  814BOLB   NC219525  24.910  17.790  23.170
  814BOLB   PO219526  24.530  17.880  23.270
  814BOLB   GL319527  24.200  17.990  23.030
  814BOLB   GL419528  24.040  18.290  23.080
  814BOLB   C1C19529  24.120  17.970  22.620
  814BOLB   C2C19530  23.740  17.950  22.320
  814BOLB   C3C19531  23.540  17.710  22.060
  814BOLB   C4C19532  23.280  17.420  21.800
  814BOLB   C1D19533  23.810  18.370  22.560
  814BOLB   C2D19534  23.370  18.270  22.210
  814BOLB   C3D19535  22.940  18.210  22.350
  814BOLB   C4D19536  22.570  17.890  22.370
  815BOLB   NC119537  22.000   7.060  11.090
  815BOLB   PO119538  21.970   6.750  10.770
  815BOLB   GL119539  22.050   6.350  10.440
  815BOLB   GL219540  21.660   6.160  10.480
  815BOLB   C1A19541  22.140   6.050  10.170
  815BOLB   C2A19542  22.150   5.710   9.850
  815BOLB   C3A19543  22.110   5.360   9.670
  815BOLB   C4A19544  22.110   5.060   9.400
  815BOLB   C1B19545  21.640   5.840  10.230
  815BOLB   C2B19546  22.000   5.450  10.320
  815BOLB   C3B19547  22.320   5.190  10.130
  815BOLB   C4B19548  22.540   4.810  10.140
  815BOLB   NC219549  21.860   4.070   7.250
  815BOLB   PO219550  21.920   4.570   7.240
  815BOLB   GL319551  21.610   4.850   7.320
  815BOLB   GL419552  21.500   5.100   7.120
  815BOLB   C1C19553  21.610   4.960   7.780
  815BOLB   C2C19554  21.620   4.920   8.320
  815BOLB   C3C19555  21.690   4.880   8.730
  815BOLB   C4C19556  21.890   4.920   9.050
  815BOLB   C1D19557  21.540   5.380   7.380
  815BOLB   C2D19558  21.510   5.440   7.810
  815BOLB   C3D19559  21.440   5.420   8.280
  815BOLB   C4D19560  21.590   5.440   8.710
  816BOLB   NC119561  28.480  14.260  13.110
  816BOLB   PO119562  28.540  13.740  13.060
  816BOLB   GL119563  28.760  13.590  12.730
  816BOLB   GL219564  28.990  13.690  12.790
  816BOLB   C1A19565  29.040  13.190  12.620
  816BOLB   C2A19566  29.500  13.080  12.690
  816BOLB   C3A19567  29.850  13.260  12.680
  816BOLB   C4A19568  30.140  13.060  12.320
  816BOLB   C1B19569  29.370  13.560  12.640
  816BOLB   C2B19570  29.690  13.530  12.210
  816BOLB   C3B19571  30.080  13.770  11.970
  816BOLB   C4B19572  30.480  13.650  11.940
  816BOLB   NC219573  32.340  12.750  11.180
  816BOLB   PO219574  32.370  13.040  11.470
  816BOLB   GL319575  32.000  13.210  11.590
  816BOLB   GL419576  31.780  12.990  11.410
  816BOLB   C1C19577  31.630  13.240  11.850
  816BOLB   C2C19578  31.200  12.950  11.980
  816BOLB   C3C19579  30.870  12.850  12.120
  816BOLB   C4C19580  30.400  12.840  12.020
  816BOLB   C1D19581  31.310  13.010  11.520
  816BOLB   C2D19582  30.880  12.950  11.540
  816BOLB   C3D19583  30.490  12.670  11.330
  816BOLB   C4D19584  30.100  12.730  11.100
  817BOLB   NC119585  21.210  19.750  19.230
  817BOLB   PO119586  20.740  19.990  19.100
  817BOLB   GL119587  20.750  20.350  19.440
  817BOLB   GL219588  21.070  20.280  19.430
  817BOLB   C1A19589  20.860  20.600  19.860
  817BOLB   C2A19590  20.980  20.520  20.270
  817BOLB   C3A19591  21.270  20.640  20.490
  817BOLB   C4A19592  21.100  20.770  20.860
  817BOLB   C1B19593  21.370  20.320  19.740
  817BOLB   C2B19594  21.650  20.520  20.100
  817BOLB   C3B19595  22.120  20.550  20.270
  817BOLB   C4B19596  22.650  20.710  20.140
  817BOLB   NC219597  21.930  21.730  22.940
  817BOLB   PO219598  22.200  21.490  22.780
  817BOLB   GL319599  22.150  21.430  22.350
  817BOLB   GL419600  22.290  21.700  22.230
  817BOLB   C1C19601  22.000  21.290  22.030
  817BOLB   C2C19602  22.080  21.250  21.590
  817BOLB   C3C19603  21.780  21.140  21.360
  817BOLB   C4C19604  21.400  20.830  21.230
  817BOLB   C1D19605  22.500  21.750  21.890
  817BOLB   C2D19606  22.350  21.650  21.430
  817BOLB   C3D19607  22.140  21.370  21.130
  817BOLB   C4D19608  21.980  21.440  20.680
  818BOLB   NC119609  23.800   9.580   8.900
  818BOLB   PO119610  23.730   9.750   8.480
  818BOLB   GL119611  23.820   9.380   8.260
  818BOLB   GL219612  23.650   9.110   8.120
  818BOLB   C1A19613  23.960   9.390   7.860
  818BOLB   C2A19614  24.140   9.350   7.440
  818BOLB   C3A19615  23.870   9.200   6.980
  818BOLB   C4A19616  23.690   9.150   6.590
  818BOLB   C1B19617  23.700   8.910   7.680
  818BOLB   C2B19618  23.880   8.620   7.470
  818BOLB   C3B19619  24.380   8.470   7.530
  818BOLB   C4B19620  24.750   8.260   7.670
  818BOLB   NC219621  24.850  10.270   4.520
  818BOLB   PO219622  24.610   9.980   4.750
  818BOLB   GL319623  24.560  10.220   5.100
  818BOLB   GL419624  24.640  10.580   5.030
  818BOLB   C1C19625  24.320  10.250   5.520
  818BOLB   C2C19626  24.150   9.780   5.680
  818BOLB   C3C19627  23.890   9.450   5.820
  818BOLB   C4C19628  23.650   9.340   6.100
  818BOLB   C1D19629  24.530  10.660   5.420
  818BOLB   C2D19630  24.390  10.670   5.840
  818BOLB   C3D19631  24.310  10.880   6.280
  818BOLB   C4D19632  24.140  10.870   6.740
  819BOLB   NC119633  27.160  21.360  20.320
  819BOLB   PO119634  26.940  21.350  20.650
  819BOLB   GL119635  26.730  20.950  20.530
  819BOLB   GL219636  26.550  21.050  20.510
  819BOLB   C1A19637  26.400  20.600  20.580
  819BOLB   C2A19638  26.010  20.320  20.690
  819BOLB   C3A19639  26.040  19.850  20.800
  819BOLB   C4A19640  26.470  19.520  20.650
  819BOLB   C1B19641  26.320  20.880  20.120
  819BOLB   C2B19642  26.180  20.770  19.730
  819BOLB   C3B19643  26.100  20.500  19.370
  819BOLB   C4B19644  26.080  20.100  19.040
  819BOLB   NC219645  26.380  20.830  21.360
  819BOLB   PO219646  25.970  20.540  21.380
  819BOLB   GL319647  25.810  20.220  21.100
  819BOLB   GL419648  25.480  20.060  21.310
  819BOLB   C1C19649  25.620  20.030  20.840
  819BOLB   C2C19650  25.520  19.730  20.500
  819BOLB   C3C19651  25.750  19.380  20.450
  819BOLB   C4C19652  26.180  19.420  20.270
  819BOLB   C1D19653  25.160  20.000  20.950
  819BOLB   C2D19654  24.840  19.850  20.650
  819BOLB   C3D19655  25.070  19.510  20.420
  819BOLB   C4D19656  25.300  19.480  20.040
  820BOLB   NC119657  24.610   8.590   9.790
  820BOLB   PO119658  24.470   8.180   9.640
  820BOLB   GL119659  24.740   8.050   9.380
  820BOLB   GL219660  24.880   8.340   9.360
  820BOLB   C1A19661  24.840   7.760   9.030
  820BOLB   C2A19662  24.930   7.390   8.810
  820BOLB   C3A19663  25.210   7.210   8.610
  820BOLB   C4A19664  25.600   6.980   8.520
  820BOLB   C1B19665  25.220   8.060   9.240
  820BOLB   C2B19666  25.310   7.620   9.140
  820BOLB   C3B19667  25.650   7.340   8.880
  820BOLB   C4B19668  25.600   7.450   8.430
  820BOLB   NC219669  26.760   5.180   8.110
  820BOLB   PO219670  26.290   5.070   8.030
  820BOLB   GL319671  25.990   5.010   8.340
  820BOLB   GL419672  26.230   5.010   8.530
  820BOLB   C1C19673  25.910   5.450   8.510
  820BOLB   C2C19674  26.050   5.830   8.380
  820BOLB   C3C19675  25.880   6.230   8.380
  820BOLB   C4C19676  25.800   6.680   8.420
  820BOLB   C1D19677  25.890   4.910   8.890
  820BOLB   C2D19678  25.530   4.940   9.210
  820BOLB   C3D19679  25.400   5.280   9.300
  820BOLB   C4D19680  25.110   5.370   9.650
  821BOLB   NC119681  26.790  16.280  17.650
  821BOLB   PO119682  26.950  16.160  17.270
  821BOLB   GL119683  27.320  16.180  17.550
  821BOLB   GL219684  27.660  16.310  17.270
  821BOLB   C1A19685  27.590  16.250  17.800
  821BOLB   C2A19686  28.040  16.300  17.890
  821BOLB   C3A19687  28.330  16.590  18.140
  821BOLB   C4A19688  28.470  16.800  18.370
  821BOLB   C1B19689  28.040  16.190  17.290
  821BOLB   C2B19690  28.470  16.420  17.460
  821BOLB   C3B19691  28.910  16.220  17.630
  821BOLB   C4B19692  29.270  16.280  17.920
  821BOLB   NC219693  29.310  17.260  20.430
  821BOLB   PO219694  29.380  17.830  20.390
  821BOLB   GL319695  29.090  17.700  20.000
  821BOLB   GL419696  29.250  17.870  19.750
  821BOLB   C1C19697  29.150  17.320  19.750
  821BOLB   C2C19698  28.960  17.080  19.490
  821BOLB   C3C19699  28.840  16.890  19.070
  821BOLB   C4C19700  28.750  16.930  18.610
  821BOLB   C1D19701  28.830  17.700  19.550
  821BOLB   C2D19702  28.810  17.410  19.150
  821BOLB   C3D19703  28.670  17.470  18.740
  821BOLB   C4D19704  28.350  17.270  18.410
  822BOLB   NC119705  27.360  10.670  15.940
  822BOLB   PO119706  27.830  10.550  16.110
  822BOLB   GL119707  28.250  10.360  16.190
  822BOLB   GL219708  28.200  10.200  16.430
  822BOLB   C1A19709  28.570  10.070  16.140
  822BOLB   C2A19710  28.720   9.720  16.230
  822BOLB   C3A19711  29.050   9.570  16.540
  822BOLB   C4A19712  29.140   9.100  16.610
  822BOLB   C1B19713  28.650  10.310  16.520
  822BOLB   C2B19714  28.940  10.140  16.730
  822BOLB   C3B19715  29.180   9.910  16.950
  822BOLB   C4B19716  29.590   9.830  17.300
  822BOLB   NC219717  27.090   9.610  16.490
  822BOLB   PO219718  27.250   9.220  16.320
  822BOLB   GL319719  27.560   9.000  16.150
  822BOLB   GL419720  27.710   8.800  15.820
  822BOLB   C1C19721  27.870   8.990  16.480
  822BOLB   C2C19722  28.320   8.790  16.510
  822BOLB   C3C19723  28.650   8.570  16.540
  822BOLB   C4C19724  29.060   8.600  16.640
  822BOLB   C1D19725  27.620   8.490  15.820
  822BOLB   C2D19726  27.820   8.180  15.960
  822BOLB   C3D19727  27.770   7.660  15.950
  822BOLB   C4D19728  28.010   7.360  16.130
  823BOLB   NC119729  30.460  20.080  15.910
  823BOLB   PO119730  30.490  20.050  16.350
  823BOLB   GL119731  30.030  20.050  16.260
  823BOLB   GL219732  30.050  19.700  16.030
  823BOLB   C1A19733  29.710  20.100  16.050
  823BOLB   C2A19734  29.340  20.050  15.920
  823BOLB   C3A19735  29.260  19.620  15.770
  823BOLB   C4A19736  29.240  19.250  16.030
  823BOLB   C1B19737  29.710  19.480  15.670
  823BOLB   C2B19738  29.440  19.200  15.440
  823BOLB   C3B19739  28.970  19.230  15.540
  823BOLB   C4B19740  28.580  19.440  15.560
  823BOLB   NC219741  30.170  19.610  17.870
  823BOLB   PO219742  29.780  19.430  18.040
  823BOLB   GL319743  29.400  19.220  18.120
  823BOLB   GL419744  29.290  19.200  18.460
  823BOLB   C1C19745  29.120  19.030  17.860
  823BOLB   C2C19746  29.000  18.890  17.380
  823BOLB   C3C19747  29.050  19.120  17.020
  823BOLB   C4C19748  29.100  19.080  16.520
  823BOLB   C1D19749  28.910  19.260  18.280
  823BOLB   C2D19750  28.560  19.020  18.350
  823BOLB   C3D19751  28.190  19.100  18.260
  823BOLB   C4D19752  27.810  18.930  18.260
  824BOLB   NC119753  27.680  16.640  13.780
  824BOLB   PO119754  28.100  16.530  13.530
  824BOLB   GL119755  28.510  16.670  13.630
  824BOLB   GL219756  28.830  16.610  13.590
  824BOLB   C1A19757  28.600  17.060  13.660
  824BOLB   C2A19758  29.050  17.120  13.780
  824BOLB   C3A19759  29.420  17.160  13.630
  824BOLB   C4A19760  29.830  17.270  13.500
  824BOLB   C1B19761  29.280  16.690  13.500
  824BOLB   C2B19762  29.660  16.790  13.300
  824BOLB   C3B19763  29.890  16.920  13.000
  824BOLB   C4B19764  30.190  16.900  12.810
  824BOLB   NC219765  32.020  17.940  13.520
  824BOLB   PO219766  32.100  17.500  13.320
  824BOLB   GL319767  31.670  17.570  13.310
  824BOLB   GL419768  31.610  17.860  13.310
  824BOLB   C1C19769  31.240  17.480  13.070
  824BOLB   C2C19770  30.880  17.380  13.350
  824BOLB   C3C19771  30.540  17.210  13.660
  824BOLB   C4C19772  30.130  17.370  13.750
  824BOLB   C1D19773  31.230  17.790  13.500
  824BOLB   C2D19774  30.820  17.880  13.620
  824BOLB   C3D19775  30.410  17.800  13.630
  824BOLB   C4D19776  29.980  18.010  13.650
  825BOLB   NC119777  25.990  18.740  15.860
  825BOLB   PO119778  26.360  18.690  15.660
  825BOLB   GL119779  26.560  19.070  15.810
  825BOLB   GL219780  26.430  19.410  15.930
  825BOLB   C1A19781  26.960  19.230  16.120
  825BOLB   C2A19782  27.400  19.300  16.150
  825BOLB   C3A19783  27.800  19.550  16.050
  825BOLB   C4A19784  28.070  20.030  16.330
  825BOLB   C1B19785  26.660  19.770  16.220
  825BOLB   C2B19786  26.820  20.190  16.180
  825BOLB   C3B19787  27.160  20.390  16.430
  825BOLB   C4B19788  27.350  20.530  16.810
  825BOLB   NC219789  29.080  20.250  18.440
  825BOLB   PO219790  29.420  20.250  18.210
  825BOLB   GL319791  29.290  20.120  17.890
  825BOLB   GL419792  28.990  20.000  18.030
  825BOLB   C1C19793  28.890  20.100  17.530
  825BOLB   C2C19794  28.730  19.960  17.340
  825BOLB   C3C19795  28.450  20.020  17.060
  825BOLB   C4C19796  28.150  20.120  16.760
  825BOLB   C1D19797  28.810  19.620  17.860
  825BOLB   C2D19798  28.580  19.230  17.790
  825BOLB   C3D19799  28.210  19.050  17.760
  825BOLB   C4D19800  27.790  19.030  17.780
  826BOLB   NC119801  20.290  13.950  20.130
  826BOLB   PO119802  20.030  14.260  20.380
  826BOLB   GL119803  20.370  14.120  20.660
  826BOLB   GL219804  20.640  14.010  20.550
  826BOLB   C1A19805  20.430  14.170  21.090
  826BOLB   C2A19806  20.460  14.180  21.460
  826BOLB   C3A19807  20.680  13.990  21.770
  826BOLB   C4A19808  20.480  13.980  22.160
  826BOLB   C1B19809  20.730  13.850  20.920
  826BOLB   C2B19810  20.840  13.860  21.300
  826BOLB   C3B19811  20.960  13.690  21.540
  826BOLB   C4B19812  20.860  13.600  22.010
  826BOLB   NC219813  20.650  13.780  24.630
  826BOLB   PO219814  20.460  13.460  24.620
  826BOLB   GL319815  20.680  13.430  24.270
  826BOLB   GL419816  20.730  13.150  24.140
  826BOLB   C1C19817  20.810  13.480  23.830
  826BOLB   C2C19818  20.930  13.530  23.350
  826BOLB   C3C19819  20.910  13.690  22.960
  826BOLB   C4C19820  20.660  13.800  22.640
  826BOLB   C1D19821  20.350  13.290  23.930
  826BOLB   C2D19822  20.200  13.220  23.590
  826BOLB   C3D19823  20.080  13.080  23.140
  826BOLB   C4D19824  20.250  13.070  22.790
  827BOLB   NC119825  27.640  12.050  17.360
  827BOLB   PO119826  27.850  12.420  17.230
  827BOLB   GL119827  28.200  12.140  17.420
  827BOLB   GL219828  28.220  11.900  17.170
  827BOLB   C1A19829  28.500  12.050  17.670
  827BOLB   C2A19830  28.880  11.780  17.630
  827BOLB   C3A19831  29.330  11.780  17.430
  827BOLB   C4A19832  29.690  11.610  17.280
  827BOLB   C1B19833  28.660  12.000  17.210
  827BOLB   C2B19834  28.990  12.230  17.470
  827BOLB   C3B19835  29.340  12.170  17.730
  827BOLB   C4B19836  29.620  12.260  18.060
  827BOLB   NC219837  32.250  11.180  17.360
  827BOLB   PO219838  32.260  11.650  17.370
  827BOLB   GL319839  31.820  11.670  17.330
  827BOLB   GL419840  31.840  11.950  17.180
  827BOLB   C1C19841  31.450  11.770  17.410
  827BOLB   C2C19842  30.980  11.830  17.400
  827BOLB   C3C19843  30.460  11.810  17.330
  827BOLB   C4C19844  30.100  11.700  17.310
  827BOLB   C1D19845  31.630  12.230  16.970
  827BOLB   C2D19846  31.160  12.350  17.030
  827BOLB   C3D19847  30.790  12.610  16.910
  827BOLB   C4D19848  30.340  12.630  16.790
  828BOLB   NC119849  28.680  23.510  12.320
  828BOLB   PO119850  28.850  23.210  12.280
  828BOLB   GL119851  28.570  22.910  12.150
  828BOLB   GL219852  28.480  22.810  11.830
  828BOLB   C1A19853  28.370  22.600  12.440
  828BOLB   C2A19854  28.250  22.260  12.700
  828BOLB   C3A19855  27.950  22.120  12.920
  828BOLB   C4A19856  27.930  22.150  13.280
  828BOLB   C1B19857  28.070  22.620  11.920
  828BOLB   C2B19858  27.680  22.370  11.950
  828BOLB   C3B19859  27.360  22.080  11.940
  828BOLB   C4B19860  27.130  21.720  11.950
  828BOLB   NC219861  29.880  22.210  14.470
  828BOLB   PO219862  29.460  22.110  14.310
  828BOLB   GL319863  28.950  22.100  14.360
  828BOLB   GL419864  29.060  21.910  14.660
  828BOLB   C1C19865  28.680  21.790  14.380
  828BOLB   C2C19866  28.290  21.650  14.400
  828BOLB   C3C19867  27.940  21.790  14.080
  828BOLB   C4C19868  27.830  22.130  13.710
  828BOLB   C1D19869  28.670  21.880  14.910
  828BOLB   C2D19870  28.250  21.800  14.910
  828BOLB   C3D19871  27.890  21.510  14.920
  828BOLB   C4D19872  27.760  21.070  14.870
  829BOLB   NC119873  28.470  15.320  13.680
  829BOLB   PO119874  28.660  15.480  13.330
  829BOLB   GL119875  29.060  15.710  13.230
  829BOLB   GL219876  28.950  16.020  12.920
  829BOLB   C1A19877  29.440  15.810  13.070
  829BOLB   C2A19878  29.830  15.750  13.040
  829BOLB   C3A19879  30.000  15.620  12.740
  829BOLB   C4A19880  30.170  15.430  12.450
  829BOLB   C1B19881  29.310  16.160  12.750
  829BOLB   C2B19882  29.690  16.020  12.640
  829BOLB   C3B19883  30.050  15.970  12.470
  829BOLB   C4B19884  30.510  15.890  12.340
  829BOLB   NC219885  31.580  15.530  10.820
  829BOLB   PO219886  31.810  15.310  11.140
  829BOLB   GL319887  31.460  15.130  11.230
  829BOLB   GL419888  31.130  15.250  11.090
  829BOLB   C1C19889  31.410  15.010  11.650
  829BOLB   C2C19890  31.280  15.220  12.030
  829BOLB   C3C19891  30.990  15.450  12.300
  829BOLB   C4C19892  30.600  15.280  12.300
  829BOLB   C1D19893  30.900  14.970  10.870
  829BOLB   C2D19894  30.520  14.880  10.830
  829BOLB   C3D19895  30.310  14.480  10.760
  829BOLB   C4D19896  30.080  14.130  10.920
  830BOLB   NC119897  30.890  14.760  18.820
  830BOLB   PO119898  30.920  14.450  18.610
  830BOLB   GL119899  30.570  14.280  18.480
  830BOLB   GL219900  30.330  14.270  18.710
  830BOLB   C1A19901  30.450  13.910  18.410
  830BOLB   C2A19902  30.170  13.770  18.120
  830BOLB   C3A19903  29.950  14.040  17.740
  830BOLB   C4A19904  30.030  14.340  17.460
  830BOLB   C1B19905  30.040  14.260  18.420
  830BOLB   C2B19906  29.750  14.030  18.160
  830BOLB   C3B19907  29.430  14.030  17.900
  830BOLB   C4B19908  29.070  14.100  17.720
  830BOLB   NC219909  31.710  15.980  18.120
  830BOLB   PO219910  31.740  15.480  17.990
  830BOLB   GL319911  31.600  15.170  17.840
  830BOLB   GL419912  31.570  15.090  17.510
  830BOLB   C1C19913  31.170  14.980  17.810
  830BOLB   C2C19914  30.940  14.930  17.480
  830BOLB   C3C19915  30.550  14.960  17.320
  830BOLB   C4C19916  30.260  14.670  17.340
  830BOLB   C1D19917  31.230  15.390  17.420
  830BOLB   C2D19918  30.920  15.730  17.090
  830BOLB   C3D19919  30.690  16.000  16.770
  830BOLB   C4D19920  30.480  15.900  16.510
  831BOLB   NC119921  22.000  20.270  19.020
  831BOLB   PO119922  22.200  20.520  18.720
  831BOLB   GL119923  22.450  20.580  18.930
  831BOLB   GL219924  22.190  20.770  19.140
  831BOLB   C1A19925  22.620  20.930  19.120
  831BOLB   C2A19926  22.800  20.880  19.480
  831BOLB   C3A19927  22.930  21.120  19.860
  831BOLB   C4A19928  23.240  21.450  19.840
  831BOLB   C1B19929  22.290  20.640  19.580
  831BOLB   C2B19930  22.500  20.340  19.850
  831BOLB   C3B19931  22.300  20.110  20.190
  831BOLB   C4B19932  22.480  20.100  20.540
  831BOLB   NC219933  24.230  23.290  21.310
  831BOLB   PO219934  24.310  22.970  21.080
  831BOLB   GL319935  24.300  22.600  20.810
  831BOLB   GL419936  24.380  22.340  20.910
  831BOLB   C1C19937  23.980  22.460  20.610
  831BOLB   C2C19938  23.660  22.210  20.410
  831BOLB   C3C19939  23.670  22.080  20.050
  831BOLB   C4C19940  23.510  21.720  20.040
  831BOLB   C1D19941  24.680  22.340  20.580
  831BOLB   C2D19942  24.730  22.460  20.210
  831BOLB   C3D19943  24.560  22.570  19.880
  831BOLB   C4D19944  24.630  22.920  19.450
  832BOLB   NC119945  26.790  12.780  17.330
  832BOLB   PO119946  27.070  12.860  17.420
  832BOLB   GL119947  27.430  12.610  17.740
  832BOLB   GL219948  27.730  12.590  17.670
  832BOLB   C1A19949  27.540  12.490  18.180
  832BOLB   C2A19950  27.840  12.440  18.370
  832BOLB   C3A19951  28.220  12.410  18.660
  832BOLB   C4A19952  28.360  12.310  18.980
  832BOLB   C1B19953  28.190  12.550  17.800
  832BOLB   C2B19954  28.380  12.450  18.110
  832BOLB   C3B19955  28.680  12.380  18.400
  832BOLB   C4B19956  28.850  12.250  18.750
  832BOLB   NC219957  29.680  11.590  21.420
  832BOLB   PO219958  29.350  11.730  21.170
  832BOLB   GL319959  28.960  11.640  20.850
  832BOLB   GL419960  28.780  11.420  20.990
  832BOLB   C1C19961  28.790  11.920  20.550
  832BOLB   C2C19962  28.660  11.890  20.170
  832BOLB   C3C19963  28.610  12.000  19.730
  832BOLB   C4C19964  28.470  12.190  19.450
  832BOLB   C1D19965  28.490  11.780  20.930
  832BOLB   C2D19966  27.970  11.710  20.740
  832BOLB   C3D19967  27.830  11.650  20.280
  832BOLB   C4D19968  27.870  11.340  19.960
  833BOLB   NC119969  24.610  18.750  17.840
  833BOLB   PO119970  24.840  18.380  18.050
  833BOLB   GL119971  24.770  18.530  18.440
  833BOLB   GL219972  24.810  18.860  18.280
  833BOLB   C1A19973  24.920  18.540  18.880
  833BOLB   C2A19974  25.190  18.720  19.070
  833BOLB   C3A19975  25.500  18.750  19.340
  833BOLB   C4A19976  25.570  18.680  19.800
  833BOLB   C1B19977  25.100  19.200  18.430
  833BOLB   C2B19978  25.480  19.380  18.600
  833BOLB   C3B19979  25.820  19.590  18.870
  833BOLB   C4B19980  26.100  19.600  19.150
  833BOLB   NC219981  27.400  19.480  21.760
  833BOLB   PO219982  27.440  19.540  21.330
  833BOLB   GL319983  27.020  19.290  21.340
  833BOLB   GL419984  26.760  19.240  21.520
  833BOLB   C1C19985  26.690  19.230  21.040
  833BOLB   C2C19986  26.430  18.950  20.770
  833BOLB   C3C19987  26.180  18.930  20.410
  833BOLB   C4C19988  25.890  18.850  20.170
  833BOLB   C1D19989  26.380  19.030  21.390
  833BOLB   C2D19990  26.140  18.760  21.090
  833BOLB   C3D19991  26.000  18.520  20.780
  833BOLB   C4D19992  26.250  18.330  20.410
  834BOLB   NC119993  26.930  15.450  16.480
  834BOLB   PO119994  27.170  15.510  16.850
  834BOLB   GL119995  27.630  15.620  16.780
  834BOLB   GL219996  27.720  16.060  16.780
  834BOLB   C1A19997  28.050  15.740  16.960
  834BOLB   C2A19998  28.400  15.860  17.170
  834BOLB   C3A19999  28.840  15.750  17.500
  834BOLB   C4A20000  29.180  15.840  17.800
  834BOLB   C1B20001  28.080  16.200  16.770
  834BOLB   C2B20002  28.570  16.220  16.920
  834BOLB   C3B20003  29.010  16.420  17.010
  834BOLB   C4B20004  29.270  16.540  17.420
  834BOLB   NC220005  31.020  15.510  19.150
  834BOLB   PO220006  30.780  15.670  19.510
  834BOLB   GL320007  30.520  15.880  19.200
  834BOLB   GL420008  30.570  15.580  18.990
  834BOLB   C1C20009  30.200  16.000  18.900
  834BOLB   C2C20010  29.790  16.060  18.890
  834BOLB   C3C20011  29.520  15.920  18.590
  834BOLB   C4C20012  29.390  15.720  18.170
  834BOLB   C1D20013  30.370  15.690  18.580
  834BOLB   C2D20014  30.050  15.760  18.450
  834BOLB   C3D20015  29.890  15.530  18.200
  834BOLB   C4D20016  29.710  15.230  18.020
  835BOLB   NC120017  23.410  21.510  14.000
  835BOLB   PO120018  23.870  21.720  13.950
  835BOLB   GL120019  24.180  21.940  13.960
  835BOLB   GL220020  24.540  21.830  13.840
  835BOLB   C1A20021  24.510  22.310  14.050
  835BOLB   C2A20022  24.910  22.600  14.100
  835BOLB   C3A20023  25.280  22.430  14.150
  835BOLB   C4A20024  25.650  22.450  13.920
  835BOLB   C1B20025  24.960  21.980  13.940
  835BOLB   C2B20026  25.450  22.010  13.820
  835BOLB   C3B20027  25.930  22.120  13.630
  835BOLB   C4B20028  26.320  22.120  13.500
  835BOLB   NC220029  27.660  23.950  13.250
  835BOLB   PO220030  27.970  23.690  13.290
  835BOLB   GL320031  27.740  23.450  13.300
  835BOLB   GL420032  27.510  23.470  12.960
  835BOLB   C1C20033  27.260  23.300  13.360
  835BOLB   C2C20034  26.910  23.030  13.670
  835BOLB   C3C20035  26.470  22.720  13.700
  835BOLB   C4C20036  25.930  22.770  13.730
  835BOLB   C1D20037  27.710  23.040  12.930
  835BOLB   C2D20038  27.460  22.730  12.720
  835BOLB   C3D20039  27.040  22.550  12.710
  835BOLB   C4D20040  26.950  22.190  12.900
  836BOLB   NC120041  27.240  14.220  17.500
  836BOLB   PO120042  27.460  13.860  17.410
  836BOLB   GL120043  27.810  13.940  17.700
  836BOLB   GL220044  28.100  14.100  17.520
  836BOLB   C1A20045  28.130  13.960  18.030
  836BOLB   C2A20046  28.550  14.020  18.100
  836BOLB   C3A20047  28.840  14.240  18.180
  836BOLB   C4A20048  29.330  14.420  18.240
  836BOLB   C1B20049  28.350  14.430  17.750
  836BOLB   C2B20050  28.520  14.720  18.020
  836BOLB   C3B20051  28.850  14.890  18.270
  836BOLB   C4B20052  28.780  15.110  18.590
  836BOLB   NC220053  30.370  15.710  19.820
  836BOLB   PO220054  30.060  15.490  20.080
  836BOLB   GL320055  30.180  15.330  19.640
  836BOLB   GL420056  30.230  14.980  19.590
  836BOLB   C1C20057  30.180  15.400  19.150
  836BOLB   C2C20058  30.110  15.220  18.750
  836BOLB   C3C20059  29.870  14.980  18.400
  836BOLB   C4C20060  29.730  14.620  18.350
  836BOLB   C1D20061  30.030  14.880  19.140
  836BOLB   C2D20062  30.310  14.740  18.740
  836BOLB   C3D20063  30.300  14.670  18.270
  836BOLB   C4D20064  30.260  14.340  17.980
  837BOLB   NC120065  21.110  10.440   8.040
  837BOLB   PO120066  21.180  10.010   8.180
  837BOLB   GL120067  20.910   9.950   8.000
  837BOLB   GL220068  20.990  10.130   7.700
  837BOLB   C1A20069  20.730   9.730   7.740
  837BOLB   C2A20070  20.770   9.720   7.290
  837BOLB   C3A20071  20.950   9.660   6.950
  837BOLB   C4A20072  20.800   9.690   6.470
  837BOLB   C1B20073  20.960  10.220   7.350
  837BOLB   C2B20074  20.680  10.190   6.990
  837BOLB   C3B20075  20.810  10.220   6.580
  837BOLB   C4B20076  20.930  10.070   6.130
  837BOLB   NC220077  20.160   8.130   4.600
  837BOLB   PO220078  20.380   8.540   4.460
  837BOLB   GL320079  20.380   8.720   4.830
  837BOLB   GL420080  20.190   9.020   4.580
  837BOLB   C1C20081  20.480   8.810   5.200
  837BOLB   C2C20082  20.830   8.930   5.340
  837BOLB   C3C20083  20.840   9.220   5.680
  837BOLB   C4C20084  20.860   9.480   6.080
  837BOLB   C1D20085  20.060   9.310   4.880
  837BOLB   C2D20086  19.900   9.690   5.010
  837BOLB   C3D20087  19.690   9.790   5.410
  837BOLB   C4D20088  19.770  10.000   5.730
  838BOLB   NC120089  26.090  16.530  10.770
  838BOLB   PO120090  26.470  16.750  10.570
  838BOLB   GL120091  26.800  16.780  10.230
  838BOLB   GL220092  26.700  16.740   9.940
  838BOLB   C1A20093  27.220  16.980  10.220
  838BOLB   C2A20094  27.530  16.920  10.000
  838BOLB   C3A20095  27.950  16.970  10.010
  838BOLB   C4A20096  28.350  16.790   9.690
  838BOLB   C1B20097  27.070  16.750   9.670
  838BOLB   C2B20098  27.410  16.660   9.380
  838BOLB   C3B20099  27.550  16.370   9.050
  838BOLB   C4B20100  27.540  15.920   9.000
  838BOLB   NC220101  30.720  16.650   8.630
  838BOLB   PO220102  30.320  16.270   8.690
  838BOLB   GL320103  29.920  16.200   8.580
  838BOLB   GL420104  29.820  16.570   8.470
  838BOLB   C1C20105  29.510  16.240   8.710
  838BOLB   C2C20106  29.090  16.240   8.680
  838BOLB   C3C20107  28.800  16.510   8.950
  838BOLB   C4C20108  28.450  16.710   9.270
  838BOLB   C1D20109  29.360  16.540   8.280
  838BOLB   C2D20110  28.940  16.700   8.440
  838BOLB   C3D20111  28.520  16.740   8.610
  838BOLB   C4D20112  28.130  16.670   8.850
  839BOLB   NC120113  26.680  18.260  15.000
  839BOLB   PO120114  27.110  18.350  15.060
  839BOLB   GL120115  27.440  18.680  15.070
  839BOLB   GL220116  27.610  18.530  14.890
  839BOLB   C1A20117  27.360  19.090  15.230
  839BOLB   C2A20118  27.190  19.560  15.420
  839BOLB   C3A20119  27.180  19.930  15.490
  839BOLB   C4A20120  27.420  20.200  15.430
  839BOLB   C1B20121  27.830  18.890  14.860
  839BOLB   C2B20122  28.120  19.170  14.740
  839BOLB   C3B20123  28.590  19.170  14.660
  839BOLB   C4B20124  28.930  19.120  14.340
  839BOLB   NC220125  30.170  21.000  15.990
  839BOLB   PO220126  29.770  21.210  16.030
  839BOLB   GL320127  29.510  20.970  15.780
  839BOLB   GL420128  29.520  20.970  15.440
  839BOLB   C1C20129  29.100  20.920  15.820
  839BOLB   C2C20130  28.640  20.790  15.680
  839BOLB   C3C20131  28.220  20.670  15.530
  839BOLB   C4C20132  27.800  20.420  15.540
  839BOLB   C1D20133  29.500  21.070  15.070
  839BOLB   C2D20134  29.510  20.770  14.770
  839BOLB   C3D20135  29.540  20.390  14.580
  839BOLB   C4D20136  29.190  20.150  14.370
  840BOLB   NC120137  32.660  11.980  15.400
  840BOLB   PO120138  32.880  12.040  15.070
  840BOLB   GL120139  32.490  12.190  14.990
  840BOLB   GL220140  32.300  12.310  15.280
  840BOLB   C1A20141  32.050  12.410  14.830
  840BOLB   C2A20142  31.530  12.470  14.810
  840BOLB   C3A20143  31.120  12.570  14.880
  840BOLB   C4A20144  30.800  12.530  14.590
  840BOLB   C1B20145  32.040  11.950  15.300
  840BOLB   C2B20146  31.920  11.590  15.150
  840BOLB   C3B20147  31.920  11.490  14.750
  840BOLB   C4B20148  31.800  11.150  14.460
  840BOLB   NC220149  32.740  13.570  14.270
  840BOLB   PO220150  32.660  13.150  14.360
  840BOLB   GL320151  32.350  13.090  14.500
  840BOLB   GL420152  32.300  13.220  14.720
  840BOLB   C1C20153  31.930  12.930  14.670
  840BOLB   C2C20154  31.490  13.060  14.550
  840BOLB   C3C20155  31.110  13.110  14.360
  840BOLB   C4C20156  30.790  12.810  14.260
  840BOLB   C1D20157  32.000  13.370  14.890
  840BOLB   C2D20158  31.560  13.410  14.880
  840BOLB   C3D20159  31.210  13.040  14.980
  840BOLB   C4D20160  30.830  12.960  14.780
  841BOLB   NC120161  20.920  13.030  20.290
  841BOLB   PO120162  21.190  12.760  20.260
  841BOLB   GL120163  21.190  12.930  20.680
  841BOLB   GL220164  20.850  12.880  20.730
  841BOLB   C1A20165  21.460  12.840  20.960
  841BOLB   C2A20166  21.440  12.830  21.430
  841BOLB   C3A20167  21.400  12.900  21.880
  841BOLB   C4A20168  21.370  13.100  22.240
  841BOLB   C1B20169  21.000  12.930  21.160
  841BOLB   C2B20170  20.930  12.660  21.570
  841BOLB   C3B20171  20.970  12.560  22.070
  841BOLB   C4B20172  21.220  12.640  22.420
  841BOLB   NC220173  21.130  12.800  24.990
  841BOLB   PO220174  21.350  12.570  24.670
  841BOLB   GL320175  21.500  12.440  24.250
  841BOLB   GL420176  21.520  12.120  24.160
  841BOLB   C1C20177  21.430  12.610  23.770
  841BOLB   C2C20178  21.350  12.720  23.360
  841BOLB   C3C20179  21.620  12.970  23.050
  841BOLB   C4C20180  21.420  12.990  22.720
  841BOLB   C1D20181  21.640  11.990  23.850
  841BOLB   C2D20182  21.340  11.690  23.570
  841BOLB   C3D20183  21.090  11.480  23.350
  841BOLB   C4D20184  20.670  11.510  23.030
  842BOLB   NC120185  22.570  16.430  24.650
  842BOLB   PO120186  22.550  16.020  24.420
  842BOLB   GL120187  22.600  16.290  24.130
  842BOLB   GL220188  22.530  16.090  23.910
  842BOLB   C1A20189  22.830  16.570  23.810
  842BOLB   C2A20190  22.960  16.800  23.420
  842BOLB   C3A20191  23.030  16.560  22.990
  842BOLB   C4A20192  23.230  16.310  22.620
  842BOLB   C1B20193  22.450  15.990  23.500
  842BOLB   C2B20194  22.490  16.200  23.040
  842BOLB   C3B20195  22.640  16.380  22.660
  842BOLB   C4B20196  22.830  16.630  22.370
  842BOLB   NC220197  23.230  14.950  24.520
  842BOLB   PO220198  23.340  15.340  24.510
  842BOLB   GL320199  23.330  15.520  24.120
  842BOLB   GL420200  23.010  15.640  23.980
  842BOLB   C1C20201  23.340  15.340  23.690
  842BOLB   C2C20202  23.270  15.230  23.140
  842BOLB   C3C20203  23.240  15.550  22.800
  842BOLB   C4C20204  23.460  15.910  22.500
  842BOLB   C1D20205  22.880  15.700  23.560
  842BOLB   C2D20206  22.810  15.450  23.230
  842BOLB   C3D20207  22.870  15.260  22.820
  842BOLB   C4D20208  22.990  15.310  22.380
  843BOLB   NC120209  22.490  20.990  22.470
  843BOLB   PO120210  22.020  20.910  22.530
  843BOLB   GL120211  22.080  20.780  22.050
  843BOLB   GL220212  22.220  20.550  22.090
  843BOLB   C1A20213  22.080  20.720  21.650
  843BOLB   C2A20214  21.850  20.510  21.360
  843BOLB   C3A20215  21.760  20.120  21.160
  843BOLB   C4A20216  21.410  19.990  21.000
  843BOLB   C1B20217  22.370  20.180  21.880
  843BOLB   C2B20218  22.500  19.930  21.690
  843BOLB   C3B20219  22.800  19.580  21.570
  843BOLB   C4B20220  23.110  19.430  21.300
  843BOLB   NC220221  21.000  20.390  22.980
  843BOLB   PO220222  20.600  20.330  23.160
  843BOLB   GL320223  20.580  20.160  22.750
  843BOLB   GL420224  20.430  20.500  22.670
  843BOLB   C1C20225  20.660  20.100  22.320
  843BOLB   C2C20226  20.710  19.880  21.880
  843BOLB   C3C20227  20.850  19.630  21.500
  843BOLB   C4C20228  21.100  19.670  21.200
  843BOLB   C1D20229  20.480  20.550  22.170
  843BOLB   C2D20230  20.450  20.330  21.780
  843BOLB   C3D20231  20.410  20.380  21.350
  843BOLB   C4D20232  20.690  20.670  21.200
  844BOLB   NC120233  30.170   8.760   9.490
  844BOLB   PO120234  30.320   8.910   9.900
  844BOLB   GL120235  30.120   8.840  10.240
  844BOLB   GL220236  30.170   9.150  10.430
  844BOLB   C1A20237  29.620   8.950  10.390
  844BOLB   C2A20238  29.230   8.960  10.270
  844BOLB   C3A20239  28.750   8.790  10.330
  844BOLB   C4A20240  28.440   8.480  10.210
  844BOLB   C1B20241  30.020   9.300  10.770
  844BOLB   C2B20242  29.730   9.680  10.890
  844BOLB   C3B20243  29.450  10.020  10.910
  844BOLB   C4B20244  29.410  10.420  10.830
  844BOLB   NC220245  29.330   6.770   9.600
  844BOLB   PO220246  29.350   6.340   9.800
  844BOLB   GL320247  28.890   6.390   9.940
  844BOLB   GL420248  28.870   6.470  10.210
  844BOLB   C1C20249  28.620   6.820  10.060
  844BOLB   C2C20250  28.620   7.300  10.290
  844BOLB   C3C20251  28.620   7.710  10.470
  844BOLB   C4C20252  28.400   8.090  10.450
  844BOLB   C1D20253  28.640   6.640  10.550
  844BOLB   C2D20254  28.370   6.900  10.590
  844BOLB   C3D20255  28.230   7.310  10.530
  844BOLB   C4D20256  27.730   7.380  10.530
  845BOLB   NC120257  27.700   9.450  13.950
  845BOLB   PO120258  27.680   9.800  14.310
  845BOLB   GL120259  28.020   9.610  14.520
  845BOLB   GL220260  27.940   9.340  14.410
  845BOLB   C1A20261  28.400   9.500  14.690
  845BOLB   C2A20262  28.720   9.230  14.800
  845BOLB   C3A20263  29.040   8.920  15.030
  845BOLB   C4A20264  29.290   8.650  15.290
  845BOLB   C1B20265  28.290   9.040  14.540
  845BOLB   C2B20266  28.670   8.740  14.630
  845BOLB   C3B20267  28.940   8.500  14.740
  845BOLB   C4B20268  29.450   8.470  14.810
  845BOLB   NC220269  31.820   8.290  16.330
  845BOLB   PO220270  31.750   8.680  16.080
  845BOLB   GL320271  31.290   8.690  15.920
  845BOLB   GL420272  31.170   8.950  15.930
  845BOLB   C1C20273  31.020   8.530  15.630
  845BOLB   C2C20274  30.550   8.630  15.590
  845BOLB   C3C20275  30.120   8.700  15.450
  845BOLB   C4C20276  29.750   8.630  15.560
  845BOLB   C1D20277  30.860   9.190  16.080
  845BOLB   C2D20278  30.520   9.340  15.860
  845BOLB   C3D20279  30.200   9.610  15.760
  845BOLB   C4D20280  29.800   9.690  15.770
  846BOLB   NC120281  17.560  13.450  20.560
  846BOLB   PO120282  17.160  13.660  20.570
  846BOLB   GL120283  17.260  13.630  20.910
  846BOLB   GL220284  17.570  13.500  21.110
  846BOLB   C1A20285  17.160  13.570  21.380
  846BOLB   C2A20286  17.350  13.800  21.680
  846BOLB   C3A20287  17.480  13.850  22.140
  846BOLB   C4A20288  17.500  13.900  22.540
  846BOLB   C1B20289  17.720  13.450  21.460
  846BOLB   C2B20290  17.840  13.680  21.830
  846BOLB   C3B20291  18.290  13.720  21.920
  846BOLB   C4B20292  18.640  13.830  22.110
  846BOLB   NC220293  17.530  15.170  24.590
  846BOLB   PO220294  17.520  14.720  24.770
  846BOLB   GL320295  17.550  14.540  24.340
  846BOLB   GL420296  17.730  14.160  24.280
  846BOLB   C1C20297  17.460  14.580  24.020
  846BOLB   C2C20298  17.580  14.350  23.770
  846BOLB   C3C20299  17.690  14.390  23.230
  846BOLB   C4C20300  17.510  14.160  22.960
  846BOLB   C1D20301  17.660  13.880  23.910
  846BOLB   C2D20302  17.710  13.630  23.500
  846BOLB   C3D20303  17.580  13.700  23.090
  846BOLB   C4D20304  17.250  13.590  22.750
  847BOLB   NC120305  26.740  10.340  11.790
  847BOLB   PO120306  27.150  10.180  11.770
  847BOLB   GL120307  27.510   9.880  11.600
  847BOLB   GL220308  27.370   9.600  11.440
  847BOLB   C1A20309  27.900   9.590  11.440
  847BOLB   C2A20310  28.010   9.230  11.230
  847BOLB   C3A20311  28.270   8.840  11.200
  847BOLB   C4A20312  28.430   8.530  11.590
  847BOLB   C1B20313  27.420   9.630  11.120
  847BOLB   C2B20314  27.440   9.870  10.720
  847BOLB   C3B20315  27.880   9.980  10.510
  847BOLB   C4B20316  28.260   9.980  10.270
  847BOLB   NC220317  30.450   6.850  11.280
  847BOLB   PO220318  30.230   6.870  10.920
  847BOLB   GL320319  30.010   7.270  11.040
  847BOLB   GL420320  30.070   7.560  11.310
  847BOLB   C1C20321  29.620   7.280  11.330
  847BOLB   C2C20322  29.250   7.690  11.370
  847BOLB   C3C20323  29.070   8.100  11.570
  847BOLB   C4C20324  28.630   8.200  11.620
  847BOLB   C1D20325  29.760   7.760  11.200
  847BOLB   C2D20326  29.550   8.000  11.010
  847BOLB   C3D20327  29.140   8.170  11.120
  847BOLB   C4D20328  28.700   8.550  11.200
  848BOLB   NC120329  27.020   4.280  19.800
  848BOLB   PO120330  27.140   4.340  19.350
  848BOLB   GL120331  27.070   4.760  19.070
  848BOLB   GL220332  26.860   4.960  19.050
  848BOLB   C1A20333  27.370   4.860  18.790
  848BOLB   C2A20334  27.560   5.340  18.850
  848BOLB   C3A20335  27.280   5.660  18.640
  848BOLB   C4A20336  26.960   5.780  18.680
  848BOLB   C1B20337  26.550   4.780  19.110
  848BOLB   C2B20338  26.230   4.720  19.410
  848BOLB   C3B20339  25.860   4.770  19.560
  848BOLB   C4B20340  25.530   5.040  19.540
  848BOLB   NC220341  26.560   3.710  19.160
  848BOLB   PO220342  26.790   4.100  19.090
  848BOLB   GL320343  26.710   4.440  18.850
  848BOLB   GL420344  26.880   4.550  18.610
  848BOLB   C1C20345  26.480   4.840  18.660
  848BOLB   C2C20346  26.270   5.040  18.710
  848BOLB   C3C20347  26.260   5.540  18.890
  848BOLB   C4C20348  26.620   5.720  18.910
  848BOLB   C1D20349  26.500   4.630  18.250
  848BOLB   C2D20350  26.430   4.810  17.860
  848BOLB   C3D20351  26.090   4.960  17.500
  848BOLB   C4D20352  25.670   5.170  17.440
  849BOLB   NC120353  19.830  20.480  18.710
  849BOLB   PO120354  19.990  20.360  19.100
  849BOLB   GL120355  20.240  20.320  19.410
  849BOLB   GL220356  20.360  20.040  19.410
  849BOLB   C1A20357  20.360  20.680  19.730
  849BOLB   C2A20358  20.520  20.990  19.880
  849BOLB   C3A20359  20.440  21.290  20.040
  849BOLB   C4A20360  20.530  21.730  20.200
  849BOLB   C1B20361  20.450  20.080  19.780
  849BOLB   C2B20362  20.450  20.390  20.080
  849BOLB   C3B20363  20.500  20.770  20.340
  849BOLB   C4B20364  20.880  21.020  20.300
  849BOLB   NC220365  19.410  23.340  21.950
  849BOLB   PO220366  19.620  23.030  21.860
  849BOLB   GL320367  19.380  22.930  21.520
  849BOLB   GL420368  19.200  22.710  21.490
  849BOLB   C1C20369  19.560  22.810  21.070
  849BOLB   C2C20370  19.680  22.550  20.730
  849BOLB   C3C20371  19.950  22.270  20.450
  849BOLB   C4C20372  20.430  22.150  20.340
  849BOLB   C1D20373  19.100  22.680  20.980
  849BOLB   C2D20374  19.010  22.440  20.560
  849BOLB   C3D20375  19.280  22.290  20.240
  849BOLB   C4D20376  19.600  22.060  20.150
  850BOLB   NC120377  25.130  20.790  13.050
  850BOLB   PO120378  24.850  20.890  13.350
  850BOLB   GL120379  25.090  21.250  13.430
  850BOLB   GL220380  25.460  21.250  13.540
  850BOLB   C1A20381  25.160  21.670  13.480
  850BOLB   C2A20382  25.470  22.020  13.310
  850BOLB   C3A20383  25.580  22.490  13.300
  850BOLB   C4A20384  25.550  23.060  13.420
  850BOLB   C1B20385  25.660  21.590  13.390
  850BOLB   C2B20386  25.950  21.870  13.150
  850BOLB   C3B20387  26.070  22.280  13.090
  850BOLB   C4B20388  26.110  22.650  13.310
  850BOLB   NC220389  26.930  24.690  12.730
  850BOLB   PO220390  26.740  24.890  13.020
  850BOLB   GL320391  26.520  24.720  13.400
  850BOLB   GL420392  26.470  24.590  13.750
  850BOLB   C1C20393  26.300  24.360  13.350
  850BOLB   C2C20394  26.080  24.200  13.150
  850BOLB   C3C20395  25.770  23.880  13.260
  850BOLB   C4C20396  25.550  23.490  13.190
  850BOLB   C1D20397  26.230  24.230  14.030
  850BOLB   C2D20398  26.400  23.860  14.120
  850BOLB   C3D20399  26.210  23.410  13.960
  850BOLB   C4D20400  25.850  23.280  14.120
  851BOLB   NC120401  25.950  10.480  10.010
  851BOLB   PO120402  26.430  10.500  10.230
  851BOLB   GL120403  26.720  10.200  10.180
  851BOLB   GL220404  26.710  10.030   9.810
  851BOLB   C1A20405  27.140  10.140  10.080
  851BOLB   C2A20406  27.530   9.930  10.160
  851BOLB   C3A20407  27.950   9.700  10.030
  851BOLB   C4A20408  28.280   9.500   9.820
  851BOLB   C1B20409  27.090  10.030   9.570
  851BOLB   C2B20410  27.350   9.780   9.280
  851BOLB   C3B20411  27.600   9.340   9.180
  851BOLB   C4B20412  27.770   8.970   9.010
  851BOLB   NC220413  29.400   8.340   7.960
  851BOLB   PO220414  29.380   8.730   7.730
  851BOLB   GL320415  29.120   8.930   7.930
  851BOLB   GL420416  29.020   8.700   8.230
  851BOLB   C1C20417  29.050   9.270   8.220
  851BOLB   C2C20418  29.060   9.250   8.670
  851BOLB   C3C20419  28.990   9.350   9.070
  851BOLB   C4C20420  28.590   9.380   9.370
  851BOLB   C1D20421  28.720   8.940   8.450
  851BOLB   C2D20422  28.560   9.280   8.700
  851BOLB   C3D20423  28.280   9.440   8.980
  851BOLB   C4D20424  28.190   9.770   9.310
  852BOLB   NC120425  32.400  10.210  13.800
  852BOLB   PO120426  32.390   9.960  13.420
  852BOLB   GL120427  31.980  10.060  13.440
  852BOLB   GL220428  31.930  10.120  13.780
  852BOLB   C1A20429  31.510  10.130  13.450
  852BOLB   C2A20430  31.130  10.140  13.650
  852BOLB   C3A20431  30.670  10.060  13.530
  852BOLB   C4A20432  30.280  10.160  13.460
  852BOLB   C1B20433  31.500  10.100  14.070
  852BOLB   C2B20434  31.020  10.180  14.150
  852BOLB   C3B20435  30.680  10.250  13.970
  852BOLB   C4B20436  30.200  10.220  13.950
  852BOLB   NC220437  28.220  10.220  13.880
  852BOLB   PO220438  28.520  10.410  13.550
  852BOLB   GL320439  28.770  10.010  13.430
  852BOLB   GL420440  28.630   9.760  13.680
  852BOLB   C1C20441  29.030   9.790  13.080
  852BOLB   C2C20442  29.390   9.760  12.780
  852BOLB   C3C20443  29.840   9.780  12.770
  852BOLB   C4C20444  30.010   9.900  13.160
  852BOLB   C1D20445  29.070   9.540  13.470
  852BOLB   C2D20446  29.530   9.250  13.520
  852BOLB   C3D20447  29.650   8.950  13.310
  852BOLB   C4D20448  30.010   8.660  13.390
  853BOLB   NC120449  28.210  14.190  11.620
  853BOLB   PO120450  27.930  14.590  11.700
  853BOLB   GL120451  28.210  14.760  11.420
  853BOLB   GL220452  28.460  14.890  11.560
  853BOLB   C1A20453  28.560  14.560  11.180
  853BOLB   C2A20454  28.870  14.660  11.020
  853BOLB   C3A20455  29.300  14.520  10.780
  853BOLB   C4A20456  29.360  14.580  10.350
  853BOLB   C1B20457  28.860  15.030  11.340
  853BOLB   C2B20458  29.230  14.970  11.160
  853BOLB   C3B20459  29.580  15.290  10.990
  853BOLB   C4B20460  29.770  15.640  11.170
  853BOLB   NC220461  31.540  14.320   9.530
  853BOLB   PO220462  31.250  14.040   9.250
  853BOLB   GL320463  31.050  14.170   9.590
  853BOLB   GL420464  31.130  14.130   9.880
  853BOLB   C1C20465  30.680  14.340   9.580
  853BOLB   C2C20466  30.370  14.550   9.760
  853BOLB   C3C20467  29.980  14.570   9.820
  853BOLB   C4C20468  29.580  14.650   9.980
  853BOLB   C1D20469  30.800  14.180  10.180
  853BOLB   C2D20470  30.490  14.460  10.280
  853BOLB   C3D20471  30.040  14.580  10.350
  853BOLB   C4D20472  29.750  14.460  10.630
  854BOLB   NC120473  25.030  16.240  19.090
  854BOLB   PO120474  24.750  15.980  19.390
  854BOLB   GL120475  24.780  15.840  19.810
  854BOLB   GL220476  24.490  15.750  19.900
  854BOLB   C1A20477  24.940  15.700  20.220
  854BOLB   C2A20478  25.000  15.460  20.620
  854BOLB   C3A20479  24.970  15.340  21.040
  854BOLB   C4A20480  24.810  15.500  21.430
  854BOLB   C1B20481  24.480  15.890  20.240
  854BOLB   C2B20482  24.770  15.970  20.560
  854BOLB   C3B20483  24.870  16.270  20.850
  854BOLB   C4B20484  24.810  16.320  21.330
  854BOLB   NC220485  26.370  14.970  23.570
  854BOLB   PO220486  26.020  15.290  23.710
  854BOLB   GL320487  25.750  15.440  23.370
  854BOLB   GL420488  25.800  15.690  23.230
  854BOLB   C1C20489  25.410  15.280  23.030
  854BOLB   C2C20490  25.110  15.460  22.620
  854BOLB   C3C20491  24.950  15.410  22.310
  854BOLB   C4C20492  24.870  15.430  21.910
  854BOLB   C1D20493  25.570  15.720  22.780
  854BOLB   C2D20494  25.420  15.760  22.310
  854BOLB   C3D20495  25.410  15.660  21.850
  854BOLB   C4D20496  25.280  15.380  21.520
  855BOLB   NC120497  18.530  10.630  20.580
  855BOLB   PO120498  18.150  10.750  20.670
  855BOLB   GL120499  17.770  10.550  20.970
  855BOLB   GL220500  17.660  10.270  20.820
  855BOLB   C1A20501  17.730  10.340  21.400
  855BOLB   C2A20502  17.750  10.000  21.830
  855BOLB   C3A20503  17.760   9.830  22.230
  855BOLB   C4A20504  17.900  10.100  22.520
  855BOLB   C1B20505  17.580  10.010  21.110
  855BOLB   C2B20506  17.630   9.670  21.510
  855BOLB   C3B20507  17.780   9.520  21.790
  855BOLB   C4B20508  17.720   9.240  22.150
  855BOLB   NC220509  17.950   9.490  24.760
  855BOLB   PO220510  17.570   9.440  24.560
  855BOLB   GL320511  17.960   9.440  24.270
  855BOLB   GL420512  18.050   9.210  24.220
  855BOLB   C1C20513  18.060   9.710  23.980
  855BOLB   C2C20514  18.070  10.060  23.680
  855BOLB   C3C20515  18.010  10.260  23.320
  855BOLB   C4C20516  17.880  10.380  22.920
  855BOLB   C1D20517  18.140   9.230  23.850
  855BOLB   C2D20518  18.120   9.020  23.520
  855BOLB   C3D20519  18.390   8.930  23.190
  855BOLB   C4D20520  18.440   8.940  22.700
  856BOLB   NC120521  25.750  19.900  14.960
  856BOLB   PO120522  26.040  19.930  14.530
  856BOLB   GL120523  26.440  20.080  14.790
  856BOLB   GL220524  26.730  19.880  14.710
  856BOLB   C1A20525  26.540  20.450  14.930
  856BOLB   C2A20526  26.730  20.790  14.930
  856BOLB   C3A20527  26.800  21.200  15.060
  856BOLB   C4A20528  26.980  21.590  15.270
  856BOLB   C1B20529  26.970  20.040  14.400
  856BOLB   C2B20530  27.390  20.070  14.610
  856BOLB   C3B20531  27.660  20.230  14.940
  856BOLB   C4B20532  28.100  20.350  15.090
  856BOLB   NC220533  27.160  24.130  16.290
  856BOLB   PO220534  27.290  23.680  16.560
  856BOLB   GL320535  27.040  23.320  16.550
  856BOLB   GL420536  26.820  23.480  16.710
  856BOLB   C1C20537  27.020  22.900  16.380
  856BOLB   C2C20538  27.210  22.580  16.260
  856BOLB   C3C20539  26.980  22.200  15.980
  856BOLB   C4C20540  26.890  21.950  15.560
  856BOLB   C1D20541  26.580  23.160  16.770
  856BOLB   C2D20542  26.400  22.880  16.410
  856BOLB   C3D20543  26.150  22.600  16.370
  856BOLB   C4D20544  25.920  22.300  16.320
  857BOLB   NC120545  27.140  14.750  10.520
  857BOLB   PO120546  26.810  14.500  10.370
  857BOLB   GL120547  27.020  14.530  10.070
  857BOLB   GL220548  26.800  14.470   9.740
  857BOLB   C1A20549  27.340  14.700   9.830
  857BOLB   C2A20550  27.670  14.690   9.480
  857BOLB   C3A20551  28.120  14.710   9.200
  857BOLB   C4A20552  28.520  14.830   8.880
  857BOLB   C1B20553  27.110  14.480   9.450
  857BOLB   C2B20554  27.370  14.640   9.120
  857BOLB   C3B20555  27.760  14.800   8.860
  857BOLB   C4B20556  28.090  14.910   8.600
  857BOLB   NC220557  30.390  14.960   7.610
  857BOLB   PO220558  30.600  15.350   7.670
  857BOLB   GL320559  30.240  15.240   8.030
  857BOLB   GL420560  30.010  15.020   7.950
  857BOLB   C1C20561  30.130  15.290   8.400
  857BOLB   C2C20562  29.710  15.430   8.660
  857BOLB   C3C20563  29.360  15.180   8.690
  857BOLB   C4C20564  28.920  15.030   8.830
  857BOLB   C1D20565  29.690  15.230   8.110
  857BOLB   C2D20566  29.220  15.350   8.250
  857BOLB   C3D20567  28.880  15.360   8.450
  857BOLB   C4D20568  28.570  15.410   8.780
  858BOLB   NC120569  28.680  14.940  13.320
  858BOLB   PO120570  28.510  14.720  12.960
  858BOLB   GL120571  28.860  14.980  12.750
  858BOLB   GL220572  29.040  15.150  13.050
  858BOLB   C1A20573  29.250  15.020  12.610
  858BOLB   C2A20574  29.610  14.660  12.840
  858BOLB   C3A20575  29.910  14.420  12.640
  858BOLB   C4A20576  30.080  14.200  12.210
  858BOLB   C1B20577  29.310  14.910  13.260
  858BOLB   C2B20578  29.720  14.810  13.310
  858BOLB   C3B20579  30.050  14.750  13.300
  858BOLB   C4B20580  30.410  14.730  12.960
  858BOLB   NC220581  31.430  15.570  10.000
  858BOLB   PO220582  31.300  15.580  10.380
  858BOLB   GL320583  31.040  15.440  10.630
  858BOLB   GL420584  31.080  15.680  10.840
  858BOLB   C1C20585  30.590  15.320  10.950
  858BOLB   C2C20586  30.380  15.040  11.320
  858BOLB   C3C20587  30.260  14.890  11.720
  858BOLB   C4C20588  30.190  14.460  11.900
  858BOLB   C1D20589  30.740  15.990  10.880
  858BOLB   C2D20590  30.360  16.270  10.740
  858BOLB   C3D20591  30.000  16.670  10.730
  858BOLB   C4D20592  29.760  16.810  11.070
  859BOLB   NC120593  25.640   3.010  18.360
  859BOLB   PO120594  25.370   3.020  18.650
  859BOLB   GL120595  25.350   3.460  18.600
  859BOLB   GL220596  25.080   3.500  18.420
  859BOLB   C1A20597  25.340   3.900  18.630
  859BOLB   C2A20598  25.200   4.180  18.400
  859BOLB   C3A20599  24.920   4.270  18.170
  859BOLB   C4A20600  25.100   4.350  17.720
  859BOLB   C1B20601  24.810   3.680  18.420
  859BOLB   C2B20602  24.370   3.920  18.530
  859BOLB   C3B20603  23.940   3.890  18.410
  859BOLB   C4B20604  23.570   3.970  18.160
  859BOLB   NC220605  27.150   3.160  17.950
  859BOLB   PO220606  27.150   3.150  17.470
  859BOLB   GL320607  26.960   3.490  17.480
  859BOLB   GL420608  26.990   3.750  17.520
  859BOLB   C1C20609  26.600   3.680  17.170
  859BOLB   C2C20610  26.180   3.850  17.270
  859BOLB   C3C20611  25.910   4.010  17.650
  859BOLB   C4C20612  25.550   4.230  17.640
  859BOLB   C1D20613  27.040   4.120  17.270
  859BOLB   C2D20614  26.870   4.240  16.900
  859BOLB   C3D20615  26.840   4.690  16.820
  859BOLB   C4D20616  26.790   4.940  16.480
  860BOLB   NC120617  32.200   9.670  15.420
  860BOLB   PO120618  32.310  10.170  15.320
  860BOLB   GL120619  31.840  10.120  15.330
  860BOLB   GL220620  31.810   9.880  15.660
  860BOLB   C1A20621  31.450  10.290  15.220
  860BOLB   C2A20622  31.040  10.420  15.080
  860BOLB   C3A20623  30.710  10.670  14.940
  860BOLB   C4A20624  30.510  11.030  15.190
  860BOLB   C1B20625  31.350   9.940  15.650
  860BOLB   C2B20626  30.990  10.090  15.450
  860BOLB   C3B20627  30.720  10.410  15.540
  860BOLB   C4B20628  30.400  10.610  15.510
  860BOLB   NC220629  32.580  10.300  15.830
  860BOLB   PO220630  32.670  10.780  15.790
  860BOLB   GL320631  32.350  10.900  15.580
  860BOLB   GL420632  32.150  10.650  15.660
  860BOLB   C1C20633  32.010  11.130  15.460
  860BOLB   C2C20634  31.610  11.330  15.460
  860BOLB   C3C20635  31.220  11.430  15.540
  860BOLB   C4C20636  30.810  11.380  15.430
  860BOLB   C1D20637  31.770  10.940  15.800
  860BOLB   C2D20638  31.580  11.210  16.080
  860BOLB   C3D20639  31.430  11.640  15.970
  860BOLB   C4D20640  31.370  12.060  16.060
  861BOLB   NC120641  20.100   9.320  24.300
  861BOLB   PO120642  20.230   8.920  24.250
  861BOLB   GL120643  20.270   8.950  23.790
  861BOLB   GL220644  20.600   8.870  23.760
  861BOLB   C1A20645  20.470   9.070  23.330
  861BOLB   C2A20646  20.400   9.100  22.950
  861BOLB   C3A20647  20.250   9.000  22.530
  861BOLB   C4A20648  20.420   8.580  22.400
  861BOLB   C1B20649  20.710   9.340  23.710
  861BOLB   C2B20650  20.690   9.480  23.270
  861BOLB   C3B20651  20.280   9.550  23.010
  861BOLB   C4B20652  20.040   9.770  22.710
  861BOLB   NC220653  21.930   6.580  23.810
  861BOLB   PO220654  21.650   7.000  23.790
  861BOLB   GL320655  21.370   7.010  23.430
  861BOLB   GL420656  21.420   6.780  23.260
  861BOLB   C1C20657  21.250   7.130  22.900
  861BOLB   C2C20658  21.250   7.600  22.840
  861BOLB   C3C20659  20.870   7.910  22.690
  861BOLB   C4C20660  20.720   8.220  22.380
  861BOLB   C1D20661  21.370   6.660  22.800
  861BOLB   C2D20662  21.360   6.700  22.360
  861BOLB   C3D20663  21.070   6.730  22.080
  861BOLB   C4D20664  20.920   7.040  21.700
  862BOLB   NC120665  26.240  11.630   9.580
  862BOLB   PO120666  25.940  11.240   9.320
  862BOLB   GL120667  26.280  11.240   9.120
  862BOLB   GL220668  26.580  11.370   9.270
  862BOLB   C1A20669  26.480  10.980   8.830
  862BOLB   C2A20670  26.570  10.830   8.360
  862BOLB   C3A20671  26.640  10.620   7.960
  862BOLB   C4A20672  26.560  10.840   7.460
  862BOLB   C1B20673  26.960  11.390   9.080
  862BOLB   C2B20674  27.410  11.170   9.030
  862BOLB   C3B20675  27.890  11.110   9.110
  862BOLB   C4B20676  28.170  10.890   9.400
  862BOLB   NC220677  27.700  10.850   5.290
  862BOLB   PO220678  28.010  10.960   5.560
  862BOLB   GL320679  27.910  11.170   5.820
  862BOLB   GL420680  27.560  11.120   5.760
  862BOLB   C1C20681  27.600  11.220   6.240
  862BOLB   C2C20682  27.290  11.010   6.480
  862BOLB   C3C20683  26.910  10.990   6.700
  862BOLB   C4C20684  26.840  10.950   7.120
  862BOLB   C1D20685  27.070  11.070   5.900
  862BOLB   C2D20686  26.680  10.690   5.880
  862BOLB   C3D20687  26.550  10.380   6.170
  862BOLB   C4D20688  26.650  10.120   6.510
  863BOLB   NC120689  31.820   8.880  11.300
  863BOLB   PO120690  31.550   8.800  11.590
  863BOLB   GL120691  31.290   8.960  11.950
  863BOLB   GL220692  31.210   8.850  12.220
  863BOLB   C1A20693  30.880   9.210  11.950
  863BOLB   C2A20694  30.410   9.480  11.760
  863BOLB   C3A20695  30.330   9.800  11.520
  863BOLB   C4A20696  30.320  10.250  11.350
  863BOLB   C1B20697  30.750   8.760  12.150
  863BOLB   C2B20698  30.470   8.880  11.800
  863BOLB   C3B20699  30.130   8.800  11.690
  863BOLB   C4B20700  29.920   8.480  11.800
  863BOLB   NC220701  32.380  11.720  10.420
  863BOLB   PO220702  32.190  11.380  10.760
  863BOLB   GL320703  31.860  11.130  10.900
  863BOLB   GL420704  31.910  10.910  11.130
  863BOLB   C1C20705  31.250  11.200  10.830
  863BOLB   C2C20706  30.800  11.120  10.930
  863BOLB   C3C20707  30.500  11.020  11.080
  863BOLB   C4C20708  30.230  10.720  11.350
  863BOLB   C1D20709  31.580  11.120  11.350
  863BOLB   C2D20710  31.490  11.480  11.620
  863BOLB   C3D20711  31.410  11.890  11.830
  863BOLB   C4D20712  31.080  12.220  11.600
  864BOLB   NC120713  30.680  10.770  20.450
  864BOLB   PO120714  30.520  10.710  20.060
  864BOLB   GL120715  30.070  10.760  20.080
  864BOLB   GL220716  30.030  10.450  19.840
  864BOLB   C1A20717  29.820  10.940  19.750
  864BOLB   C2A20718  29.480  11.080  19.450
  864BOLB   C3A20719  29.660  11.330  19.050
  864BOLB   C4A20720  29.800  11.720  18.780
  864BOLB   C1B20721  29.730  10.470  19.450
  864BOLB   C2B20722  29.590  10.260  19.110
  864BOLB   C3B20723  29.650  10.320  18.780
  864BOLB   C4B20724  29.280  10.340  18.470
  864BOLB   NC220725  31.400  12.580  18.730
  864BOLB   PO220726  31.330  12.440  19.310
  864BOLB   GL320727  30.970  12.600  19.060
  864BOLB   GL420728  30.800  12.910  18.980
  864BOLB   C1C20729  30.840  12.450  18.630
  864BOLB   C2C20730  30.470  12.430  18.470
  864BOLB   C3C20731  30.110  12.430  18.560
  864BOLB   C4C20732  29.880  12.110  18.570
  864BOLB   C1D20733  30.500  13.000  19.170
  864BOLB   C2D20734  29.990  13.010  19.380
  864BOLB   C3D20735  29.540  13.080  19.360
  864BOLB   C4D20736  29.130  13.220  19.250
  865BOLB   NC120737  20.020  22.800  16.740
  865BOLB   PO120738  20.290  22.520  17.000
  865BOLB   GL120739  20.280  22.910  17.160
  865BOLB   GL220740  19.970  22.990  17.200
  865BOLB   C1A20741  20.260  23.170  17.590
  865BOLB   C2A20742  20.200  23.590  17.790
  865BOLB   C3A20743  20.450  23.810  18.090
  865BOLB   C4A20744  20.810  24.030  18.360
  865BOLB   C1B20745  19.910  23.420  17.220
  865BOLB   C2B20746  19.830  23.800  17.330
  865BOLB   C3B20747  19.820  24.140  17.550
  865BOLB   C4B20748  20.020  24.480  17.580
  865BOLB   NC220749  21.560  24.440  20.400
  865BOLB   PO220750  21.250  24.870  20.210
  865BOLB   GL320751  21.500  24.810  19.810
  865BOLB   GL420752  21.720  25.000  19.640
  865BOLB   C1C20753  21.460  24.580  19.540
  865BOLB   C2C20754  21.190  24.540  19.180
  865BOLB   C3C20755  21.010  24.460  18.840
  865BOLB   C4C20756  20.760  24.150  18.720
  865BOLB   C1D20757  22.090  25.080  19.330
  865BOLB   C2D20758  22.080  24.930  18.880
  865BOLB   C3D20759  22.020  24.650  18.540
  865BOLB   C4D20760  21.830  24.340  18.460
  866BOLB   NC120761  20.010  10.550  24.740
  866BOLB   PO120762  20.330  10.800  24.760
  866BOLB   GL120763  20.180  10.950  24.410
  866BOLB   GL220764  20.360  10.830  24.260
  866BOLB   C1A20765  19.720  11.000  24.140
  866BOLB   C2A20766  19.520  11.410  24.000
  866BOLB   C3A20767  19.290  11.550  23.660
  866BOLB   C4A20768  19.060  11.950  23.670
  866BOLB   C1B20769  20.370  11.020  23.840
  866BOLB   C2B20770  20.040  11.260  23.610
  866BOLB   C3B20771  19.730  11.290  23.290
  866BOLB   C4B20772  19.620  11.440  22.910
  866BOLB   NC220773  19.600  13.230  24.680
  866BOLB   PO220774  19.430  13.580  24.700
  866BOLB   GL320775  19.400  13.520  24.290
  866BOLB   GL420776  19.070  13.770  24.220
  866BOLB   C1C20777  19.600  13.350  23.900
  866BOLB   C2C20778  19.310  13.000  23.810
  866BOLB   C3C20779  19.040  12.760  24.070
  866BOLB   C4C20780  18.970  12.280  23.970
  866BOLB   C1D20781  18.970  13.530  23.940
  866BOLB   C2D20782  18.840  13.470  23.460
  866BOLB   C3D20783  18.590  13.250  23.230
  866BOLB   C4D20784  18.680  13.100  22.810
  867BOLB   NC120785  15.500   6.610   6.160
  867BOLB   PO120786  15.960   6.500   6.250
  867BOLB   GL120787  16.160   6.730   6.400
  867BOLB   GL220788  16.350   6.650   6.550
  867BOLB   C1A20789  16.260   7.130   6.550
  867BOLB   C2A20790  16.350   7.480   6.710
  867BOLB   C3A20791  16.550   7.910   6.710
  867BOLB   C4A20792  16.480   8.290   6.930
  867BOLB   C1B20793  16.530   6.840   6.880
  867BOLB   C2B20794  16.580   7.100   7.280
  867BOLB   C3B20795  16.820   7.190   7.720
  867BOLB   C4B20796  17.310   7.240   7.810
  867BOLB   NC220797  17.040   8.010   4.710
  867BOLB   PO220798  16.700   8.300   4.900
  867BOLB   GL320799  16.730   8.540   5.330
  867BOLB   GL420800  16.480   8.590   5.620
  867BOLB   C1C20801  16.920   8.850   5.680
  867BOLB   C2C20802  16.840   8.890   6.090
  867BOLB   C3C20803  16.840   8.820   6.460
  867BOLB   C4C20804  16.440   8.640   6.610
  867BOLB   C1D20805  16.430   8.520   6.020
  867BOLB   C2D20806  16.330   8.230   6.280
  867BOLB   C3D20807  16.060   8.410   6.410
  867BOLB   C4D20808  15.650   8.500   6.410
  868BOLB   NC120809  22.360  11.160   7.890
  868BOLB   PO120810  22.560  11.540   7.890
  868BOLB   GL120811  22.790  11.540   7.460
  868BOLB   GL220812  23.090  11.800   7.390
  868BOLB   C1A20813  22.730  11.510   7.000
  868BOLB   C2A20814  22.800  11.450   6.630
  868BOLB   C3A20815  22.980  11.580   6.290
  868BOLB   C4A20816  23.350  11.710   6.110
  868BOLB   C1B20817  23.260  11.640   7.090
  868BOLB   C2B20818  23.410  11.780   6.720
  868BOLB   C3B20819  23.640  11.980   6.410
  868BOLB   C4B20820  23.640  12.120   6.090
  868BOLB   NC220821  23.630  10.700   3.510
  868BOLB   PO220822  23.860  11.090   3.680
  868BOLB   GL320823  23.640  11.200   4.150
  868BOLB   GL420824  23.350  11.160   4.230
  868BOLB   C1C20825  23.720  11.490   4.560
  868BOLB   C2C20826  23.540  11.570   4.950
  868BOLB   C3C20827  23.360  11.720   5.270
  868BOLB   C4C20828  23.370  11.750   5.660
  868BOLB   C1D20829  23.250  11.600   4.460
  868BOLB   C2D20830  23.510  11.900   4.620
  868BOLB   C3D20831  23.870  12.070   4.860
  868BOLB   C4D20832  24.000  12.420   5.080
  869BOLB   NC120833  23.910  19.280  18.140
  869BOLB   PO120834  23.490  19.390  18.360
  869BOLB   GL120835  23.840  19.610  18.530
  869BOLB   GL220836  24.130  19.310  18.590
  869BOLB   C1A20837  23.770  20.050  18.710
  869BOLB   C2A20838  23.880  20.330  19.020
  869BOLB   C3A20839  23.860  20.800  19.210
  869BOLB   C4A20840  24.100  21.100  19.580
  869BOLB   C1B20841  24.350  19.480  18.920
  869BOLB   C2B20842  24.470  19.580  19.300
  869BOLB   C3B20843  24.510  19.890  19.600
  869BOLB   C4B20844  24.400  20.200  19.850
  869BOLB   NC220845  25.320  21.910  21.490
  869BOLB   PO220846  24.900  22.110  21.630
  869BOLB   GL320847  24.590  21.920  21.300
  869BOLB   GL420848  24.450  21.700  21.490
  869BOLB   C1C20849  24.600  21.890  20.870
  869BOLB   C2C20850  24.460  21.670  20.490
  869BOLB   C3C20851  24.090  21.690  20.200
  869BOLB   C4C20852  23.980  21.320  19.930
  869BOLB   C1D20853  24.310  21.580  21.120
  869BOLB   C2D20854  24.000  21.440  20.800
  869BOLB   C3D20855  24.150  21.270  20.420
  869BOLB   C4D20856  23.990  20.840  20.190
  870BOLB   NC120857  23.520  25.360   7.400
  870BOLB   PO120858  23.210  25.530   7.250
  870BOLB   GL120859  22.990  25.190   7.410
  870BOLB   GL220860  23.320  24.940   7.380
  870BOLB   C1A20861  22.860  24.790   7.570
  870BOLB   C2A20862  22.650  24.460   7.770
  870BOLB   C3A20863  22.550  24.260   8.250
  870BOLB   C4A20864  22.660  24.130   8.630
  870BOLB   C1B20865  23.140  25.030   7.880
  870BOLB   C2B20866  23.040  24.680   8.120
  870BOLB   C3B20867  22.790  24.690   8.400
  870BOLB   C4B20868  23.010  24.500   8.700
  870BOLB   NC220869  24.480  24.290   7.950
  870BOLB   PO220870  24.500  24.730   7.930
  870BOLB   GL320871  24.190  24.470   8.270
  870BOLB   GL420872  24.270  24.190   8.500
  870BOLB   C1C20873  23.890  24.570   8.520
  870BOLB   C2C20874  23.610  24.510   8.790
  870BOLB   C3C20875  23.330  24.320   9.010
  870BOLB   C4C20876  22.930  23.990   8.910
  870BOLB   C1D20877  24.080  24.140   8.800
  870BOLB   C2D20878  23.720  24.010   9.100
  870BOLB   C3D20879  23.550  24.020   9.500
  870BOLB   C4D20880  23.350  24.030   9.870
  871BOLB   NC120881  27.180  20.430   6.390
  871BOLB   PO120882  27.270  20.360   6.020
  871BOLB   GL120883  27.030  20.020   6.120
  871BOLB   GL220884  26.960  19.760   6.000
  871BOLB   C1A20885  26.820  19.870   6.550
  871BOLB   C2A20886  26.650  19.790   6.930
  871BOLB   C3A20887  26.400  19.440   7.000
  871BOLB   C4A20888  26.210  19.220   7.310
  871BOLB   C1B20889  26.830  19.500   6.190
  871BOLB   C2B20890  26.770  19.360   6.640
  871BOLB   C3B20891  27.040  19.040   6.780
  871BOLB   C4B20892  26.980  18.710   6.940
  871BOLB   NC220893  28.000  20.730   6.260
  871BOLB   PO220894  27.670  20.480   6.630
  871BOLB   GL320895  27.620  20.330   7.190
  871BOLB   GL420896  27.730  19.960   7.210
  871BOLB   C1C20897  27.290  20.120   7.490
  871BOLB   C2C20898  26.870  19.980   7.720
  871BOLB   C3C20899  26.550  19.770   7.900
  871BOLB   C4C20900  26.280  19.470   7.770
  871BOLB   C1D20901  27.610  19.740   6.970
  871BOLB   C2D20902  27.460  19.270   6.980
  871BOLB   C3D20903  27.520  18.840   6.960
  871BOLB   C4D20904  27.730  18.540   6.800
  872BOLB   NC120905  32.740  15.290  15.490
  872BOLB   PO120906  32.630  14.870  15.140
  872BOLB   GL120907  32.350  14.970  15.450
  872BOLB   GL220908  32.140  14.860  15.280
  872BOLB   C1A20909  32.080  15.340  15.250
  872BOLB   C2A20910  31.670  15.290  15.250
  872BOLB   C3A20911  31.370  15.040  15.050
  872BOLB   C4A20912  30.990  15.150  14.950
  872BOLB   C1B20913  31.910  14.960  14.970
  872BOLB   C2B20914  31.800  14.950  14.510
  872BOLB   C3B20915  31.740  14.990  14.160
  872BOLB   C4B20916  31.720  15.160  13.660
  872BOLB   NC220917  32.640  15.710  13.220
  872BOLB   PO220918  32.400  15.630  13.630
  872BOLB   GL320919  32.030  15.750  13.610
  872BOLB   GL420920  31.930  16.020  13.860
  872BOLB   C1C20921  31.740  15.670  13.670
  872BOLB   C2C20922  31.350  15.600  13.810
  872BOLB   C3C20923  31.090  15.340  14.110
  872BOLB   C4C20924  30.910  15.130  14.480
  872BOLB   C1D20925  31.490  16.100  14.020
  872BOLB   C2D20926  31.110  15.980  14.250
  872BOLB   C3D20927  30.760  15.690  14.210
  872BOLB   C4D20928  30.560  15.240  14.080
  873BOLB   NC120929  22.110  10.320  20.470
  873BOLB   PO120930  22.190  10.740  20.590
  873BOLB   GL120931  22.300  10.580  20.990
  873BOLB   GL220932  22.470  10.350  20.810
  873BOLB   C1A20933  22.420  10.420  21.370
  873BOLB   C2A20934  22.760  10.190  21.620
  873BOLB   C3A20935  22.890  10.250  22.080
  873BOLB   C4A20936  22.940  10.090  22.410
  873BOLB   C1B20937  22.780  10.170  21.070
  873BOLB   C2B20938  22.840   9.790  21.360
  873BOLB   C3B20939  22.630   9.760  21.760
  873BOLB   C4B20940  22.470   9.920  22.240
  873BOLB   NC220941  22.780   8.830  24.370
  873BOLB   PO220942  22.800   8.310  24.210
  873BOLB   GL320943  22.900   8.590  23.880
  873BOLB   GL420944  22.700   8.870  23.840
  873BOLB   C1C20945  23.000   8.930  23.490
  873BOLB   C2C20946  22.810   9.260  23.210
  873BOLB   C3C20947  22.800   9.700  23.040
  873BOLB   C4C20948  23.010   9.900  22.700
  873BOLB   C1D20949  22.720   9.210  23.730
  873BOLB   C2D20950  22.780   9.660  23.680
  873BOLB   C3D20951  22.830  10.050  23.450
  873BOLB   C4D20952  22.790  10.440  23.510
  874BOLB   NC120953  24.960  17.090  18.680
  874BOLB   PO120954  24.850  17.540  18.630
  874BOLB   GL120955  24.960  17.900  18.880
  874BOLB   GL220956  24.670  17.960  19.030
  874BOLB   C1A20957  25.260  18.230  18.930
  874BOLB   C2A20958  25.420  18.190  19.340
  874BOLB   C3A20959  25.520  18.180  19.770
  874BOLB   C4A20960  25.510  18.290  20.220
  874BOLB   C1B20961  24.960  18.150  19.340
  874BOLB   C2B20962  25.100  18.490  19.640
  874BOLB   C3B20963  25.130  18.580  20.000
  874BOLB   C4B20964  25.400  18.960  20.170
  874BOLB   NC220965  26.830  19.750  21.480
  874BOLB   PO220966  26.580  19.550  21.840
  874BOLB   GL320967  26.350  19.550  21.420
  874BOLB   GL420968  26.140  19.860  21.270
  874BOLB   C1C20969  26.160  19.370  21.060
  874BOLB   C2C20970  25.890  19.090  20.850
  874BOLB   C3C20971  25.730  18.880  20.610
  874BOLB   C4C20972  25.580  18.520  20.460
  874BOLB   C1D20973  25.740  19.660  21.180
  874BOLB   C2D20974  25.450  19.420  20.870
  874BOLB   C3D20975  25.200  19.070  20.680
  874BOLB   C4D20976  24.990  18.920  20.390
  875BOLB   NC120977  18.010  22.870  15.980
  875BOLB   PO120978  18.120  22.770  16.340
  875BOLB   GL120979  17.990  23.110  16.510
  875BOLB   GL220980  18.090  23.400  16.220
  875BOLB   C1A20981  17.960  23.380  16.880
  875BOLB   C2A20982  17.960  23.570  17.250
  875BOLB   C3A20983  18.010  23.800  17.550
  875BOLB   C4A20984  17.830  24.070  17.730
  875BOLB   C1B20985  18.310  23.680  16.090
  875BOLB   C2B20986  18.550  23.970  16.410
  875BOLB   C3B20987  18.550  24.370  16.570
  875BOLB   C4B20988  18.710  24.790  16.430
  875BOLB   NC220989  17.470  26.450  18.330
  875BOLB   PO220990  17.360  26.020  18.580
  875BOLB   GL320991  17.600  25.620  18.410
  875BOLB   GL420992  17.300  25.470  18.500
  875BOLB   C1C20993  17.670  25.140  18.190
  875BOLB   C2C20994  17.330  24.780  18.060
  875BOLB   C3C20995  17.260  24.470  17.910
  875BOLB   C4C20996  17.420  24.190  17.660
  875BOLB   C1D20997  17.390  25.440  17.960
  875BOLB   C2D20998  17.640  25.160  17.730
  875BOLB   C3D20999  17.920  24.920  17.470
  875BOLB   C4D21000  18.170  25.110  17.190
  876BOLB   NC121001  32.830  15.120  14.640
  876BOLB   PO121002  32.610  14.960  14.340
  876BOLB   GL121003  32.190  14.750  14.340
  876BOLB   GL221004  32.230  14.350  14.400
  876BOLB   C1A21005  31.770  14.520  14.200
  876BOLB   C2A21006  31.480  14.190  14.300
  876BOLB   C3A21007  31.480  13.950  14.700
  876BOLB   C4A21008  31.310  13.790  15.100
  876BOLB   C1B21009  32.030  14.000  14.460
  876BOLB   C2B21010  31.900  13.970  14.940
  876BOLB   C3B21011  31.710  13.960  15.320
  876BOLB   C4B21012  31.420  13.910  15.600
  876BOLB   NC221013  32.390  14.060  16.930
  876BOLB   PO221014  32.160  14.080  16.650
  876BOLB   GL321015  31.900  13.930  16.420
  876BOLB   GL421016  31.950  13.780  16.100
  876BOLB   C1C21017  31.500  13.900  16.200
  876BOLB   C2C21018  31.260  13.600  15.900
  876BOLB   C3C21019  30.890  13.560  15.750
  876BOLB   C4C21020  30.910  13.850  15.350
  876BOLB   C1D21021  31.710  13.390  15.940
  876BOLB   C2D21022  31.720  12.960  15.850
  876BOLB   C3D21023  31.400  12.620  16.060
  876BOLB   C4D21024  31.020  12.520  16.020
  877BOLB   NC121025  28.030  14.250  13.400
  877BOLB   PO121026  28.450  14.550  13.510
  877BOLB   GL121027  28.950  14.560  13.370
  877BOLB   GL221028  28.970  14.540  13.040
  877BOLB   C1A21029  29.360  14.470  13.460
  877BOLB   C2A21030  29.810  14.340  13.590
  877BOLB   C3A21031  30.190  14.430  13.670
  877BOLB   C4A21032  30.580  14.190  13.500
  877BOLB   C1B21033  29.160  14.200  12.950
  877BOLB   C2B21034  29.590  14.000  12.860
  877BOLB   C3B21035  29.960  14.050  13.010
  877BOLB   C4B21036  30.140  13.990  13.340
  877BOLB   NC221037  32.660  14.480  14.150
  877BOLB   PO221038  32.770  14.010  13.970
  877BOLB   GL321039  32.310  13.780  13.990
  877BOLB   GL421040  32.260  13.460  14.150
  877BOLB   C1C21041  31.950  13.860  13.950
  877BOLB   C2C21042  31.520  13.640  13.880
  877BOLB   C3C21043  31.160  13.700  13.630
  877BOLB   C4C21044  30.920  13.990  13.670
  877BOLB   C1D21045  31.910  13.430  14.440
  877BOLB   C2D21046  31.550  13.540  14.430
  877BOLB   C3D21047  31.120  13.510  14.640
  877BOLB   C4D21048  30.730  13.670  14.740
  878BOLB   NC121049  22.570   8.040   9.710
  878BOLB   PO121050  22.920   7.860   9.830
  878BOLB   GL121051  22.720   7.580   9.620
  878BOLB   GL221052  22.670   7.240   9.590
  878BOLB   C1A21053  22.880   7.520   9.220
  878BOLB   C2A21054  23.000   7.250   8.940
  878BOLB   C3A21055  23.150   6.880   8.770
  878BOLB   C4A21056  23.310   6.690   8.430
  878BOLB   C1B21057  22.660   6.990   9.240
  878BOLB   C2B21058  22.680   6.740   8.940
  878BOLB   C3B21059  22.790   6.470   8.570
  878BOLB   C4B21060  22.710   6.200   8.230
  878BOLB   NC221061  23.530   5.150   6.480
  878BOLB   PO221062  23.180   5.120   6.710
  878BOLB   GL321063  23.240   5.420   6.880
  878BOLB   GL421064  22.810   5.380   6.900
  878BOLB   C1C21065  23.250   5.780   7.150
  878BOLB   C2C21066  23.010   6.020   7.300
  878BOLB   C3C21067  22.860   6.260   7.690
  878BOLB   C4C21068  23.140   6.520   8.060
  878BOLB   C1D21069  22.620   5.690   7.120
  878BOLB   C2D21070  22.400   6.070   7.310
  878BOLB   C3D21071  22.380   6.450   7.540
  878BOLB   C4D21072  22.380   6.530   8.060
  879BOLB   NC121073  28.210  22.310  18.100
  879BOLB   PO121074  27.810  22.170  18.190
  879BOLB   GL121075  27.580  21.840  18.090
  879BOLB   GL221076  27.260  21.940  18.200
  879BOLB   C1A21077  27.240  21.500  17.780
  879BOLB   C2A21078  26.800  21.380  17.680
  879BOLB   C3A21079  26.710  20.970  17.510
  879BOLB   C4A21080  26.390  20.680  17.730
  879BOLB   C1B21081  26.880  21.730  18.350
  879BOLB   C2B21082  26.610  21.400  18.310
  879BOLB   C3B21083  26.620  21.000  18.170
  879BOLB   C4B21084  26.610  20.590  18.260
  879BOLB   NC221085  25.110  19.600  16.510
  879BOLB   PO221086  24.970  19.740  16.980
  879BOLB   GL321087  24.920  20.050  17.330
  879BOLB   GL421088  24.710  20.200  17.610
  879BOLB   C1C21089  25.200  20.460  17.530
  879BOLB   C2C21090  25.240  20.620  17.920
  879BOLB   C3C21091  25.650  20.720  18.100
  879BOLB   C4C21092  26.100  20.690  18.050
  879BOLB   C1D21093  24.590  20.620  17.800
  879BOLB   C2D21094  24.760  20.960  18.010
  879BOLB   C3D21095  24.830  21.040  18.530
  879BOLB   C4D21096  24.910  21.500  18.570
  880BOLB   NC121097  28.070  15.880  14.530
  880BOLB   PO121098  28.270  15.660  14.190
  880BOLB   GL121099  28.700  15.810  14.130
  880BOLB   GL221100  28.780  15.720  13.810
  880BOLB   C1A21101  29.170  15.870  14.250
  880BOLB   C2A21102  29.530  16.010  14.190
  880BOLB   C3A21103  29.880  15.970  14.430
  880BOLB   C4A21104  30.290  15.840  14.680
  880BOLB   C1B21105  29.210  15.790  13.720
  880BOLB   C2B21106  29.630  15.860  13.630
  880BOLB   C3B21107  29.900  16.040  13.850
  880BOLB   C4B21108  30.210  16.320  13.800
  880BOLB   NC221109  32.920  15.800  14.260
  880BOLB   PO221110  32.630  15.570  14.550
  880BOLB   GL321111  32.240  15.470  14.430
  880BOLB   GL421112  32.040  15.670  14.590
  880BOLB   C1C21113  31.980  15.520  14.180
  880BOLB   C2C21114  31.560  15.610  14.260
  880BOLB   C3C21115  31.140  15.570  14.540
  880BOLB   C4C21116  30.720  15.580  14.680
  880BOLB   C1D21117  31.670  15.420  14.670
  880BOLB   C2D21118  31.390  15.160  14.570
  880BOLB   C3D21119  31.280  14.780  14.290
  880BOLB   C4D21120  31.050  14.410  14.290
  881BOLB   NC121121  23.140  20.130   9.200
  881BOLB   PO121122  22.680  20.410   9.040
  881BOLB   GL121123  22.750  20.770   8.810
  881BOLB   GL221124  22.600  20.780   8.540
  881BOLB   C1A21125  23.020  21.040   8.610
  881BOLB   C2A21126  23.240  21.110   8.150
  881BOLB   C3A21127  23.350  21.300   7.790
  881BOLB   C4A21128  23.140  21.660   7.520
  881BOLB   C1B21129  22.630  21.120   8.210
  881BOLB   C2B21130  22.810  21.300   7.820
  881BOLB   C3B21131  22.640  21.550   7.460
  881BOLB   C4B21132  22.310  21.840   7.550
  881BOLB   NC221133  23.070  23.500   6.030
  881BOLB   PO221134  23.540  23.320   6.050
  881BOLB   GL321135  23.730  22.960   6.290
  881BOLB   GL421136  23.550  22.610   6.170
  881BOLB   C1C21137  23.370  22.850   6.530
  881BOLB   C2C21138  23.230  22.630   6.900
  881BOLB   C3C21139  23.310  22.320   7.270
  881BOLB   C4C21140  23.320  22.040   7.510
  881BOLB   C1D21141  23.330  22.270   6.390
  881BOLB   C2D21142  23.390  21.840   6.350
  881BOLB   C3D21143  23.720  21.410   6.490
  881BOLB   C4D21144  23.850  20.950   6.550
  882BOLB   NC121145  17.190  16.240  19.570
  882BOLB   PO121146  17.480  16.280  19.740
  882BOLB   GL121147  17.570  16.320  20.100
  882BOLB   GL221148  17.460  16.690  20.080
  882BOLB   C1A21149  17.470  16.580  20.600
  882BOLB   C2A21150  17.410  16.970  20.810
  882BOLB   C3A21151  17.090  17.140  20.950
  882BOLB   C4A21152  16.900  17.350  21.340
  882BOLB   C1B21153  17.370  16.990  20.350
  882BOLB   C2B21154  17.160  17.430  20.460
  882BOLB   C3B21155  16.910  17.590  20.790
  882BOLB   C4B21156  16.530  17.580  21.050
  882BOLB   NC221157  15.530  17.790  23.410
  882BOLB   PO221158  15.500  17.410  23.510
  882BOLB   GL321159  15.590  17.280  23.140
  882BOLB   GL421160  15.530  17.510  22.940
  882BOLB   C1C21161  15.950  17.330  22.760
  882BOLB   C2C21162  16.310  17.440  22.370
  882BOLB   C3C21163  16.360  17.430  21.950
  882BOLB   C4C21164  16.700  17.460  21.740
  882BOLB   C1D21165  15.530  17.420  22.570
  882BOLB   C2D21166  15.770  17.310  22.150
  882BOLB   C3D21167  16.060  17.080  21.830
  882BOLB   C4D21168  16.380  16.810  21.630
  883BOLB   NC121169  27.730  13.050  16.560
  883BOLB   PO121170  27.570  12.790  16.830
  883BOLB   GL121171  28.080  12.900  17.110
  883BOLB   GL221172  28.220  13.210  17.140
  883BOLB   C1A21173  28.380  12.730  17.350
  883BOLB   C2A21174  28.650  12.580  17.620
  883BOLB   C3A21175  28.830  12.200  17.990
  883BOLB   C4A21176  29.150  12.060  18.280
  883BOLB   C1B21177  28.560  13.280  17.390
  883BOLB   C2B21178  28.890  13.100  17.630
  883BOLB   C3B21179  29.180  13.180  17.420
  883BOLB   C4B21180  29.490  12.970  17.290
  883BOLB   NC221181  31.090  11.950  19.400
  883BOLB   PO221182  31.120  11.460  19.490
  883BOLB   GL321183  30.750  11.590  19.370
  883BOLB   GL421184  30.480  11.310  19.290
  883BOLB   C1C21185  30.270  11.760  19.340
  883BOLB   C2C21186  30.040  12.040  19.060
  883BOLB   C3C21187  29.610  12.180  19.000
  883BOLB   C4C21188  29.380  12.100  18.660
  883BOLB   C1D21189  30.180  11.360  19.000
  883BOLB   C2D21190  30.140  11.340  18.610
  883BOLB   C3D21191  29.770  11.220  18.160
  883BOLB   C4D21192  29.510  11.040  17.790
  884BOLB   NC121193  26.090  10.230   4.350
  884BOLB   PO121194  25.970   9.800   4.300
  884BOLB   GL121195  25.880   9.960   4.690
  884BOLB   GL221196  26.100   9.840   4.970
  884BOLB   C1A21197  25.550  10.060   5.120
  884BOLB   C2A21198  25.310  10.210   5.450
  884BOLB   C3A21199  25.450  10.400   5.740
  884BOLB   C4A21200  25.550  10.450   6.150
  884BOLB   C1B21201  25.920   9.840   5.360
  884BOLB   C2B21202  25.600   9.870   5.630
  884BOLB   C3B21203  25.670  10.000   6.010
  884BOLB   C4B21204  25.590   9.830   6.520
  884BOLB   NC221205  27.360   9.370   5.920
  884BOLB   PO221206  27.110   9.020   6.070
  884BOLB   GL321207  26.940   9.180   6.370
  884BOLB   GL421208  26.800   8.970   6.570
  884BOLB   C1C21209  26.700   9.450   6.640
  884BOLB   C2C21210  26.380   9.740   6.720
  884BOLB   C3C21211  26.000  10.010   6.690
  884BOLB   C4C21212  25.750  10.310   6.540
  884BOLB   C1D21213  26.480   9.020   6.980
  884BOLB   C2D21214  26.700   9.040   7.450
  884BOLB   C3D21215  27.100   9.230   7.490
  884BOLB   C4D21216  27.490   9.070   7.570
  885BOLB   NC121217  27.340  10.640  23.010
  885BOLB   PO121218  27.450  10.470  22.590
  885BOLB   GL121219  27.270  10.660  22.190
  885BOLB   GL221220  27.330  11.000  22.050
  885BOLB   C1A21221  26.960  10.660  21.870
  885BOLB   C2A21222  26.590  10.600  21.560
  885BOLB   C3A21223  26.700  10.780  21.130
  885BOLB   C4A21224  27.010  10.930  20.920
  885BOLB   C1B21225  27.200  10.900  21.510
  885BOLB   C2B21226  27.410  10.860  21.180
  885BOLB   C3B21227  27.750  10.610  20.980
  885BOLB   C4B21228  28.070  10.350  21.040
  885BOLB   NC221229  28.730  11.220  21.900
  885BOLB   PO221230  28.920  10.930  21.610
  885BOLB   GL321231  28.700  10.990  21.240
  885BOLB   GL421232  28.440  11.070  21.400
  885BOLB   C1C21233  28.470  10.760  20.820
  885BOLB   C2C21234  28.140  10.540  20.570
  885BOLB   C3C21235  27.710  10.680  20.490
  885BOLB   C4C21236  27.330  10.870  20.590
  885BOLB   C1D21237  28.350  11.270  20.910
  885BOLB   C2D21238  28.250  11.100  20.510
  885BOLB   C3D21239  28.040  10.920  20.200
  885BOLB   C4D21240  28.040  10.750  19.760
  886BOLB   NC121241  28.260  11.530  12.860
  886BOLB   PO121242  28.320  11.810  12.470
  886BOLB   GL121243  28.510  11.450  12.250
  886BOLB   GL221244  28.530  11.410  11.810
  886BOLB   C1A21245  28.860  11.390  12.190
  886BOLB   C2A21246  29.240  11.210  12.340
  886BOLB   C3A21247  29.630  11.300  12.500
  886BOLB   C4A21248  29.990  11.370  12.550
  886BOLB   C1B21249  28.990  11.270  11.710
  886BOLB   C2B21250  29.300  11.130  11.420
  886BOLB   C3B21251  29.390  10.920  10.990
  886BOLB   C4B21252  29.590  10.790  10.600
  886BOLB   NC221253  32.710  10.360  11.900
  886BOLB   PO221254  32.340  10.300  12.030
  886BOLB   GL321255  32.130  10.740  12.140
  886BOLB   GL421256  32.100  10.950  11.820
  886BOLB   C1C21257  31.750  10.850  12.210
  886BOLB   C2C21258  31.260  11.000  12.380
  886BOLB   C3C21259  30.860  11.320  12.410
  886BOLB   C4C21260  30.450  11.380  12.510
  886BOLB   C1D21261  31.780  10.840  11.710
  886BOLB   C2D21262  31.300  10.940  11.680
  886BOLB   C3D21263  31.070  11.130  11.950
  886BOLB   C4D21264  30.620  11.260  12.020
  887BOLB   NC121265  28.130  17.980  22.250
  887BOLB   PO121266  28.060  17.560  22.070
  887BOLB   GL121267  27.650  17.540  21.840
  887BOLB   GL221268  27.440  17.260  21.760
  887BOLB   C1A21269  27.250  17.640  21.550
  887BOLB   C2A21270  27.210  17.850  21.110
  887BOLB   C3A21271  27.030  17.950  20.750
  887BOLB   C4A21272  26.890  18.320  20.470
  887BOLB   C1B21273  27.620  17.280  21.360
  887BOLB   C2B21274  27.180  17.310  21.100
  887BOLB   C3B21275  26.950  17.040  20.760
  887BOLB   C4B21276  26.640  16.730  20.830
  887BOLB   NC221277  27.670  20.770  20.810
  887BOLB   PO221278  27.500  20.450  20.490
  887BOLB   GL321279  27.120  20.390  20.320
  887BOLB   GL421280  26.870  20.440  20.520
  887BOLB   C1C21281  26.900  19.910  20.330
  887BOLB   C2C21282  26.610  19.570  20.140
  887BOLB   C3C21283  26.610  19.090  20.310
  887BOLB   C4C21284  26.650  18.660  20.410
  887BOLB   C1D21285  26.440  20.090  20.510
  887BOLB   C2D21286  26.120  19.990  20.310
  887BOLB   C3D21287  25.880  19.740  20.010
  887BOLB   C4D21288  25.740  19.310  19.920
  888BOLB   NC121289  30.910   9.570   9.480
  888BOLB   PO121290  31.130   9.930   9.500
  888BOLB   GL121291  31.030  10.230   9.860
  888BOLB   GL221292  31.020  10.580  10.020
  888BOLB   C1A21293  30.850  10.250  10.360
  888BOLB   C2A21294  30.740  10.510  10.700
  888BOLB   C3A21295  30.350  10.520  10.880
  888BOLB   C4A21296  29.970  10.630  10.880
  888BOLB   C1B21297  30.600  10.570  10.170
  888BOLB   C2B21298  30.200  10.800  10.260
  888BOLB   C3B21299  29.840  10.500  10.310
  888BOLB   C4B21300  29.410  10.420  10.340
  888BOLB   NC221301  31.170   8.500  11.680
  888BOLB   PO221302  31.090   8.180  11.420
  888BOLB   GL321303  30.700   8.630  11.420
  888BOLB   GL421304  30.860   8.940  11.490
  888BOLB   C1C21305  30.390   9.010  11.290
  888BOLB   C2C21306  30.020   9.370  11.330
  888BOLB   C3C21307  29.840   9.870  11.320
  888BOLB   C4C21308  29.780  10.280  11.160
  888BOLB   C1D21309  30.720   9.400  11.330
  888BOLB   C2D21310  30.730   9.840  11.100
  888BOLB   C3D21311  30.580   9.920  10.660
  888BOLB   C4D21312  30.310  10.300  10.450
  889BOLB   NC121313  31.290  19.830  12.440
  889BOLB   PO121314  31.250  20.280  12.180
  889BOLB   GL121315  30.910  20.110  12.380
  889BOLB   GL221316  30.620  20.200  12.540
  889BOLB   C1A21317  30.620  19.760  12.380
  889BOLB   C2A21318  30.370  19.520  12.130
  889BOLB   C3A21319  30.090  19.250  12.090
  889BOLB   C4A21320  29.680  19.260  12.200
  889BOLB   C1B21321  30.240  20.070  12.700
  889BOLB   C2B21322  29.870  19.990  12.750
  889BOLB   C3B21323  29.490  20.170  12.860
  889BOLB   C4B21324  29.030  20.240  12.880
  889BOLB   NC221325  27.300  18.160  12.260
  889BOLB   PO221326  27.390  18.410  12.620
  889BOLB   GL321327  27.790  18.450  12.480
  889BOLB   GL421328  27.730  18.390  12.150
  889BOLB   C1C21329  28.160  18.700  12.340
  889BOLB   C2C21330  28.440  19.040  12.130
  889BOLB   C3C21331  28.810  19.280  12.330
  889BOLB   C4C21332  29.260  19.270  12.270
  889BOLB   C1D21333  28.110  18.260  12.100
  889BOLB   C2D21334  28.490  18.130  12.120
  889BOLB   C3D21335  28.990  18.260  12.220
  889BOLB   C4D21336  29.430  18.330  12.200
  890BOLB   NC121337  28.260  15.010  12.630
  890BOLB   PO121338  28.410  15.210  13.000
  890BOLB   GL121339  28.740  15.440  12.760
  890BOLB   GL221340  28.660  15.340  12.430
  890BOLB   C1A21341  29.230  15.590  12.700
  890BOLB   C2A21342  29.610  15.370  12.470
  890BOLB   C3A21343  29.820  15.030  12.480
  890BOLB   C4A21344  30.210  14.970  12.210
  890BOLB   C1B21345  29.050  15.370  12.240
  890BOLB   C2B21346  29.410  15.550  12.080
  890BOLB   C3B21347  29.830  15.650  12.110
  890BOLB   C4B21348  30.140  15.920  11.950
  890BOLB   NC221349  32.710  13.540  11.530
  890BOLB   PO221350  32.460  13.800  11.750
  890BOLB   GL321351  32.030  13.720  11.850
  890BOLB   GL421352  32.000  13.630  12.130
  890BOLB   C1C21353  31.770  14.090  11.920
  890BOLB   C2C21354  31.460  14.520  11.920
  890BOLB   C3C21355  31.020  14.660  11.920
  890BOLB   C4C21356  30.610  14.840  12.090
  890BOLB   C1D21357  31.520  13.610  12.100
  890BOLB   C2D21358  31.180  13.440  11.810
  890BOLB   C3D21359  30.920  13.810  11.700
  890BOLB   C4D21360  31.110  14.280  11.630
  891BOLB   NC121361  24.760  20.190  15.990
  891BOLB   PO121362  25.010  19.830  16.020
  891BOLB   GL121363  25.340  20.130  16.270
  891BOLB   GL221364  25.280  20.460  16.070
  891BOLB   C1A21365  25.480  20.220  16.680
  891BOLB   C2A21366  25.760  20.220  16.950
  891BOLB   C3A21367  25.810  20.580  17.320
  891BOLB   C4A21368  26.030  20.930  17.500
  891BOLB   C1B21369  25.620  20.790  16.180
  891BOLB   C2B21370  26.090  20.900  16.240
  891BOLB   C3B21371  26.320  20.980  16.600
  891BOLB   C4B21372  26.670  20.830  16.780
  891BOLB   NC221373  27.880  22.990  18.630
  891BOLB   PO221374  27.390  22.830  18.640
  891BOLB   GL321375  26.950  22.650  18.480
  891BOLB   GL421376  26.760  22.410  18.590
  891BOLB   C1C21377  26.740  22.230  18.160
  891BOLB   C2C21378  26.680  21.880  17.900
  891BOLB   C3C21379  26.320  21.600  17.830
  891BOLB   C4C21380  26.310  21.250  17.800
  891BOLB   C1D21381  26.350  22.300  18.400
  891BOLB   C2D21382  26.140  22.200  18.020
  891BOLB   C3D21383  25.740  22.130  17.800
  891BOLB   C4D21384  25.410  21.950  17.540
  892BOLB   NC121385  28.220  13.520  12.730
  892BOLB   PO121386  28.340  13.080  12.910
  892BOLB   GL121387  28.760  13.220  13.020
  892BOLB   GL221388  28.880  13.430  13.280
  892BOLB   C1A21389  29.130  13.090  13.070
  892BOLB   C2A21390  29.640  13.150  13.130
  892BOLB   C3A21391  30.030  13.120  13.160
  892BOLB   C4A21392  30.490  13.240  13.300
  892BOLB   C1B21393  29.320  13.580  13.110
  892BOLB   C2B21394  29.830  13.590  13.050
  892BOLB   C3B21395  30.230  13.580  12.900
  892BOLB   C4B21396  30.570  13.780  13.150
  892BOLB   NC221397  32.910  13.210  13.450
  892BOLB   PO221398  32.930  12.880  13.160
  892BOLB   GL321399  32.490  12.970  13.250
  892BOLB   GL421400  32.180  12.860  13.530
  892BOLB   C1C21401  32.110  13.180  13.240
  892BOLB   C2C21402  31.720  13.380  13.340
  892BOLB   C3C21403  31.290  13.240  13.560
  892BOLB   C4C21404  30.920  13.220  13.340
  892BOLB   C1D21405  32.090  12.540  13.320
  892BOLB   C2D21406  31.680  12.410  13.500
  892BOLB   C3D21407  31.340  12.730  13.380
  892BOLB   C4D21408  30.960  12.710  13.260
  893BOLB   NC121409  21.250   7.050  10.470
  893BOLB   PO121410  20.770   6.820  10.360
  893BOLB   GL121411  20.830   6.410  10.060
  893BOLB   GL221412  21.050   6.450   9.700
  893BOLB   C1A21413  20.890   6.050   9.940
  893BOLB   C2A21414  20.900   5.910   9.520
  893BOLB   C3A21415  20.690   5.970   9.050
  893BOLB   C4A21416  20.660   5.700   8.770
  893BOLB   C1B21417  21.460   6.330   9.480
  893BOLB   C2B21418  21.530   5.890   9.340
  893BOLB   C3B21419  21.270   5.530   9.250
  893BOLB   C4B21420  20.880   5.390   9.060
  893BOLB   NC221421  20.960   4.230   7.070
  893BOLB   PO221422  20.600   4.110   7.090
  893BOLB   GL321423  20.640   4.490   7.310
  893BOLB   GL421424  21.070   4.610   7.400
  893BOLB   C1C21425  20.650   4.910   7.360
  893BOLB   C2C21426  20.690   5.160   7.670
  893BOLB   C3C21427  20.630   5.190   8.130
  893BOLB   C4C21428  20.860   5.340   8.440
  893BOLB   C1D21429  21.130   4.960   7.660
  893BOLB   C2D21430  21.120   5.030   8.160
  893BOLB   C3D21431  21.200   4.940   8.550
  893BOLB   C4D21432  21.350   5.040   9.070
  894BOLB   NC121433  21.830  15.920  20.140
  894BOLB   PO121434  22.260  16.010  19.940
  894BOLB   GL121435  22.240  15.980  20.360
  894BOLB   GL221436  22.470  16.260  20.460
  894BOLB   C1A21437  22.240  15.960  20.730
  894BOLB   C2A21438  22.210  16.050  21.150
  894BOLB   C3A21439  22.110  15.990  21.560
  894BOLB   C4A21440  22.430  15.970  21.910
  894BOLB   C1B21441  22.680  16.240  20.770
  894BOLB   C2B21442  22.720  16.330  21.210
  894BOLB   C3B21443  22.900  16.590  21.540
  894BOLB   C4B21444  23.110  16.790  21.940
  894BOLB   NC221445  22.100  16.000  24.170
  894BOLB   PO221446  21.790  15.980  24.390
  894BOLB   GL321447  21.710  15.800  23.960
  894BOLB   GL421448  21.620  16.080  23.890
  894BOLB   C1C21449  21.950  15.890  23.520
  894BOLB   C2C21450  21.980  15.980  23.120
  894BOLB   C3C21451  22.050  16.090  22.700
  894BOLB   C4C21452  22.350  16.070  22.320
  894BOLB   C1D21453  21.310  16.090  23.610
  894BOLB   C2D21454  21.430  15.990  23.190
  894BOLB   C3D21455  21.500  16.070  22.700
  894BOLB   C4D21456  21.350  15.900  22.340
  895BOLB   NC121457  26.610  23.490  18.470
  895BOLB   PO121458  26.980  23.180  18.580
  895BOLB   GL121459  26.550  22.940  18.400
  895BOLB   GL221460  26.310  23.060  18.560
  895BOLB   C1A21461  26.130  22.760  18.180
  895BOLB   C2A21462  25.860  22.610  17.980
  895BOLB   C3A21463  25.400  22.450  17.820
  895BOLB   C4A21464  24.970  22.400  18.030
  895BOLB   C1B21465  26.000  22.700  18.620
  895BOLB   C2B21466  25.830  22.400  18.540
  895BOLB   C3B21467  25.710  22.080  18.310
  895BOLB   C4B21468  25.290  22.030  18.020
  895BOLB   NC221469  24.670  23.680  20.120
  895BOLB   PO221470  24.570  23.760  19.670
  895BOLB   GL321471  24.460  23.440  19.410
  895BOLB   GL421472  24.200  23.190  19.270
  895BOLB   C1C21473  24.650  23.300  19.070
  895BOLB   C2C21474  24.690  23.220  18.690
  895BOLB   C3C21475  24.430  22.900  18.380
  895BOLB   C4C21476  24.650  22.550  18.230
  895BOLB   C1D21477  24.210  22.800  19.090
  895BOLB   C2D21478  24.170  22.500  18.880
  895BOLB   C3D21479  24.110  22.480  18.400
  895BOLB   C4D21480  24.210  22.520  18.020
  896BOLB   NC121481  27.540  17.500  14.470
  896BOLB   PO121482  27.620  17.190  14.090
  896BOLB   GL121483  27.990  17.390  14.320
  896BOLB   GL221484  27.970  17.740  14.270
  896BOLB   C1A21485  28.330  17.510  14.500
  896BOLB   C2A21486  28.700  17.750  14.440
  896BOLB   C3A21487  29.170  17.770  14.300
  896BOLB   C4A21488  29.510  18.120  14.330
  896BOLB   C1B21489  28.340  17.860  14.100
  896BOLB   C2B21490  28.750  18.080  14.090
  896BOLB   C3B21491  29.190  18.260  14.000
  896BOLB   C4B21492  29.530  18.140  13.810
  896BOLB   NC221493  31.930  19.170  14.410
  896BOLB   PO221494  31.560  19.230  14.400
  896BOLB   GL321495  31.210  19.110  14.280
  896BOLB   GL421496  30.910  19.130  14.430
  896BOLB   C1C21497  30.930  18.770  13.990
  896BOLB   C2C21498  30.540  18.740  14.100
  896BOLB   C3C21499  30.120  18.740  14.380
  896BOLB   C4C21500  29.790  18.450  14.540
  896BOLB   C1D21501  30.650  18.870  14.570
  896BOLB   C2D21502  30.400  18.480  14.760
  896BOLB   C3D21503  30.130  18.250  14.890
  896BOLB   C4D21504  29.700  18.110  14.860
  897BOLB   NC121505  25.790  16.940  18.280
  897BOLB   PO121506  25.690  16.630  18.600
  897BOLB   GL121507  25.930  16.550  18.960
  897BOLB   GL221508  25.740  16.770  19.220
  897BOLB   C1A21509  26.370  16.550  19.150
  897BOLB   C2A21510  26.600  16.660  19.440
  897BOLB   C3A21511  26.910  16.900  19.670
  897BOLB   C4A21512  27.250  17.120  19.650
  897BOLB   C1B21513  26.020  16.890  19.570
  897BOLB   C2B21514  26.070  16.670  19.890
  897BOLB   C3B21515  25.750  16.560  20.110
  897BOLB   C4B21516  25.700  16.820  20.440
  897BOLB   NC221517  27.990  18.640  21.530
  897BOLB   PO221518  28.170  18.570  21.140
  897BOLB   GL321519  28.050  18.480  20.810
  897BOLB   GL421520  28.260  18.390  20.540
  897BOLB   C1C21521  27.900  18.010  20.570
  897BOLB   C2C21522  27.690  17.740  20.300
  897BOLB   C3C21523  27.590  17.740  19.810
  897BOLB   C4C21524  27.450  17.530  19.610
  897BOLB   C1D21525  28.270  18.200  20.180
  897BOLB   C2D21526  27.970  18.140  19.940
  897BOLB   C3D21527  27.820  18.020  19.530
  897BOLB   C4D21528  27.850  17.940  19.130
  898BOLB   NC121529  27.780  14.680  16.900
  898BOLB   PO121530  27.640  15.070  16.900
  898BOLB   GL121531  28.010  15.220  17.040
  898BOLB   GL221532  28.010  15.380  17.290
  898BOLB   C1A21533  28.450  15.340  17.020
  898BOLB   C2A21534  28.770  15.550  16.850
  898BOLB   C3A21535  28.950  15.880  17.070
  898BOLB   C4A21536  29.340  15.890  17.330
  898BOLB   C1B21537  28.430  15.470  17.510
  898BOLB   C2B21538  28.910  15.300  17.330
  898BOLB   C3B21539  29.270  15.420  17.110
  898BOLB   C4B21540  29.740  15.600  17.080
  898BOLB   NC221541  30.990  17.040  19.490
  898BOLB   PO221542  30.790  17.370  19.300
  898BOLB   GL321543  30.590  17.060  18.940
  898BOLB   GL421544  30.250  17.050  18.910
  898BOLB   C1C21545  30.250  16.600  18.740
  898BOLB   C2C21546  30.010  16.350  18.520
  898BOLB   C3C21547  29.780  16.040  18.140
  898BOLB   C4C21548  29.670  16.070  17.630
  898BOLB   C1D21549  30.240  17.330  18.560
  898BOLB   C2D21550  30.150  17.610  18.180
  898BOLB   C3D21551  29.780  17.650  17.930
  898BOLB   C4D21552  29.460  18.070  17.700
  899BOLB   NC121553  28.300  14.460  16.400
  899BOLB   PO121554  28.560  14.710  16.130
  899BOLB   GL121555  28.870  14.820  16.320
  899BOLB   GL221556  28.930  14.530  16.470
  899BOLB   C1A21557  29.270  14.820  16.220
  899BOLB   C2A21558  29.560  15.190  16.130
  899BOLB   C3A21559  29.860  15.350  15.840
  899BOLB   C4A21560  30.110  15.650  15.690
  899BOLB   C1B21561  29.410  14.510  16.560
  899BOLB   C2B21562  29.750  14.750  16.430
  899BOLB   C3B21563  30.010  14.940  16.230
  899BOLB   C4B21564  30.380  14.950  16.320
  899BOLB   NC221565  32.630  16.160  15.610
  899BOLB   PO221566  32.740  15.800  15.390
  899BOLB   GL321567  32.360  15.720  15.520
  899BOLB   GL421568  32.300  15.470  15.690
  899BOLB   C1C21569  31.920  15.770  15.550
  899BOLB   C2C21570  31.460  15.800  15.530
  899BOLB   C3C21571  30.990  15.810  15.480
  899BOLB   C4C21572  30.490  15.730  15.570
  899BOLB   C1D21573  32.000  15.230  15.820
  899BOLB   C2D21574  31.580  15.320  15.740
  899BOLB   C3D21575  31.280  15.300  15.880
  899BOLB   C4D21576  31.260  15.690  16.020
  900BOLB   NC121577  27.270  18.340  14.610
  900BOLB   PO121578  27.360  17.930  14.370
  900BOLB   GL121579  27.760  18.190  14.430
  900BOLB   GL221580  28.000  18.270  14.250
  900BOLB   C1A21581  28.040  18.400  14.750
  900BOLB   C2A21582  28.390  18.420  15.020
  900BOLB   C3A21583  28.720  18.380  15.210
  900BOLB   C4A21584  29.030  18.280  15.460
  900BOLB   C1B21585  28.310  18.400  14.030
  900BOLB   C2B21586  28.680  18.610  14.080
  900BOLB   C3B21587  29.130  18.620  14.390
  900BOLB   C4B21588  29.510  18.870  14.520
  900BOLB   NC221589  31.020  19.450  15.940
  900BOLB   PO221590  30.820  19.360  15.660
  900BOLB   GL321591  30.420  19.300  15.640
  900BOLB   GL421592  30.200  19.390  15.640
  900BOLB   C1C21593  30.200  18.870  15.700
  900BOLB   C2C21594  29.960  18.640  16.070
  900BOLB   C3C21595  29.550  18.460  16.100
  900BOLB   C4C21596  29.370  18.270  15.790
  900BOLB   C1D21597  29.960  19.140  15.320
  900BOLB   C2D21598  29.620  19.120  14.980
  900BOLB   C3D21599  29.450  19.440  14.640
  900BOLB   C4D21600  29.140  19.630  14.410
  901BOLB   NC121601  23.890  20.520  15.960
  901BOLB   PO121602  24.140  20.930  15.940
  901BOLB   GL121603  24.610  21.030  15.960
  901BOLB   GL221604  24.770  20.790  16.060
  901BOLB   C1A21605  24.810  21.450  15.860
  901BOLB   C2A21606  25.010  21.830  15.960
  901BOLB   C3A21607  25.090  22.120  16.240
  901BOLB   C4A21608  25.330  22.530  16.310
  901BOLB   C1B21609  25.130  21.000  16.190
  901BOLB   C2B21610  25.610  21.250  16.250
  901BOLB   C3B21611  25.860  21.390  16.500
  901BOLB   C4B21612  26.150  21.420  16.840
  901BOLB   NC221613  26.080  24.040  17.890
  901BOLB   PO221614  26.380  23.820  18.130
  901BOLB   GL321615  26.160  23.540  17.910
  901BOLB   GL421616  26.380  23.300  18.060
  901BOLB   C1C21617  25.960  23.410  17.540
  901BOLB   C2C21618  25.680  23.180  17.180
  901BOLB   C3C21619  25.500  22.980  17.000
  901BOLB   C4C21620  25.240  22.840  16.670
  901BOLB   C1D21621  26.190  22.970  17.750
  901BOLB   C2D21622  26.050  22.600  17.510
  901BOLB   C3D21623  25.860  22.260  17.300
  901BOLB   C4D21624  25.700  22.010  17.100
  902BOLB   NC121625  27.920  15.980  15.990
  902BOLB   PO121626  27.650  15.690  16.230
  902BOLB   GL121627  28.080  15.780  16.410
  902BOLB   GL221628  28.380  15.930  16.210
  902BOLB   C1A21629  28.420  15.810  16.650
  902BOLB   C2A21630  28.840  15.880  16.450
  902BOLB   C3A21631  29.260  16.130  16.480
  902BOLB   C4A21632  29.500  16.480  16.640
  902BOLB   C1B21633  28.730  16.200  16.090
  902BOLB   C2B21634  28.880  16.610  16.130
  902BOLB   C3B21635  28.840  17.050  16.200
  902BOLB   C4B21636  28.920  17.300  16.560
  902BOLB   NC221637  31.370  16.880  18.490
  902BOLB   PO221638  30.980  17.030  18.430
  902BOLB   GL321639  30.650  17.010  18.350
  902BOLB   GL421640  30.550  17.070  18.100
  902BOLB   C1C21641  30.420  16.640  18.270
  902BOLB   C2C21642  29.990  16.560  18.000
  902BOLB   C3C21643  29.680  16.550  17.700
  902BOLB   C4C21644  29.680  16.550  17.150
  902BOLB   C1D21645  30.120  17.120  18.150
  902BOLB   C2D21646  29.950  16.840  18.380
  902BOLB   C3D21647  29.650  16.590  18.340
  902BOLB   C4D21648  29.250  16.220  18.380
  903BOLB   NC121649  18.390  16.270  20.060
  903BOLB   PO121650  18.530  16.650  19.890
  903BOLB   GL121651  18.490  16.690  20.370
  903BOLB   GL221652  18.700  16.910  20.550
  903BOLB   C1A21653  18.370  16.540  20.650
  903BOLB   C2A21654  18.310  16.400  21.110
  903BOLB   C3A21655  18.160  16.500  21.500
  903BOLB   C4A21656  18.100  16.400  21.880
  903BOLB   C1B21657  18.300  17.060  20.660
  903BOLB   C2B21658  18.100  17.370  20.990
  903BOLB   C3B21659  18.080  17.560  21.340
  903BOLB   C4B21660  18.010  17.590  21.840
  903BOLB   NC221661  16.990  16.950  24.280
  903BOLB   PO221662  17.010  16.930  23.840
  903BOLB   GL321663  17.270  16.930  23.550
  903BOLB   GL421664  17.070  16.930  23.290
  903BOLB   C1C21665  17.680  16.740  23.350
  903BOLB   C2C21666  18.080  16.910  23.040
  903BOLB   C3C21667  18.090  16.960  22.600
  903BOLB   C4C21668  18.210  16.660  22.270
  903BOLB   C1D21669  16.790  16.680  22.990
  903BOLB   C2D21670  17.000  16.390  22.800
  903BOLB   C3D21671  17.440  16.340  22.670
  903BOLB   C4D21672  17.860  16.460  22.720
  904BOLB   NC121673  26.320  12.510  10.110
  904BOLB   PO121674  26.190  12.310   9.710
  904BOLB   GL121675  26.470  12.140   9.420
  904BOLB   GL221676  26.610  12.360   9.190
  904BOLB   C1A21677  26.570  11.780   9.040
  904BOLB   C2A21678  26.960  11.870   8.820
  904BOLB   C3A21679  27.340  11.610   8.720
  904BOLB   C4A21680  27.750  11.440   8.550
  904BOLB   C1B21681  26.930  12.450   8.830
  904BOLB   C2B21682  27.160  12.260   8.490
  904BOLB   C3B21683  27.340  12.150   8.100
  904BOLB   C4B21684  27.470  12.000   7.790
  904BOLB   NC221685  28.950  10.340   6.450
  904BOLB   PO221686  29.130  10.260   6.900
  904BOLB   GL321687  29.070  10.310   7.270
  904BOLB   GL421688  29.220  10.400   7.590
  904BOLB   C1C21689  28.770  10.620   7.430
  904BOLB   C2C21690  28.610  10.870   7.810
  904BOLB   C3C21691  28.490  11.060   8.240
  904BOLB   C4C21692  28.210  11.230   8.560
  904BOLB   C1D21693  28.890  10.380   7.840
  904BOLB   C2D21694  28.700  10.610   8.320
  904BOLB   C3D21695  28.460  10.760   8.660
  904BOLB   C4D21696  28.120  10.610   8.930
  905BOLB   NC121697   6.920  14.720  18.040
  905BOLB   PO121698   7.170  14.510  17.850
  905BOLB   GL121699   7.490  14.620  17.720
  905BOLB   GL221700   7.480  14.900  17.430
  905BOLB   C1A21701   7.890  14.780  17.610
  905BOLB   C2A21702   8.280  14.690  17.280
  905BOLB   C3A21703   8.690  14.870  17.310
  905BOLB   C4A21704   9.010  14.990  17.660
  905BOLB   C1B21705   7.340  14.630  17.070
  905BOLB   C2B21706   7.610  14.340  16.800
  905BOLB   C3B21707   8.000  14.230  16.620
  905BOLB   C4B21708   8.400  14.140  16.410
  905BOLB   NC221709   7.590  14.570  19.240
  905BOLB   PO221710   7.910  14.280  19.120
  905BOLB   GL321711   8.230  14.500  18.960
  905BOLB   GL421712   8.370  14.330  18.880
  905BOLB   C1C21713   8.510  14.780  18.670
  905BOLB   C2C21714   8.910  14.920  18.690
  905BOLB   C3C21715   9.260  14.900  18.420
  905BOLB   C4C21716   9.290  15.020  18.020
  905BOLB   C1D21717   8.430  13.990  18.550
  905BOLB   C2D21718   8.170  13.600  18.470
  905BOLB   C3D21719   8.060  13.210  18.360
  905BOLB   C4D21720   7.740  12.980  18.200
  906BOLB   NC121721  14.350  14.850  18.740
  906BOLB   PO121722  14.460  15.230  19.150
  906BOLB   GL121723  14.060  15.320  19.350
  906BOLB   GL221724  14.020  15.600  19.430
  906BOLB   C1A21725  13.570  15.300  19.430
  906BOLB   C2A21726  13.190  15.420  19.560
  906BOLB   C3A21727  12.850  15.520  19.710
  906BOLB   C4A21728  12.660  15.580  20.050
  906BOLB   C1B21729  14.050  15.490  19.860
  906BOLB   C2B21730  13.940  15.430  20.280
  906BOLB   C3B21731  13.620  15.450  20.450
  906BOLB   C4B21732  13.270  15.370  20.540
  906BOLB   NC221733  11.510  16.090  22.250
  906BOLB   PO221734  11.260  15.720  22.140
  906BOLB   GL321735  11.480  15.530  21.830
  906BOLB   GL421736  11.740  15.500  21.990
  906BOLB   C1C21737  11.670  15.320  21.500
  906BOLB   C2C21738  11.860  15.170  21.120
  906BOLB   C3C21739  12.140  15.300  20.880
  906BOLB   C4C21740  12.430  15.430  20.420
  906BOLB   C1D21741  11.900  15.750  21.610
  906BOLB   C2D21742  11.960  16.140  21.350
  906BOLB   C3D21743  12.090  16.290  20.950
  906BOLB   C4D21744  11.890  16.320  20.510
  907BOLB   NC121745  28.250  14.930  15.010
  907BOLB   PO121746  28.300  14.480  14.760
  907BOLB   GL121747  28.660  14.510  14.840
  907BOLB   GL221748  28.850  14.280  14.940
  907BOLB   C1A21749  29.080  14.770  14.910
  907BOLB   C2A21750  29.480  15.010  14.780
  907BOLB   C3A21751  29.920  15.110  14.900
  907BOLB   C4A21752  30.370  15.300  14.980
  907BOLB   C1B21753  29.230  14.320  15.040
  907BOLB   C2B21754  29.650  14.370  14.980
  907BOLB   C3B21755  29.990  14.110  14.910
  907BOLB   C4B21756  30.280  13.840  15.040
  907BOLB   NC221757  32.510  16.640  13.850
  907BOLB   PO221758  32.400  16.410  14.210
  907BOLB   GL321759  31.980  16.180  14.290
  907BOLB   GL421760  31.900  16.420  14.440
  907BOLB   C1C21761  31.600  16.060  14.490
  907BOLB   C2C21762  31.280  15.980  14.740
  907BOLB   C3C21763  30.930  15.860  14.990
  907BOLB   C4C21764  30.670  15.520  15.170
  907BOLB   C1D21765  31.960  16.120  14.810
  907BOLB   C2D21766  31.660  15.850  15.040
  907BOLB   C3D21767  31.310  15.600  15.100
  907BOLB   C4D21768  31.230  15.350  15.380
  908BOLB   NC121769  26.270   8.950  11.200
  908BOLB   PO121770  26.450   9.130  11.610
  908BOLB   GL121771  26.820   8.980  11.300
  908BOLB   GL221772  26.910   9.250  11.100
  908BOLB   C1A21773  26.980   8.610  11.230
  908BOLB   C2A21774  27.290   8.400  11.270
  908BOLB   C3A21775  27.620   8.090  11.300
  908BOLB   C4A21776  28.010   7.780  11.260
  908BOLB   C1B21777  27.270   9.390  10.740
  908BOLB   C2B21778  27.660   9.320  10.820
  908BOLB   C3B21779  28.040   9.000  10.800
  908BOLB   C4B21780  28.170   8.600  10.760
  908BOLB   NC221781  29.990   6.120  11.930
  908BOLB   PO221782  29.780   6.220  11.560
  908BOLB   GL321783  29.480   6.460  11.600
  908BOLB   GL421784  29.560   6.530  11.860
  908BOLB   C1C21785  29.090   6.660  11.460
  908BOLB   C2C21786  28.850   6.890  11.670
  908BOLB   C3C21787  28.440   7.180  11.610
  908BOLB   C4C21788  28.270   7.500  11.360
  908BOLB   C1D21789  29.450   6.950  11.700
  908BOLB   C2D21790  29.150   7.380  11.770
  908BOLB   C3D21791  29.190   7.790  11.910
  908BOLB   C4D21792  28.830   7.970  12.050
  909BOLB   NC121793  27.910  13.810  17.150
  909BOLB   PO121794  28.130  13.640  16.840
  909BOLB   GL121795  28.430  13.780  17.170
  909BOLB   GL221796  28.670  13.740  17.030
  909BOLB   C1A21797  28.560  13.860  17.640
  909BOLB   C2A21798  28.830  13.610  17.930
  909BOLB   C3A21799  29.240  13.450  17.820
  909BOLB   C4A21800  29.490  13.080  17.780
  909BOLB   C1B21801  28.870  14.150  17.270
  909BOLB   C2B21802  29.210  14.470  17.410
  909BOLB   C3B21803  29.570  14.510  17.770
  909BOLB   C4B21804  30.010  14.790  17.800
  909BOLB   NC221805  30.790  14.010  19.700
  909BOLB   PO221806  30.850  13.690  19.380
  909BOLB   GL321807  30.730  13.410  19.150
  909BOLB   GL421808  31.000  13.390  18.950
  909BOLB   C1C21809  30.440  13.520  18.820
  909BOLB   C2C21810  30.210  13.290  18.480
  909BOLB   C3C21811  29.920  12.950  18.460
  909BOLB   C4C21812  29.660  12.780  18.140
  909BOLB   C1D21813  30.830  13.490  18.540
  909BOLB   C2D21814  30.620  13.480  18.160
  909BOLB   C3D21815  30.240  13.330  17.990
  909BOLB   C4D21816  30.100  13.130  17.720
  910BOLB   NC121817  18.320  23.690   4.640
  910BOLB   PO121818  18.710  23.520   4.870
  910BOLB   GL121819  18.650  23.450   5.330
  910BOLB   GL221820  18.630  23.170   5.350
  910BOLB   C1A21821  18.810  23.240   5.810
  910BOLB   C2A21822  19.130  23.090   6.070
  910BOLB   C3A21823  19.240  22.650   6.040
  910BOLB   C4A21824  19.040  22.310   6.210
  910BOLB   C1B21825  18.470  22.890   5.730
  910BOLB   C2B21826  18.310  22.500   5.870
  910BOLB   C3B21827  18.200  22.280   6.240
  910BOLB   C4B21828  18.170  21.840   6.270
  910BOLB   NC221829  17.700  23.860   5.070
  910BOLB   PO221830  17.640  23.460   5.070
  910BOLB   GL321831  17.800  23.130   5.320
  910BOLB   GL421832  17.660  22.920   5.240
  910BOLB   C1C21833  18.190  22.850   5.310
  910BOLB   C2C21834  18.360  22.390   5.380
  910BOLB   C3C21835  18.550  22.010   5.720
  910BOLB   C4C21836  18.680  22.060   6.150
  910BOLB   C1D21837  17.460  22.780   5.620
  910BOLB   C2D21838  17.310  22.660   6.110
  910BOLB   C3D21839  17.100  22.450   6.570
  910BOLB   C4D21840  17.180  22.390   6.980
  911BOLB   NC121841  23.500  16.630  19.050
  911BOLB   PO121842  23.300  16.860  19.400
  911BOLB   GL121843  23.560  17.010  19.680
  911BOLB   GL221844  23.840  17.210  19.590
  911BOLB   C1A21845  23.890  17.030  20.060
  911BOLB   C2A21846  23.980  17.280  20.450
  911BOLB   C3A21847  23.930  17.580  20.810
  911BOLB   C4A21848  23.770  17.560  21.200
  911BOLB   C1B21849  23.950  17.500  19.560
  911BOLB   C2B21850  24.170  17.830  19.880
  911BOLB   C3B21851  24.480  17.920  20.140
  911BOLB   C4B21852  24.700  18.060  20.450
  911BOLB   NC221853  24.830  17.300  23.360
  911BOLB   PO221854  24.300  17.410  23.440
  911BOLB   GL321855  24.290  17.320  23.050
  911BOLB   GL421856  24.580  17.470  22.930
  911BOLB   C1C21857  24.090  17.540  22.830
  911BOLB   C2C21858  23.910  17.490  22.370
  911BOLB   C3C21859  23.910  17.440  21.860
  911BOLB   C4C21860  23.720  17.340  21.550
  911BOLB   C1D21861  24.470  17.360  22.550
  911BOLB   C2D21862  24.320  17.340  22.100
  911BOLB   C3D21863  24.500  17.090  21.870
  911BOLB   C4D21864  24.700  17.170  21.580
  912BOLB   NC121865  15.090  21.460  16.760
  912BOLB   PO121866  14.730  21.640  16.460
  912BOLB   GL121867  14.460  22.030  16.520
  912BOLB   GL221868  14.600  22.230  16.220
  912BOLB   C1A21869  14.180  22.330  16.500
  912BOLB   C2A21870  13.980  22.740  16.460
  912BOLB   C3A21871  14.160  23.070  16.460
  912BOLB   C4A21872  14.150  23.490  16.290
  912BOLB   C1B21873  14.500  22.690  16.390
  912BOLB   C2B21874  14.400  22.820  16.820
  912BOLB   C3B21875  14.210  23.040  17.120
  912BOLB   C4B21876  13.880  23.040  17.320
  912BOLB   NC221877  13.420  25.890  16.530
  912BOLB   PO221878  13.050  25.580  16.480
  912BOLB   GL321879  13.390  25.400  16.450
  912BOLB   GL421880  13.730  25.490  16.550
  912BOLB   C1C21881  13.380  24.930  16.370
  912BOLB   C2C21882  13.710  24.590  16.190
  912BOLB   C3C21883  13.940  24.260  16.260
  912BOLB   C4C21884  14.110  23.920  16.160
  912BOLB   C1D21885  13.900  25.080  16.450
  912BOLB   C2D21886  14.170  24.740  16.160
  912BOLB   C3D21887  14.080  24.460  15.810
  912BOLB   C4D21888  13.740  24.390  15.470
  913BOLB   NC121889  15.450   7.250  12.520
  913BOLB   PO121890  15.410   6.770  12.510
  913BOLB   GL121891  15.420   6.350  12.350
  913BOLB   GL221892  15.030   6.430  12.300
  913BOLB   C1A21893  15.240   5.950  12.320
  913BOLB   C2A21894  14.870   5.540  12.220
  913BOLB   C3A21895  14.750   5.200  12.030
  913BOLB   C4A21896  14.780   4.970  11.680
  913BOLB   C1B21897  14.960   6.180  11.960
  913BOLB   C2B21898  14.940   5.800  11.730
  913BOLB   C3B21899  14.730   5.520  11.550
  913BOLB   C4B21900  14.490   5.180  11.360
  913BOLB   NC221901  14.090   3.560   9.990
  913BOLB   PO221902  13.730   3.700   9.920
  913BOLB   GL321903  13.850   4.030  10.220
  913BOLB   GL421904  13.890   3.810  10.420
  913BOLB   C1C21905  14.050   4.230  10.610
  913BOLB   C2C21906  14.250   4.430  10.750
  913BOLB   C3C21907  14.570   4.680  10.800
  913BOLB   C4C21908  14.830   4.850  11.190
  913BOLB   C1D21909  14.390   4.010  10.280
  913BOLB   C2D21910  14.710   3.730  10.520
  913BOLB   C3D21911  15.160   3.900  10.680
  913BOLB   C4D21912  15.500   4.240  10.770
  914BOLB   NC121913  21.790   7.040  18.450
  914BOLB   PO121914  22.080   6.800  18.190
  914BOLB   GL121915  22.310   6.850  18.510
  914BOLB   GL221916  22.190   7.020  18.790
  914BOLB   C1A21917  22.580   6.630  18.730
  914BOLB   C2A21918  22.820   6.370  18.960
  914BOLB   C3A21919  23.030   6.060  19.270
  914BOLB   C4A21920  23.260   5.930  19.550
  914BOLB   C1B21921  22.330   6.930  19.120
  914BOLB   C2B21922  22.320   6.510  19.380
  914BOLB   C3B21923  22.450   6.070  19.500
  914BOLB   C4B21924  22.540   5.780  19.760
  914BOLB   NC221925  24.630   4.140  21.080
  914BOLB   PO221926  24.360   4.080  20.740
  914BOLB   GL321927  24.130   4.320  20.490
  914BOLB   GL421928  24.070   4.180  20.220
  914BOLB   C1C21929  23.820   4.590  20.380
  914BOLB   C2C21930  23.780   4.800  19.980
  914BOLB   C3C21931  23.620   5.120  19.660
  914BOLB   C4C21932  23.520   5.520  19.700
  914BOLB   C1D21933  24.030   4.400  19.880
  914BOLB   C2D21934  24.230   4.720  19.890
  914BOLB   C3D21935  24.230   5.090  19.750
  914BOLB   C4D21936  24.250   5.520  19.520
  915BOLB   NC121937  20.340   6.250  11.010
  915BOLB   PO121938  20.490   6.620  10.800
  915BOLB   GL121939  20.350   6.450  10.310
  915BOLB   GL221940  20.330   6.050  10.340
  915BOLB   C1A21941  20.380   6.220   9.860
  915BOLB   C2A21942  20.610   6.420   9.510
  915BOLB   C3A21943  20.490   6.420   9.070
  915BOLB   C4A21944  20.490   6.130   8.600
  915BOLB   C1B21945  20.480   5.780   9.950
  915BOLB   C2B21946  20.810   5.420   9.800
  915BOLB   C3B21947  21.190   5.140   9.660
  915BOLB   C4B21948  21.630   5.040   9.590
  915BOLB   NC221949  20.250   5.190   6.050
  915BOLB   PO221950  20.120   5.090   6.540
  915BOLB   GL321951  20.270   5.320   6.940
  915BOLB   GL421952  20.140   4.980   7.090
  915BOLB   C1C21953  20.170   5.670   7.170
  915BOLB   C2C21954  20.190   5.930   7.420
  915BOLB   C3C21955  20.150   5.800   7.840
  915BOLB   C4C21956  20.380   5.950   8.170
  915BOLB   C1D21957  19.770   5.230   7.130
  915BOLB   C2D21958  19.710   5.520   7.540
  915BOLB   C3D21959  19.590   5.950   7.820
  915BOLB   C4D21960  19.160   6.240   7.770
  916BOLB   NC121961  25.180   7.980  17.990
  916BOLB   PO121962  25.640   7.880  17.830
  916BOLB   GL121963  25.640   7.700  18.180
  916BOLB   GL221964  25.740   7.330  18.180
  916BOLB   C1A21965  25.790   7.570  18.670
  916BOLB   C2A21966  25.730   7.290  19.000
  916BOLB   C3A21967  25.650   7.150  19.410
  916BOLB   C4A21968  25.400   6.960  19.690
  916BOLB   C1B21969  25.940   6.960  18.610
  916BOLB   C2B21970  25.960   6.540  18.600
  916BOLB   C3B21971  25.730   6.260  18.400
  916BOLB   C4B21972  25.460   5.950  18.460
  916BOLB   NC221973  24.910   5.740  22.130
  916BOLB   PO221974  24.880   5.540  21.730
  916BOLB   GL321975  24.810   5.880  21.360
  916BOLB   GL421976  24.420   6.120  21.370
  916BOLB   C1C21977  25.080   6.100  21.020
  916BOLB   C2C21978  25.470   6.320  20.840
  916BOLB   C3C21979  25.330   6.570  20.460
  916BOLB   C4C21980  25.390   6.740  20.080
  916BOLB   C1D21981  24.260   6.260  21.070
  916BOLB   C2D21982  23.890   6.110  20.800
  916BOLB   C3D21983  23.510   6.120  20.910
  916BOLB   C4D21984  23.120   6.340  21.110
  917BOLB   NC121985  25.910   5.250  20.970
  917BOLB   PO121986  25.550   5.040  21.250
  917BOLB   GL121987  25.400   5.070  20.780
  917BOLB   GL221988  25.540   4.910  20.450
  917BOLB   C1A21989  25.170   5.320  20.530
  917BOLB   C2A21990  24.930   5.550  20.130
  917BOLB   C3A21991  24.920   5.970  20.030
  917BOLB   C4A21992  24.710   6.340  20.170
  917BOLB   C1B21993  25.700   5.080  20.040
  917BOLB   C2B21994  25.910   5.300  19.640
  917BOLB   C3B21995  25.870   5.480  19.190
  917BOLB   C4B21996  25.610   5.530  18.750
  917BOLB   NC221997  25.000   6.270  22.200
  917BOLB   PO221998  25.160   6.080  21.800
  917BOLB   GL321999  25.110   6.350  21.570
  917BOLB   GL422000  25.340   6.460  21.320
  917BOLB   C1C22001  24.810   6.450  21.280
  917BOLB   C2C22002  24.570   6.760  21.020
  917BOLB   C3C22003  24.390   6.810  20.680
  917BOLB   C4C22004  24.490   6.700  20.220
  917BOLB   C1D22005  25.080   6.630  20.890
  917BOLB   C2D22006  24.880   6.740  20.540
  917BOLB   C3D22007  24.710   7.110  20.390
  917BOLB   C4D22008  24.620   7.230  19.990
  918BOLB   NC122009  13.830   8.530  10.810
  918BOLB   PO122010  14.260   8.420  11.020
  918BOLB   GL122011  13.950   7.980  10.930
  918BOLB   GL222012  13.770   8.060  10.610
  918BOLB   C1A22013  13.930   7.610  10.670
  918BOLB   C2A22014  13.990   7.450  10.190
  918BOLB   C3A22015  13.920   7.310   9.860
  918BOLB   C4A22016  13.950   6.960   9.640
  918BOLB   C1B22017  13.530   7.820  10.320
  918BOLB   C2B22018  13.250   7.800  10.000
  918BOLB   C3B22019  13.100   7.910   9.590
  918BOLB   C4B22020  13.260   8.060   9.250
  918BOLB   NC222021  12.580   5.750   7.860
  918BOLB   PO222022  12.850   5.700   8.100
  918BOLB   GL322023  13.160   5.990   8.060
  918BOLB   GL422024  13.570   5.920   7.980
  918BOLB   C1C22025  13.320   6.390   8.300
  918BOLB   C2C22026  13.540   6.500   8.750
  918BOLB   C3C22027  13.440   6.460   9.180
  918BOLB   C4C22028  13.550   6.760   9.420
  918BOLB   C1D22029  13.810   6.240   8.130
  918BOLB   C2D22030  13.900   6.550   8.460
  918BOLB   C3D22031  14.200   6.730   8.700
  918BOLB   C4D22032  14.590   6.980   8.770
  919BOLB   NC122033  11.140  14.560  10.830
  919BOLB   PO122034  11.190  14.680  10.390
  919BOLB   GL122035  11.080  14.430   9.990
  919BOLB   GL222036  10.870  14.650   9.890
  919BOLB   C1A22037  11.040  14.160   9.730
  919BOLB   C2A22038  10.730  13.880   9.770
  919BOLB   C3A22039  10.300  13.750   9.620
  919BOLB   C4A22040   9.880  13.690   9.640
  919BOLB   C1B22041  10.440  14.760   9.820
  919BOLB   C2B22042  10.250  15.090   9.700
  919BOLB   C3B22043   9.800  15.160   9.780
  919BOLB   C4B22044   9.330  14.960   9.810
  919BOLB   NC222045   7.760  13.430   9.130
  919BOLB   PO222046   7.930  13.010   8.970
  919BOLB   GL322047   8.230  12.940   9.200
  919BOLB   GL422048   8.520  12.830   8.920
  919BOLB   C1C22049   8.630  12.920   9.360
  919BOLB   C2C22050   9.050  13.010   9.370
  919BOLB   C3C22051   9.270  13.280   9.260
  919BOLB   C4C22052   9.530  13.490   9.390
  919BOLB   C1D22053   8.840  13.250   8.980
  919BOLB   C2D22054   8.870  13.530   9.280
  919BOLB   C3D22055   8.740  13.930   9.360
  919BOLB   C4D22056   8.770  14.270   9.410
  920BOLB   NC122057  13.030  20.610  11.930
  920BOLB   PO122058  12.780  20.260  12.080
  920BOLB   GL122059  12.450  20.580  12.090
  920BOLB   GL222060  12.250  20.380  11.790
  920BOLB   C1A22061  12.210  20.900  11.730
  920BOLB   C2A22062  12.120  21.160  11.410
  920BOLB   C3A22063  12.160  21.500  11.170
  920BOLB   C4A22064  11.890  21.830  11.080
  920BOLB   C1B22065  11.950  20.590  11.450
  920BOLB   C2B22066  11.520  20.760  11.400
  920BOLB   C3B22067  11.300  21.080  11.100
  920BOLB   C4B22068  11.330  21.350  10.780
  920BOLB   NC222069  10.080  23.220  10.260
  920BOLB   PO222070  10.070  23.260  10.700
  920BOLB   GL322071  10.430  23.040  10.580
  920BOLB   GL422072  10.660  23.240  10.500
  920BOLB   C1C22073  10.790  22.820  10.770
  920BOLB   C2C22074  11.040  22.770  11.150
  920BOLB   C3C22075  11.440  22.630  11.220
  920BOLB   C4C22076  11.740  22.270  11.190
  920BOLB   C1D22077  11.140  23.250  10.860
  920BOLB   C2D22078  11.320  23.170  11.220
  920BOLB   C3D22079  11.590  22.980  11.540
  920BOLB   C4D22080  11.770  22.620  11.640
  921BOLB   NC122081  15.960  20.410   8.770
  921BOLB   PO122082  15.990  20.180   8.390
  921BOLB   GL122083  16.100  20.470   8.110
  921BOLB   GL222084  16.430  20.420   8.010
  921BOLB   C1A22085  15.950  20.690   7.810
  921BOLB   C2A22086  15.970  20.820   7.370
  921BOLB   C3A22087  15.840  20.890   6.970
  921BOLB   C4A22088  15.620  21.150   6.950
  921BOLB   C1B22089  16.470  20.660   7.610
  921BOLB   C2B22090  16.490  20.870   7.300
  921BOLB   C3B22091  16.380  21.150   7.080
  921BOLB   C4B22092  16.110  21.540   6.940
  921BOLB   NC222093  13.910  22.760   6.440
  921BOLB   PO222094  14.200  22.890   6.240
  921BOLB   GL322095  14.360  22.550   6.410
  921BOLB   GL422096  14.220  22.220   6.200
  921BOLB   C1C22097  14.620  22.350   6.640
  921BOLB   C2C22098  14.730  21.950   6.840
  921BOLB   C3C22099  14.860  21.550   6.880
  921BOLB   C4C22100  15.250  21.280   6.990
  921BOLB   C1D22101  14.320  21.750   6.110
  921BOLB   C2D22102  14.340  21.460   6.350
  921BOLB   C3D22103  14.320  21.100   6.760
  921BOLB   C4D22104  14.530  21.140   7.120
  922BOLB   NC122105  11.910  19.830  12.650
  922BOLB   PO122106  12.180  19.690  12.270
  922BOLB   GL122107  11.890  19.940  12.090
  922BOLB   GL222108  11.840  20.150  12.310
  922BOLB   C1A22109  11.740  20.280  11.800
  922BOLB   C2A22110  11.370  20.520  11.840
  922BOLB   C3A22111  11.010  20.580  11.900
  922BOLB   C4A22112  10.710  20.810  11.950
  922BOLB   C1B22113  11.500  20.360  12.330
  922BOLB   C2B22114  11.290  20.830  12.250
  922BOLB   C3B22115  10.910  21.030  12.480
  922BOLB   C4B22116  10.500  21.020  12.790
  922BOLB   NC222117   9.240  22.880  11.760
  922BOLB   PO222118   9.060  22.410  11.920
  922BOLB   GL322119   9.370  22.190  11.750
  922BOLB   GL422120   9.600  22.490  11.530
  922BOLB   C1C22121   9.530  21.840  11.660
  922BOLB   C2C22122   9.840  21.460  11.690
  922BOLB   C3C22123  10.040  21.210  11.700
  922BOLB   C4C22124  10.340  20.930  11.700
  922BOLB   C1D22125   9.870  22.130  11.410
  922BOLB   C2D22126  10.150  21.790  11.630
  922BOLB   C3D22127  10.480  21.640  11.870
  922BOLB   C4D22128  10.820  21.320  11.940
  923BOLB   NC122129  13.360  14.980  18.550
  923BOLB   PO122130  13.420  14.670  18.380
  923BOLB   GL122131  12.980  14.730  18.680
  923BOLB   GL222132  12.660  14.670  18.610
  923BOLB   C1A22133  12.870  14.430  19.060
  923BOLB   C2A22134  12.800  14.430  19.520
  923BOLB   C3A22135  12.760  14.200  19.870
  923BOLB   C4A22136  12.570  14.090  20.280
  923BOLB   C1B22137  12.530  14.840  18.980
  923BOLB   C2B22138  12.440  14.730  19.310
  923BOLB   C3B22139  12.330  14.510  19.730
  923BOLB   C4B22140  11.970  14.530  19.870
  923BOLB   NC222141  11.670  13.790  22.910
  923BOLB   PO222142  11.940  13.670  22.530
  923BOLB   GL322143  11.990  13.460  22.200
  923BOLB   GL422144  12.170  13.140  22.180
  923BOLB   C1C22145  11.950  13.550  21.780
  923BOLB   C2C22146  12.030  13.530  21.420
  923BOLB   C3C22147  12.170  13.790  20.940
  923BOLB   C4C22148  12.410  13.990  20.680
  923BOLB   C1D22149  12.490  12.890  21.870
  923BOLB   C2D22150  12.730  12.930  21.500
  923BOLB   C3D22151  12.900  13.160  21.170
  923BOLB   C4D22152  13.310  13.230  20.880
  924BOLB   NC122153  18.520  14.030   7.520
  924BOLB   PO122154  18.620  13.940   7.160
  924BOLB   GL122155  18.500  13.800   6.860
  924BOLB   GL222156  18.610  13.380   6.900
  924BOLB   C1A22157  18.420  13.790   6.420
  924BOLB   C2A22158  18.330  13.990   5.980
  924BOLB   C3A22159  18.370  14.090   5.530
  924BOLB   C4A22160  18.470  13.940   5.130
  924BOLB   C1B22161  18.790  13.480   6.460
  924BOLB   C2B22162  18.800  13.670   6.080
  924BOLB   C3B22163  18.970  13.830   5.770
  924BOLB   C4B22164  19.230  14.080   5.430
  924BOLB   NC222165  16.900  13.690   2.830
  924BOLB   PO222166  17.250  13.640   3.170
  924BOLB   GL322167  17.160  13.730   3.610
  924BOLB   GL422168  16.770  13.810   3.830
  924BOLB   C1C22169  17.340  13.680   4.000
  924BOLB   C2C22170  17.660  13.670   4.310
  924BOLB   C3C22171  17.910  13.960   4.550
  924BOLB   C4C22172  18.270  13.910   4.750
  924BOLB   C1D22173  16.930  14.020   4.190
  924BOLB   C2D22174  17.230  13.880   4.560
  924BOLB   C3D22175  17.410  14.130   4.880
  924BOLB   C4D22176  17.410  14.470   5.100
  925BOLB   NC122177  23.300  24.520   7.140
  925BOLB   PO122178  23.490  24.420   6.800
  925BOLB   GL122179  23.500  24.070   7.020
  925BOLB   GL222180  23.750  24.000   7.220
  925BOLB   C1A22181  23.240  23.810   7.290
  925BOLB   C2A22182  23.200  23.620   7.700
  925BOLB   C3A22183  22.860  23.480   7.920
  925BOLB   C4A22184  22.450  23.530   7.850
  925BOLB   C1B22185  23.840  23.680   7.490
  925BOLB   C2B22186  23.620  23.340   7.680
  925BOLB   C3B22187  23.250  23.060   7.830
  925BOLB   C4B22188  22.870  22.960   7.950
  925BOLB   NC222189  22.760  25.720   7.470
  925BOLB   PO222190  22.730  25.890   7.920
  925BOLB   GL322191  22.700  25.500   7.890
  925BOLB   GL422192  22.530  25.330   7.600
  925BOLB   C1C22193  22.620  24.990   8.020
  925BOLB   C2C22194  22.260  24.640   8.050
  925BOLB   C3C22195  22.160  24.190   7.960
  925BOLB   C4C22196  22.250  23.790   7.940
  925BOLB   C1D22197  22.380  24.920   7.610
  925BOLB   C2D22198  22.470  24.520   7.350
  925BOLB   C3D22199  22.410  24.000   7.460
  925BOLB   C4D22200  21.940  23.770   7.540
  926BOLB   NC122201  18.620  19.680   8.270
  926BOLB   PO122202  18.540  19.700   7.800
  926BOLB   GL122203  18.480  19.950   7.470
  926BOLB   GL222204  18.400  20.240   7.340
  926BOLB   C1A22205  18.540  20.020   6.920
  926BOLB   C2A22206  18.350  20.090   6.530
  926BOLB   C3A22207  18.340  20.560   6.290
  926BOLB   C4A22208  18.350  20.770   5.900
  926BOLB   C1B22209  18.290  20.520   7.080
  926BOLB   C2B22210  18.430  20.760   6.730
  926BOLB   C3B22211  18.610  21.170   6.650
  926BOLB   C4B22212  18.590  21.590   6.500
  926BOLB   NC222213  17.540  20.120   3.430
  926BOLB   PO222214  17.280  20.400   3.670
  926BOLB   GL322215  17.130  20.550   4.060
  926BOLB   GL422216  17.130  20.340   4.230
  926BOLB   C1C22217  17.280  20.870   4.440
  926BOLB   C2C22218  17.520  20.890   4.830
  926BOLB   C3C22219  17.840  20.870   5.250
  926BOLB   C4C22220  18.130  20.670   5.530
  926BOLB   C1D22221  17.350  20.260   4.580
  926BOLB   C2D22222  17.490  20.060   5.010
  926BOLB   C3D22223  17.410  19.880   5.520
  926BOLB   C4D22224  16.980  19.640   5.460
  927BOLB   NC122225  17.320  27.410  13.700
  927BOLB   PO122226  17.440  27.550  14.060
  927BOLB   GL122227  17.350  27.110  14.100
  927BOLB   GL222228  17.230  26.980  14.380
  927BOLB   C1A22229  17.490  26.790  14.060
  927BOLB   C2A22230  17.530  26.350  13.950
  927BOLB   C3A22231  17.770  26.160  13.800
  927BOLB   C4A22232  17.960  25.700  13.650
  927BOLB   C1B22233  17.050  26.600  14.250
  927BOLB   C2B22234  16.760  26.210  14.400
  927BOLB   C3B22235  16.780  25.800  14.570
  927BOLB   C4B22236  16.530  25.380  14.630
  927BOLB   NC222237  17.910  23.000  14.110
  927BOLB   PO222238  17.760  23.450  14.060
  927BOLB   GL322239  17.710  24.000  14.090
  927BOLB   GL422240  17.510  24.220  14.210
  927BOLB   C1C22241  17.940  24.340  14.230
  927BOLB   C2C22242  17.720  24.690  14.200
  927BOLB   C3C22243  17.720  25.070  14.000
  927BOLB   C4C22244  18.040  25.450  13.910
  927BOLB   C1D22245  17.300  24.400  14.640
  927BOLB   C2D22246  17.480  24.740  14.700
  927BOLB   C3D22247  17.560  25.120  14.840
  927BOLB   C4D22248  17.820  25.410  15.110
  928BOLB   NC122249  12.280  20.450  13.750
  928BOLB   PO122250  12.200  20.650  14.040
  928BOLB   GL122251  11.920  21.050  13.930
  928BOLB   GL222252  11.970  21.190  13.770
  928BOLB   C1A22253  11.490  21.160  14.230
  928BOLB   C2A22254  11.030  21.280  14.140
  928BOLB   C3A22255  10.820  21.370  13.750
  928BOLB   C4A22256  10.660  21.620  13.370
  928BOLB   C1B22257  11.840  21.560  13.730
  928BOLB   C2B22258  11.820  22.030  13.760
  928BOLB   C3B22259  11.740  22.510  13.760
  928BOLB   C4B22260  11.640  22.950  13.730
  928BOLB   NC222261   9.660  23.900  12.890
  928BOLB   PO222262   9.290  23.560  12.950
  928BOLB   GL322263   9.820  23.370  12.820
  928BOLB   GL422264  10.040  23.600  13.050
  928BOLB   C1C22265  10.250  23.120  12.770
  928BOLB   C2C22266  10.420  22.720  12.890
  928BOLB   C3C22267  10.530  22.350  13.000
  928BOLB   C4C22268  10.480  21.880  13.030
  928BOLB   C1D22269  10.090  23.520  13.530
  928BOLB   C2D22270  10.410  23.270  13.560
  928BOLB   C3D22271  10.750  23.210  13.840
  928BOLB   C4D22272  11.020  22.770  13.900
  929BOLB   NC122273  18.610   8.490   4.440
  929BOLB   PO122274  18.270   8.640   4.560
  929BOLB   GL122275  18.110   8.720   4.980
  929BOLB   GL222276  18.340   8.600   5.300
  929BOLB   C1A22277  17.960   9.020   5.190
  929BOLB   C2A22278  17.640   9.040   5.590
  929BOLB   C3A22279  17.540   8.830   5.850
  929BOLB   C4A22280  17.250   8.590   6.030
  929BOLB   C1B22281  18.460   9.100   5.290
  929BOLB   C2B22282  18.660   9.450   5.440
  929BOLB   C3B22283  18.950   9.780   5.240
  929BOLB   C4B22284  19.220   9.870   5.360
  929BOLB   NC222285  16.140   6.540   5.530
  929BOLB   PO222286  15.940   6.830   5.830
  929BOLB   GL322287  16.000   7.230   5.980
  929BOLB   GL422288  16.310   7.170   6.010
  929BOLB   C1C22289  16.120   7.600   6.180
  929BOLB   C2C22290  16.450   7.750   6.270
  929BOLB   C3C22291  16.690   8.040   5.960
  929BOLB   C4C22292  16.920   8.410   5.940
  929BOLB   C1D22293  16.620   7.250   6.300
  929BOLB   C2D22294  16.810   7.240   6.710
  929BOLB   C3D22295  16.860   7.590   6.940
  929BOLB   C4D22296  16.520   7.640   7.170
  930BOLB   NC122297  16.640   5.010  14.270
  930BOLB   PO122298  16.720   4.940  14.740
  930BOLB   GL122299  16.780   4.650  15.030
  930BOLB   GL222300  16.780   4.690  15.360
  930BOLB   C1A22301  16.310   4.540  15.080
  930BOLB   C2A22302  16.180   4.240  15.080
  930BOLB   C3A22303  16.060   3.990  14.940
  930BOLB   C4A22304  16.160   3.730  14.600
  930BOLB   C1B22305  16.500   4.350  15.480
  930BOLB   C2B22306  16.240   4.010  15.550
  930BOLB   C3B22307  16.070   3.610  15.470
  930BOLB   C4B22308  16.230   3.240  15.650
  930BOLB   NC222309  15.600   1.810  12.920
  930BOLB   PO222310  15.810   1.560  13.340
  930BOLB   GL322311  16.140   1.800  13.540
  930BOLB   GL422312  16.420   1.810  13.470
  930BOLB   C1C22313  16.210   2.000  14.030
  930BOLB   C2C22314  16.240   2.400  14.100
  930BOLB   C3C22315  16.270   2.750  14.430
  930BOLB   C4C22316  16.340   3.240  14.540
  930BOLB   C1D22317  16.340   2.240  13.640
  930BOLB   C2D22318  16.190   2.630  13.570
  930BOLB   C3D22319  16.470   3.020  13.480
  930BOLB   C4D22320  16.380   3.390  13.370
  931BOLB   NC122321  13.430  10.610  10.250
  931BOLB   PO122322  13.380  11.070  10.170
  931BOLB   GL122323  13.040  10.870   9.950
  931BOLB   GL222324  13.180  10.600   9.770
  931BOLB   C1A22325  12.660  10.660  10.100
  931BOLB   C2A22326  12.230  10.560   9.830
  931BOLB   C3A22327  11.990  10.260   9.730
  931BOLB   C4A22328  11.560  10.200   9.650
  931BOLB   C1B22329  12.740  10.590   9.570
  931BOLB   C2B22330  12.620  10.510   9.180
  931BOLB   C3B22331  12.510  10.430   8.780
  931BOLB   C4B22332  12.340  10.380   8.410
  931BOLB   NC222333   9.690   9.230   8.010
  931BOLB   PO222334   9.980   9.490   8.280
  931BOLB   GL322335  10.070   9.950   8.340
  931BOLB   GL422336   9.890  10.180   7.930
  931BOLB   C1C22337  10.450  10.220   8.280
  931BOLB   C2C22338  10.910  10.220   8.440
  931BOLB   C3C22339  11.130  10.080   8.850
  931BOLB   C4C22340  11.260  10.000   9.300
  931BOLB   C1D22341   9.820  10.320   8.470
  931BOLB   C2D22342  10.250  10.460   8.740
  931BOLB   C3D22343  10.570  10.260   8.800
  931BOLB   C4D22344  10.760  10.010   9.160
  932BOLB   NC122345  13.140  21.720  12.920
  932BOLB   PO122346  13.300  21.900  13.290
  932BOLB   GL122347  13.140  22.220  13.450
  932BOLB   GL222348  13.310  22.480  13.280
  932BOLB   C1A22349  12.780  22.540  13.410
  932BOLB   C2A22350  12.450  22.680  13.150
  932BOLB   C3A22351  12.140  22.640  12.840
  932BOLB   C4A22352  11.730  22.520  12.720
  932BOLB   C1B22353  13.260  22.910  13.160
  932BOLB   C2B22354  13.380  23.250  13.410
  932BOLB   C3B22355  13.390  23.640  13.290
  932BOLB   C4B22356  13.430  24.040  13.480
  932BOLB   NC222357   9.600  24.210  13.620
  932BOLB   PO222358   9.860  24.210  13.240
  932BOLB   GL322359  10.310  24.010  13.190
  932BOLB   GL422360  10.460  24.120  12.840
  932BOLB   C1C22361  10.530  23.640  13.160
  932BOLB   C2C22362  10.670  23.150  13.090
  932BOLB   C3C22363  10.960  22.740  13.100
  932BOLB   C4C22364  11.350  22.560  12.880
  932BOLB   C1D22365  10.780  23.850  12.810
  932BOLB   C2D22366  11.000  23.690  13.130
  932BOLB   C3D22367  10.990  23.440  13.400
  932BOLB   C4D22368  11.180  23.050  13.430
  933BOLB   NC122369   7.440  15.140   8.440
  933BOLB   PO122370   7.560  15.310   8.800
  933BOLB   GL122371   7.910  15.180   8.990
  933BOLB   GL222372   7.890  14.880   9.100
  933BOLB   C1A22373   8.160  15.500   9.290
  933BOLB   C2A22374   8.390  15.830   9.400
  933BOLB   C3A22375   8.530  15.660   9.860
  933BOLB   C4A22376   8.870  15.400  10.020
  933BOLB   C1B22377   8.210  14.610   9.410
  933BOLB   C2B22378   8.480  14.630   9.710
  933BOLB   C3B22379   8.840  14.610   9.860
  933BOLB   C4B22380   9.220  14.490   9.560
  933BOLB   NC222381   7.560  16.150   9.010
  933BOLB   PO222382   7.430  15.980   9.360
  933BOLB   GL322383   7.650  15.710   9.610
  933BOLB   GL422384   7.900  16.020   9.660
  933BOLB   C1C22385   7.930  15.480   9.880
  933BOLB   C2C22386   8.330  15.170   9.990
  933BOLB   C3C22387   8.600  14.950  10.170
  933BOLB   C4C22388   8.960  15.100  10.110
  933BOLB   C1D22389   8.050  16.010  10.040
  933BOLB   C2D22390   8.520  15.980  10.230
  933BOLB   C3D22391   8.890  15.770  10.300
  933BOLB   C4D22392   9.260  15.760  10.140
  934BOLB   NC122393  19.640  15.050   7.640
  934BOLB   PO122394  19.340  15.160   7.270
  934BOLB   GL122395  19.270  15.210   6.810
  934BOLB   GL222396  19.180  15.540   6.670
  934BOLB   C1A22397  19.530  15.190   6.390
  934BOLB   C2A22398  19.560  15.440   5.960
  934BOLB   C3A22399  19.700  15.370   5.570
  934BOLB   C4A22400  19.770  15.520   5.210
  934BOLB   C1B22401  19.220  15.680   6.310
  934BOLB   C2B22402  19.140  15.680   5.820
  934BOLB   C3B22403  19.060  15.590   5.350
  934BOLB   C4B22404  19.000  15.580   4.850
  934BOLB   NC222405  18.500  15.790   2.850
  934BOLB   PO222406  18.860  15.810   3.100
  934BOLB   GL322407  19.240  15.820   3.390
  934BOLB   GL422408  19.550  16.040   3.290
  934BOLB   C1C22409  19.500  15.810   3.750
  934BOLB   C2C22410  19.430  16.010   4.070
  934BOLB   C3C22411  19.350  15.910   4.500
  934BOLB   C4C22412  19.440  15.790   4.900
  934BOLB   C1D22413  19.140  16.230   3.660
  934BOLB   C2D22414  18.910  16.400   3.980
  934BOLB   C3D22415  18.960  16.740   4.260
  934BOLB   C4D22416  19.120  17.210   4.200
  935BOLB   NC122417  14.360  20.900  16.940
  935BOLB   PO122418  14.010  20.700  16.770
  935BOLB   GL122419  13.750  20.680  17.150
  935BOLB   GL222420  13.450  20.630  17.280
  935BOLB   C1A22421  13.610  21.170  17.320
  935BOLB   C2A22422  13.540  21.550  17.540
  935BOLB   C3A22423  13.520  21.890  17.740
  935BOLB   C4A22424  13.640  22.150  18.100
  935BOLB   C1B22425  13.410  20.810  17.600
  935BOLB   C2B22426  13.370  21.190  17.840
  935BOLB   C3B22427  13.530  21.500  18.110
  935BOLB   C4B22428  13.840  21.730  18.480
  935BOLB   NC222429  14.200  23.890  19.960
  935BOLB   PO222430  14.330  23.990  19.500
  935BOLB   GL322431  14.450  23.520  19.350
  935BOLB   GL422432  14.490  23.460  19.680
  935BOLB   C1C22433  14.390  23.110  19.380
  935BOLB   C2C22434  14.270  22.730  19.070
  935BOLB   C3C22435  14.130  22.570  18.630
  935BOLB   C4C22436  13.900  22.240  18.510
  935BOLB   C1D22437  14.880  23.190  19.780
  935BOLB   C2D22438  15.060  22.970  19.440
  935BOLB   C3D22439  15.120  22.460  19.460
  935BOLB   C4D22440  15.040  22.030  19.290
  936BOLB   NC122441  12.830  12.100   9.980
  936BOLB   PO122442  12.810  11.800  10.310
  936BOLB   GL122443  12.390  11.850  10.110
  936BOLB   GL222444  12.110  12.040  10.390
  936BOLB   C1A22445  12.000  11.740   9.880
  936BOLB   C2A22446  11.550  11.900   9.640
  936BOLB   C3A22447  11.200  11.780   9.260
  936BOLB   C4A22448  10.800  11.740   9.180
  936BOLB   C1B22449  11.810  12.200  10.230
  936BOLB   C2B22450  11.380  12.250  10.250
  936BOLB   C3B22451  10.990  12.370  10.110
  936BOLB   C4B22452  10.770  12.500   9.700
  936BOLB   NC222453   8.780  10.590   8.770
  936BOLB   PO222454   9.020  10.800   8.420
  936BOLB   GL322455   9.210  11.100   8.710
  936BOLB   GL422456   9.120  10.960   8.910
  936BOLB   C1C22457   9.590  11.250   8.530
  936BOLB   C2C22458   9.830  11.520   8.810
  936BOLB   C3C22459  10.030  11.360   9.140
  936BOLB   C4C22460  10.390  11.390   9.240
  936BOLB   C1D22461   9.230  10.770   9.360
  936BOLB   C2D22462   9.420  10.680   9.690
  936BOLB   C3D22463   9.720  10.830   9.940
  936BOLB   C4D22464   9.960  11.190  10.120
  937BOLB   NC122465  14.970   6.980  12.430
  937BOLB   PO122466  15.110   6.870  12.050
  937BOLB   GL122467  15.020   6.600  11.710
  937BOLB   GL222468  14.970   6.760  11.420
  937BOLB   C1A22469  14.700   6.370  11.490
  937BOLB   C2A22470  14.500   6.060  11.310
  937BOLB   C3A22471  14.130   6.010  11.240
  937BOLB   C4A22472  13.890   5.920  10.800
  937BOLB   C1B22473  14.700   6.630  11.070
  937BOLB   C2B22474  14.760   6.240  10.750
  937BOLB   C3B22475  14.480   6.260  10.420
  937BOLB   C4B22476  14.190   6.580  10.330
  937BOLB   NC222477  12.020   4.940   9.860
  937BOLB   PO222478  11.960   5.320   9.580
  937BOLB   GL322479  12.380   5.300   9.770
  937BOLB   GL422480  12.440   5.620   9.830
  937BOLB   C1C22481  12.840   5.340   9.800
  937BOLB   C2C22482  13.180   5.230  10.070
  937BOLB   C3C22483  13.320   5.450  10.480
  937BOLB   C4C22484  13.520   5.780  10.530
  937BOLB   C1D22485  12.400   6.150   9.860
  937BOLB   C2D22486  12.500   6.580   9.800
  937BOLB   C3D22487  12.900   6.790   9.800
  937BOLB   C4D22488  13.040   7.200  10.010
  938BOLB   NC122489  15.940   5.650  15.650
  938BOLB   PO122490  15.630   5.360  15.520
  938BOLB   GL122491  15.550   4.940  15.620
  938BOLB   GL222492  15.250   4.770  15.540
  938BOLB   C1A22493  15.590   4.720  15.970
  938BOLB   C2A22494  15.350   4.570  16.230
  938BOLB   C3A22495  15.120   4.180  16.270
  938BOLB   C4A22496  14.950   3.760  16.220
  938BOLB   C1B22497  15.010   4.520  15.840
  938BOLB   C2B22498  14.840   4.110  15.800
  938BOLB   C3B22499  15.060   3.820  15.550
  938BOLB   C4B22500  15.130   3.600  15.140
  938BOLB   NC222501  13.830   1.600  15.950
  938BOLB   PO222502  13.710   1.860  15.710
  938BOLB   GL322503  13.950   2.230  15.500
  938BOLB   GL422504  14.220   2.060  15.310
  938BOLB   C1C22505  14.000   2.550  15.420
  938BOLB   C2C22506  14.260   2.880  15.610
  938BOLB   C3C22507  14.500   3.090  15.850
  938BOLB   C4C22508  14.720   3.430  16.040
  938BOLB   C1D22509  14.450   2.390  15.160
  938BOLB   C2D22510  14.630   2.750  15.250
  938BOLB   C3D22511  14.860   3.130  15.320
  938BOLB   C4D22512  14.710   3.490  15.480
  939BOLB   NC122513   9.220  23.340  13.790
  939BOLB   PO122514   9.580  23.160  13.590
  939BOLB   GL122515   9.600  22.720  13.540
  939BOLB   GL222516   9.650  22.510  13.760
  939BOLB   C1A22517   9.680  22.300  13.310
  939BOLB   C2A22518   9.890  21.860  13.290
  939BOLB   C3A22519  10.190  21.620  13.520
  939BOLB   C4A22520  10.500  21.660  13.860
  939BOLB   C1B22521   9.950  22.170  13.690
  939BOLB   C2B22522  10.310  22.090  13.470
  939BOLB   C3B22523  10.660  22.460  13.440
  939BOLB   C4B22524  10.630  22.830  13.470
  939BOLB   NC222525  10.180  23.950  14.560
  939BOLB   PO222526  10.210  23.630  14.750
  939BOLB   GL322527  10.420  23.420  14.440
  939BOLB   GL422528  10.310  23.250  14.110
  939BOLB   C1C22529  10.750  23.010  14.300
  939BOLB   C2C22530  10.760  22.600  14.320
  939BOLB   C3C22531  10.890  22.110  14.290
  939BOLB   C4C22532  10.820  21.710  14.200
  939BOLB   C1D22533  10.370  22.840  14.010
  939BOLB   C2D22534  10.090  22.710  13.680
  939BOLB   C3D22535  10.090  22.520  13.310
  939BOLB   C4D22536  10.070  22.350  12.800
  940BOLB   NC122537  18.160   7.860   9.790
  940BOLB   PO122538  17.810   7.990   9.650
  940BOLB   GL122539  17.990   7.640   9.380
  940BOLB   GL222540  18.120   7.640   9.020
  940BOLB   C1A22541  18.050   7.210   9.300
  940BOLB   C2A22542  17.940   6.790   9.270
  940BOLB   C3A22543  17.780   6.400   9.190
  940BOLB   C4A22544  17.630   5.980   9.080
  940BOLB   C1B22545  18.050   7.350   8.730
  940BOLB   C2B22546  17.620   7.190   8.480
  940BOLB   C3B22547  17.530   6.850   8.250
  940BOLB   C4B22548  17.760   6.650   7.830
  940BOLB   NC222549  15.970   4.430   7.850
  940BOLB   PO222550  16.120   4.270   8.300
  940BOLB   GL322551  16.350   4.560   8.540
  940BOLB   GL422552  16.160   4.590   8.850
  940BOLB   C1C22553  16.590   4.890   8.630
  940BOLB   C2C22554  17.000   5.040   8.760
  940BOLB   C3C22555  17.320   5.160   8.970
  940BOLB   C4C22556  17.340   5.580   9.040
  940BOLB   C1D22557  16.140   4.920   9.150
  940BOLB   C2D22558  15.900   5.190   9.320
  940BOLB   C3D22559  15.470   5.120   9.580
  940BOLB   C4D22560  15.200   5.280   9.870
  941BOLB   NC122561  20.240  11.320   3.740
  941BOLB   PO122562  20.180  10.800   3.870
  941BOLB   GL122563  20.060  10.810   4.380
  941BOLB   GL222564  19.930  10.750   4.550
  941BOLB   C1A22565  20.020  11.240   4.530
  941BOLB   C2A22566  19.710  11.530   4.750
  941BOLB   C3A22567  19.670  11.640   5.170
  941BOLB   C4A22568  19.530  11.710   5.630
  941BOLB   C1B22569  20.120  10.710   4.930
  941BOLB   C2B22570  20.460  10.680   5.190
  941BOLB   C3B22571  20.550  10.510   5.610
  941BOLB   C4B22572  20.640  10.060   5.760
  941BOLB   NC222573  20.200  12.170   7.890
  941BOLB   PO222574  19.810  12.170   8.160
  941BOLB   GL322575  19.570  12.270   7.760
  941BOLB   GL422576  19.260  12.410   7.690
  941BOLB   C1C22577  19.590  12.230   7.280
  941BOLB   C2C22578  19.480  12.310   6.900
  941BOLB   C3C22579  19.540  12.220   6.410
  941BOLB   C4C22580  19.510  11.860   6.100
  941BOLB   C1D22581  19.200  12.520   7.270
  941BOLB   C2D22582  19.110  12.690   6.750
  941BOLB   C3D22583  19.110  12.530   6.410
  941BOLB   C4D22584  19.070  12.270   6.050
  942BOLB   NC122585  15.610  21.870   9.680
  942BOLB   PO122586  16.000  22.130   9.850
  942BOLB   GL122587  15.830  22.330   9.580
  942BOLB   GL222588  15.680  22.180   9.300
  942BOLB   C1A22589  15.960  22.740   9.350
  942BOLB   C2A22590  16.010  23.040   9.080
  942BOLB   C3A22591  16.190  23.460   9.100
  942BOLB   C4A22592  16.330  23.780   8.910
  942BOLB   C1B22593  15.530  22.520   9.120
  942BOLB   C2B22594  15.540  22.870   9.070
  942BOLB   C3B22595  15.450  23.220   8.820
  942BOLB   C4B22596  15.380  23.250   8.380
  942BOLB   NC222597  15.890  25.760   8.060
  942BOLB   PO222598  15.880  25.690   7.610
  942BOLB   GL322599  15.930  25.300   7.570
  942BOLB   GL422600  16.240  25.240   7.450
  942BOLB   C1C22601  15.800  24.910   7.630
  942BOLB   C2C22602  15.820  24.710   7.960
  942BOLB   C3C22603  16.040  24.500   8.280
  942BOLB   C4C22604  16.170  24.200   8.600
  942BOLB   C1D22605  16.280  24.820   7.740
  942BOLB   C2D22606  16.340  24.450   7.850
  942BOLB   C3D22607  16.110  24.070   7.980
  942BOLB   C4D22608  15.840  23.770   8.110
  943BOLB   NC122609  15.400  17.350   7.670
  943BOLB   PO122610  15.090  17.080   7.720
  943BOLB   GL122611  15.040  17.280   7.320
  943BOLB   GL222612  14.780  17.410   7.280
  943BOLB   C1A22613  14.930  17.280   6.840
  943BOLB   C2A22614  15.080  16.960   6.550
  943BOLB   C3A22615  15.120  16.770   6.060
  943BOLB   C4A22616  15.080  16.950   5.650
  943BOLB   C1B22617  14.460  17.670   7.040
  943BOLB   C2B22618  14.200  17.750   6.690
  943BOLB   C3B22619  13.940  18.040   6.490
  943BOLB   C4B22620  13.510  18.190   6.460
  943BOLB   NC222621  15.110  18.200   3.550
  943BOLB   PO222622  15.350  17.870   3.500
  943BOLB   GL322623  15.260  17.900   3.960
  943BOLB   GL422624  15.430  18.280   4.140
  943BOLB   C1C22625  15.030  17.640   4.250
  943BOLB   C2C22626  15.160  17.540   4.680
  943BOLB   C3C22627  15.160  17.390   5.120
  943BOLB   C4C22628  15.160  17.240   5.480
  943BOLB   C1D22629  15.680  18.240   4.450
  943BOLB   C2D22630  15.900  18.460   4.840
  943BOLB   C3D22631  15.930  18.540   5.240
  943BOLB   C4D22632  15.980  18.770   5.630
  944BOLB   NC122633  17.920  10.750   8.610
  944BOLB   PO122634  17.830  10.790   8.150
  944BOLB   GL122635  17.610  10.920   7.740
  944BOLB   GL222636  17.670  10.580   7.720
  944BOLB   C1A22637  17.590  11.040   7.300
  944BOLB   C2A22638  17.570  10.930   6.950
  944BOLB   C3A22639  17.780  10.660   6.600
  944BOLB   C4A22640  17.470  10.510   6.290
  944BOLB   C1B22641  17.620  10.340   7.330
  944BOLB   C2B22642  17.650  10.120   7.090
  944BOLB   C3B22643  17.500  10.110   6.690
  944BOLB   C4B22644  17.070  10.080   6.570
  944BOLB   NC222645  16.970  10.620   3.910
  944BOLB   PO222646  16.450  10.480   3.970
  944BOLB   GL322647  16.420  10.370   4.420
  944BOLB   GL422648  16.220  10.550   4.620
  944BOLB   C1C22649  16.590  10.290   4.800
  944BOLB   C2C22650  16.740  10.300   5.260
  944BOLB   C3C22651  16.740  10.380   5.750
  944BOLB   C4C22652  17.070  10.390   6.080
  944BOLB   C1D22653  16.490  10.780   4.830
  944BOLB   C2D22654  16.470  11.110   5.160
  944BOLB   C3D22655  16.450  11.260   5.620
  944BOLB   C4D22656  16.690  11.360   6.010
  945BOLB   NC122657  21.770   1.140  17.520
  945BOLB   PO122658  22.020   1.140  17.900
  945BOLB   GL122659  21.940   1.580  17.720
  945BOLB   GL222660  22.190   1.820  17.740
  945BOLB   C1A22661  21.800   1.970  17.480
  945BOLB   C2A22662  21.910   2.390  17.270
  945BOLB   C3A22663  21.810   2.810  17.180
  945BOLB   C4A22664  21.680   3.160  16.890
  945BOLB   C1B22665  22.330   2.160  17.390
  945BOLB   C2B22666  22.350   2.640  17.390
  945BOLB   C3B22667  22.230   3.060  17.320
  945BOLB   C4B22668  22.290   3.420  17.330
  945BOLB   NC222669  20.810   5.620  16.310
  945BOLB   PO222670  21.150   5.650  16.630
  945BOLB   GL322671  21.230   5.320  16.760
  945BOLB   GL422672  21.030   5.030  16.550
  945BOLB   C1C22673  21.410   4.900  16.900
  945BOLB   C2C22674  21.340   4.470  16.870
  945BOLB   C3C22675  21.520   4.050  16.980
  945BOLB   C4C22676  21.560   3.580  16.790
  945BOLB   C1D22677  21.020   4.540  16.510
  945BOLB   C2D22678  21.030   4.180  16.650
  945BOLB   C3D22679  21.070   3.830  16.890
  945BOLB   C4D22680  21.150   3.430  17.180
  946BOLB   NC122681  18.480   6.950  11.430
  946BOLB   PO122682  18.480   6.590  11.150
  946BOLB   GL122683  18.420   6.340  10.680
  946BOLB   GL222684  18.260   6.400  10.450
  946BOLB   C1A22685  18.460   5.940  10.320
  946BOLB   C2A22686  18.660   5.700   9.970
  946BOLB   C3A22687  18.750   5.470   9.670
  946BOLB   C4A22688  18.500   5.440   9.300
  946BOLB   C1B22689  17.970   6.120  10.260
  946BOLB   C2B22690  17.750   5.690  10.140
  946BOLB   C3B22691  17.800   5.310   9.960
  946BOLB   C4B22692  17.640   4.940   9.770
  946BOLB   NC222693  19.350   4.400   6.860
  946BOLB   PO222694  18.940   4.510   7.070
  946BOLB   GL322695  18.930   4.800   7.390
  946BOLB   GL422696  18.940   5.140   7.230
  946BOLB   C1C22697  19.110   4.930   7.790
  946BOLB   C2C22698  18.870   4.940   8.180
  946BOLB   C3C22699  18.810   5.160   8.560
  946BOLB   C4C22700  18.700   5.430   8.920
  946BOLB   C1D22701  19.260   5.280   7.450
  946BOLB   C2D22702  19.390   5.320   7.910
  946BOLB   C3D22703  19.260   5.470   8.280
  946BOLB   C4D22704  19.500   5.710   8.560
  947BOLB   NC122705  14.090   7.500  11.410
  947BOLB   PO122706  14.390   7.260  11.540
  947BOLB   GL122707  14.100   7.010  11.260
  947BOLB   GL222708  13.960   7.220  11.030
  947BOLB   C1A22709  14.140   6.750  10.910
  947BOLB   C2A22710  14.220   6.360  10.800
  947BOLB   C3A22711  14.350   5.920  10.760
  947BOLB   C4A22712  14.310   5.630  11.030
  947BOLB   C1B22713  13.610   6.950  10.870
  947BOLB   C2B22714  13.330   6.640  10.600
  947BOLB   C3B22715  13.130   6.290  10.610
  947BOLB   C4B22716  13.030   5.940  10.680
  947BOLB   NC222717  13.240   3.690   9.880
  947BOLB   PO222718  13.120   4.040   9.650
  947BOLB   GL322719  13.210   4.310   9.970
  947BOLB   GL422720  12.910   4.550  10.030
  947BOLB   C1C22721  13.530   4.410  10.320
  947BOLB   C2C22722  13.870   4.730  10.360
  947BOLB   C3C22723  14.250   4.960  10.540
  947BOLB   C4C22724  14.320   5.170  10.890
  947BOLB   C1D22725  13.180   4.730  10.320
  947BOLB   C2D22726  13.450   4.900  10.620
  947BOLB   C3D22727  13.470   5.230  10.900
  947BOLB   C4D22728  13.870   5.430  10.990
  948BOLB   NC122729  28.740   4.360  16.190
  948BOLB   PO122730  28.440   4.210  16.510
  948BOLB   GL122731  28.110   4.520  16.460
  948BOLB   GL222732  28.340   4.730  16.660
  948BOLB   C1A22733  27.740   4.680  16.280
  948BOLB   C2A22734  27.460   4.830  16.000
  948BOLB   C3A22735  27.060   5.040  15.940
  948BOLB   C4A22736  26.620   5.240  15.840
  948BOLB   C1B22737  28.270   5.030  16.930
  948BOLB   C2B22738  27.940   5.290  17.050
  948BOLB   C3B22739  27.640   5.700  17.040
  948BOLB   C4B22740  27.660   6.020  17.130
  948BOLB   NC222741  25.310   6.940  16.290
  948BOLB   PO222742  25.130   7.060  15.900
  948BOLB   GL322743  25.530   6.650  15.920
  948BOLB   GL422744  25.680   6.470  16.140
  948BOLB   C1C22745  25.860   6.500  15.660
  948BOLB   C2C22746  26.180   6.240  15.640
  948BOLB   C3C22747  26.280   5.830  15.690
  948BOLB   C4C22748  26.390   5.550  15.680
  948BOLB   C1D22749  25.860   6.060  16.040
  948BOLB   C2D22750  25.910   5.650  16.150
  948BOLB   C3D22751  25.880   5.380  16.500
  948BOLB   C4D22752  25.540   5.120  16.680
  949BOLB   NC122753  10.730  16.980  15.380
  949BOLB   PO122754  10.420  16.820  15.320
  949BOLB   GL122755  10.010  16.860  15.580
  949BOLB   GL222756  10.060  17.130  15.630
  949BOLB   C1A22757   9.620  16.900  15.760
  949BOLB   C2A22758   9.270  16.980  16.040
  949BOLB   C3A22759   8.850  17.210  16.190
  949BOLB   C4A22760   8.610  17.610  16.320
  949BOLB   C1B22761   9.750  17.210  15.330
  949BOLB   C2B22762   9.540  17.510  15.150
  949BOLB   C3B22763   9.310  17.960  14.990
  949BOLB   C4B22764   9.340  18.380  14.980
  949BOLB   NC222765   7.770  20.250  17.220
  949BOLB   PO222766   8.160  19.930  17.050
  949BOLB   GL322767   7.960  19.630  16.830
  949BOLB   GL422768   7.980  19.390  17.140
  949BOLB   C1C22769   8.360  19.330  16.710
  949BOLB   C2C22770   8.430  18.820  16.770
  949BOLB   C3C22771   8.470  18.470  16.410
  949BOLB   C4C22772   8.530  18.030  16.340
  949BOLB   C1D22773   8.300  19.200  17.180
  949BOLB   C2D22774   8.750  18.970  17.090
  949BOLB   C3D22775   9.130  18.820  17.030
  949BOLB   C4D22776   9.420  19.080  16.720
  950BOLB   NC122777  22.260   5.170  15.910
  950BOLB   PO122778  22.410   5.160  16.210
  950BOLB   GL122779  22.420   4.790  16.170
  950BOLB   GL222780  22.510   4.730  15.810
  950BOLB   C1A22781  22.720   4.390  16.180
  950BOLB   C2A22782  22.690   4.090  16.350
  950BOLB   C3A22783  22.480   3.780  16.610
  950BOLB   C4A22784  22.660   3.650  16.940
  950BOLB   C1B22785  22.240   4.470  15.820
  950BOLB   C2B22786  22.290   4.140  16.010
  950BOLB   C3B22787  22.350   3.690  16.130
  950BOLB   C4B22788  22.470   3.270  16.320
  950BOLB   NC222789  23.940   2.100  18.670
  950BOLB   PO222790  23.750   1.860  18.430
  950BOLB   GL322791  23.730   2.250  18.180
  950BOLB   GL422792  23.410   2.290  18.140
  950BOLB   C1C22793  23.550   2.700  17.860
  950BOLB   C2C22794  23.340   3.020  17.530
  950BOLB   C3C22795  23.130   3.400  17.470
  950BOLB   C4C22796  22.840   3.520  17.270
  950BOLB   C1D22797  23.440   2.720  18.350
  950BOLB   C2D22798  23.240   3.140  18.460
  950BOLB   C3D22799  23.430   3.350  18.160
  950BOLB   C4D22800  23.660   3.500  17.820
  951BOLB   NC122801  14.950   5.900  16.710
  951BOLB   PO122802  15.270   5.880  17.070
  951BOLB   GL122803  15.190   5.580  17.240
  951BOLB   GL222804  15.050   5.410  16.920
  951BOLB   C1A22805  15.170   5.330  17.680
  951BOLB   C2A22806  15.030   4.930  17.940
  951BOLB   C3A22807  15.400   4.590  18.050
  951BOLB   C4A22808  15.690   4.270  18.270
  951BOLB   C1B22809  14.720   5.180  16.960
  951BOLB   C2B22810  14.800   4.850  16.980
  951BOLB   C3B22811  14.530   4.510  17.210
  951BOLB   C4B22812  14.530   4.150  17.090
  951BOLB   NC222813  16.140   2.430  19.850
  951BOLB   PO222814  16.150   2.480  19.350
  951BOLB   GL322815  16.250   2.700  19.080
  951BOLB   GL422816  16.580   2.700  18.990
  951BOLB   C1C22817  16.130   3.140  18.950
  951BOLB   C2C22818  15.920   3.420  19.090
  951BOLB   C3C22819  15.850   3.900  18.960
  951BOLB   C4C22820  15.680   4.010  18.590
  951BOLB   C1D22821  16.500   2.870  18.640
  951BOLB   C2D22822  16.250   3.050  18.340
  951BOLB   C3D22823  16.200   3.450  18.150
  951BOLB   C4D22824  15.990   3.800  18.070
  952BOLB   NC122825  10.680  16.740  11.720
  952BOLB   PO122826  10.510  16.910  12.190
  952BOLB   GL122827  10.290  17.180  11.930
  952BOLB   GL222828  10.210  16.980  11.750
  952BOLB   C1A22829   9.880  17.370  11.770
  952BOLB   C2A22830   9.430  17.330  11.820
  952BOLB   C3A22831   9.140  17.420  11.850
  952BOLB   C4A22832   8.900  17.300  11.560
  952BOLB   C1B22833   9.780  16.960  11.540
  952BOLB   C2B22834   9.480  17.280  11.330
  952BOLB   C3B22835   9.190  17.360  11.110
  952BOLB   C4B22836   8.920  17.180  10.790
  952BOLB   NC222837   7.150  17.170  10.580
  952BOLB   PO222838   7.200  16.750  10.390
  952BOLB   GL322839   7.600  16.620  10.530
  952BOLB   GL422840   7.880  16.580  10.360
  952BOLB   C1C22841   7.840  16.440  10.890
  952BOLB   C2C22842   8.240  16.610  10.940
  952BOLB   C3C22843   8.440  17.040  11.040
  952BOLB   C4C22844   8.800  17.020  11.240
  952BOLB   C1D22845   8.240  16.390  10.500
  952BOLB   C2D22846   8.500  16.160  10.710
  952BOLB   C3D22847   8.940  16.170  10.700
  952BOLB   C4D22848   9.350  16.090  10.550
  953BOLB   NC122849  10.840  15.960  11.210
  953BOLB   PO122850  11.020  15.750  10.850
  953BOLB   GL122851  10.720  15.750  10.520
  953BOLB   GL222852  10.690  16.020  10.250
  953BOLB   C1A22853  10.600  15.580  10.160
  953BOLB   C2A22854  10.120  15.440  10.050
  953BOLB   C3A22855   9.790  15.560  10.100
  953BOLB   C4A22856   9.670  16.020  10.110
  953BOLB   C1B22857  10.480  16.000   9.870
  953BOLB   C2B22858  10.330  16.070   9.460
  953BOLB   C3B22859  10.060  15.910   9.210
  953BOLB   C4B22860   9.730  15.890   8.990
  953BOLB   NC222861   7.720  16.960   8.640
  953BOLB   PO222862   8.020  17.010   8.600
  953BOLB   GL322863   8.320  16.800   8.680
  953BOLB   GL422864   8.440  16.780   8.340
  953BOLB   C1C22865   8.620  16.840   9.020
  953BOLB   C2C22866   8.890  16.690   9.370
  953BOLB   C3C22867   9.150  16.520   9.540
  953BOLB   C4C22868   9.420  16.280   9.800
  953BOLB   C1D22869   8.770  16.600   8.640
  953BOLB   C2D22870   9.070  16.640   8.920
  953BOLB   C3D22871   9.480  16.700   8.920
  953BOLB   C4D22872   9.730  16.980   8.980
  954BOLB   NC122873   7.970   8.160  16.260
  954BOLB   PO122874   7.850   8.240  16.710
  954BOLB   GL122875   8.190   8.580  16.420
  954BOLB   GL222876   8.460   8.400  16.330
  954BOLB   C1A22877   8.440   8.850  16.020
  954BOLB   C2A22878   8.840   8.880  15.890
  954BOLB   C3A22879   8.990   8.740  15.640
  954BOLB   C4A22880   9.230   8.380  15.500
  954BOLB   C1B22881   8.570   8.770  16.730
  954BOLB   C2B22882   8.940   8.780  17.000
  954BOLB   C3B22883   9.080   8.500  17.360
  954BOLB   C4B22884   9.230   8.640  17.620
  954BOLB   NC222885   8.870   6.970  16.770
  954BOLB   PO222886   8.990   6.620  16.520
  954BOLB   GL322887   9.360   6.940  16.480
  954BOLB   GL422888   9.260   7.320  16.500
  954BOLB   C1C22889   9.610   7.160  16.250
  954BOLB   C2C22890   9.750   7.520  16.110
  954BOLB   C3C22891   9.820   7.940  16.020
  954BOLB   C4C22892   9.590   8.180  15.710
  954BOLB   C1D22893   9.290   7.610  16.170
  954BOLB   C2D22894   9.440   7.750  15.710
  954BOLB   C3D22895   9.750   7.690  15.460
  954BOLB   C4D22896  10.180   7.700  15.710
  955BOLB   NC122897  18.160   5.780  12.000
  955BOLB   PO122898  18.350   5.520  11.860
  955BOLB   GL122899  18.350   5.110  11.610
  955BOLB   GL222900  18.290   4.860  11.770
  955BOLB   C1A22901  18.410   4.870  11.260
  955BOLB   C2A22902  18.410   4.620  10.840
  955BOLB   C3A22903  18.470   4.510  10.420
  955BOLB   C4A22904  18.660   4.310  10.110
  955BOLB   C1B22905  18.300   4.440  11.730
  955BOLB   C2B22906  18.220   4.250  11.350
  955BOLB   C3B22907  18.220   4.130  10.840
  955BOLB   C4B22908  18.490   4.080  10.640
  955BOLB   NC222909  20.220   2.890   8.310
  955BOLB   PO222910  19.950   3.010   8.680
  955BOLB   GL322911  19.700   3.110   9.060
  955BOLB   GL422912  19.950   3.110   9.270
  955BOLB   C1C22913  19.670   3.520   9.200
  955BOLB   C2C22914  19.470   3.760   9.530
  955BOLB   C3C22915  19.300   4.080   9.590
  955BOLB   C4C22916  18.950   4.160   9.730
  955BOLB   C1D22917  20.100   3.300   9.610
  955BOLB   C2D22918  19.940   3.640   9.690
  955BOLB   C3D22919  19.630   3.970   9.980
  955BOLB   C4D22920  19.260   4.210  10.120
  956BOLB   NC122921   8.360  19.900   9.100
  956BOLB   PO122922   8.250  19.560   8.830
  956BOLB   GL122923   8.670  19.360   9.070
  956BOLB   GL222924   8.530  19.060   9.060
  956BOLB   C1A22925   8.830  19.550   9.420
  956BOLB   C2A22926   9.070  19.490   9.800
  956BOLB   C3A22927   9.260  19.310  10.250
  956BOLB   C4A22928   9.440  18.990  10.570
  956BOLB   C1B22929   8.660  18.530   9.110
  956BOLB   C2B22930   8.980  18.380   9.370
  956BOLB   C3B22931   9.420  18.230   9.350
  956BOLB   C4B22932   9.790  18.450   9.200
  956BOLB   NC222933   7.570  19.140  10.090
  956BOLB   PO222934   7.590  19.500  10.340
  956BOLB   GL322935   7.980  19.280  10.390
  956BOLB   GL422936   7.980  19.080  10.580
  956BOLB   C1C22937   8.330  19.310  10.830
  956BOLB   C2C22938   8.670  19.070  11.110
  956BOLB   C3C22939   9.050  18.990  11.010
  956BOLB   C4C22940   9.450  18.850  10.970
  956BOLB   C1D22941   7.990  18.660  10.420
  956BOLB   C2D22942   8.100  18.340  10.560
  956BOLB   C3D22943   8.440  18.140  10.700
  956BOLB   C4D22944   8.890  18.170  10.590
  957BOLB   NC122945  22.370   5.180  12.870
  957BOLB   PO122946  21.980   5.320  12.680
  957BOLB   GL122947  22.050   4.900  12.640
  957BOLB   GL222948  22.180   4.720  12.930
  957BOLB   C1A22949  21.990   4.560  12.350
  957BOLB   C2A22950  22.080   4.460  11.940
  957BOLB   C3A22951  21.910   4.140  11.600
  957BOLB   C4A22952  21.830   3.890  11.310
  957BOLB   C1B22953  22.080   4.360  12.800
  957BOLB   C2B22954  22.200   4.040  12.690
  957BOLB   C3B22955  22.390   3.680  12.420
  957BOLB   C4B22956  22.280   3.290  12.230
  957BOLB   NC222957  21.170   1.340  10.160
  957BOLB   PO222958  21.370   1.720  10.340
  957BOLB   GL322959  21.550   2.160  10.500
  957BOLB   GL422960  21.480   2.270  10.720
  957BOLB   C1C22961  21.870   2.540  10.550
  957BOLB   C2C22962  21.620   3.020  10.450
  957BOLB   C3C22963  21.570   3.530  10.550
  957BOLB   C4C22964  21.720   3.730  11.020
  957BOLB   C1D22965  21.490   2.670  10.940
  957BOLB   C2D22966  21.200   2.910  11.230
  957BOLB   C3D22967  20.720   3.220  11.160
  957BOLB   C4D22968  20.470   3.250  11.520
  958BOLB   NC122969  18.850   5.530  11.870
  958BOLB   PO122970  18.850   5.200  11.640
  958BOLB   GL122971  18.870   4.780  11.680
  958BOLB   GL222972  18.950   4.720  11.950
  958BOLB   C1A22973  18.850   4.310  11.600
  958BOLB   C2A22974  19.120   3.880  11.700
  958BOLB   C3A22975  19.050   3.490  11.740
  958BOLB   C4A22976  19.320   3.230  11.460
  958BOLB   C1B22977  19.280   4.370  11.970
  958BOLB   C2B22978  19.400   3.980  12.100
  958BOLB   C3B22979  19.380   3.530  12.250
  958BOLB   C4B22980  19.360   3.130  12.340
  958BOLB   NC222981  20.010   1.130  10.020
  958BOLB   PO222982  20.230   1.290  10.330
  958BOLB   GL322983  20.160   1.620  10.590
  958BOLB   GL422984  20.480   1.760  10.610
  958BOLB   C1C22985  19.900   1.980  10.730
  958BOLB   C2C22986  19.510   2.180  10.930
  958BOLB   C3C22987  19.310   2.550  10.970
  958BOLB   C4C22988  19.120   2.880  11.150
  958BOLB   C1D22989  20.250   1.920  11.050
  958BOLB   C2D22990  19.980   2.140  11.260
  958BOLB   C3D22991  19.830   2.570  11.250
  958BOLB   C4D22992  19.670   2.930  11.100
  959BOLB   NC122993  22.800   1.210  17.040
  959BOLB   PO122994  22.500   1.530  16.990
  959BOLB   GL122995  22.500   1.880  16.770
  959BOLB   GL222996  22.410   1.910  16.500
  959BOLB   C1A22997  22.860   2.100  16.710
  959BOLB   C2A22998  23.080   2.450  16.850
  959BOLB   C3A22999  23.110   2.840  17.050
  959BOLB   C4A23000  23.190   3.170  16.890
  959BOLB   C1B23001  22.620   2.140  16.190
  959BOLB   C2B23002  22.870   2.200  15.870
  959BOLB   C3B23003  23.160   2.380  15.620
  959BOLB   C4B23004  23.380   2.430  15.150
  959BOLB   NC223005  22.620   5.510  15.730
  959BOLB   PO223006  22.810   5.120  15.810
  959BOLB   GL323007  22.960   4.870  16.070
  959BOLB   GL423008  22.870   4.920  16.360
  959BOLB   C1C23009  23.220   4.640  16.160
  959BOLB   C2C23010  23.280   4.310  16.250
  959BOLB   C3C23011  23.110   3.960  16.520
  959BOLB   C4C23012  23.040   3.530  16.650
  959BOLB   C1D23013  22.920   4.500  16.610
  959BOLB   C2D23014  23.300   4.390  16.860
  959BOLB   C3D23015  23.520   4.400  17.310
  959BOLB   C4D23016  23.970   4.410  17.560
  960BOLB   NC123017   8.410   9.510  18.350
  960BOLB   PO123018   8.830   9.670  18.500
  960BOLB   GL123019   8.830   9.820  18.070
  960BOLB   GL223020   9.070   9.600  17.940
  960BOLB   C1A23021   8.930  10.100  17.710
  960BOLB   C2A23022   9.000  10.220  17.280
  960BOLB   C3A23023   9.350  10.430  17.100
  960BOLB   C4A23024   9.230  10.740  16.940
  960BOLB   C1B23025   9.320   9.210  18.210
  960BOLB   C2B23026   9.600   8.850  18.060
  960BOLB   C3B23027   9.820   8.790  17.650
  960BOLB   C4B23028   9.510   8.810  17.240
  960BOLB   NC223029   7.320  10.090  16.540
  960BOLB   PO223030   7.170  10.450  16.740
  960BOLB   GL323031   7.360  10.710  16.440
  960BOLB   GL423032   7.310  11.040  16.450
  960BOLB   C1C23033   7.830  10.670  16.400
  960BOLB   C2C23034   8.160  10.590  16.490
  960BOLB   C3C23035   8.530  10.750  16.460
  960BOLB   C4C23036   8.800  10.900  16.790
  960BOLB   C1D23037   7.740  11.160  16.380
  960BOLB   C2D23038   8.110  11.000  16.200
  960BOLB   C3D23039   8.320  10.670  15.950
  960BOLB   C4D23040   8.420  10.230  15.910
  961BOLB   NC123041  27.520   9.780  13.630
  961BOLB   PO123042  27.940   9.800  13.750
  961BOLB   GL123043  28.200   9.600  14.030
  961BOLB   GL223044  28.450   9.790  14.100
  961BOLB   C1A23045  28.480   9.230  14.180
  961BOLB   C2A23046  28.870   9.040  14.340
  961BOLB   C3A23047  29.170   8.820  14.500
  961BOLB   C4A23048  29.570   8.600  14.340
  961BOLB   C1B23049  28.730   9.700  14.420
  961BOLB   C2B23050  29.100   9.660  14.490
  961BOLB   C3B23051  29.520   9.720  14.370
  961BOLB   C4B23052  30.020   9.650  14.370
  961BOLB   NC223053  31.350   7.220  13.430
  961BOLB   PO223054  31.170   7.620  13.640
  961BOLB   GL323055  30.850   7.810  13.490
  961BOLB   GL423056  30.970   8.060  13.630
  961BOLB   C1C23057  30.520   7.970  13.350
  961BOLB   C2C23058  30.230   8.100  13.490
  961BOLB   C3C23059  29.860   8.120  13.720
  961BOLB   C4C23060  29.730   8.350  14.090
  961BOLB   C1D23061  30.780   8.440  13.660
  961BOLB   C2D23062  30.550   8.770  13.640
  961BOLB   C3D23063  30.230   9.060  13.600
  961BOLB   C4D23064  29.970   9.460  13.430
  962BOLB   NC123065  20.090  13.080   7.690
  962BOLB   PO123066  20.390  13.070   7.430
  962BOLB   GL123067  20.290  13.130   7.020
  962BOLB   GL223068  20.150  13.340   6.860
  962BOLB   C1A23069  20.410  13.060   6.560
  962BOLB   C2A23070  20.370  12.770   6.050
  962BOLB   C3A23071  20.390  12.980   5.640
  962BOLB   C4A23072  20.570  12.820   5.320
  962BOLB   C1B23073  20.210  13.470   6.330
  962BOLB   C2B23074  20.340  13.230   6.070
  962BOLB   C3B23075  20.710  13.230   5.910
  962BOLB   C4B23076  20.720  13.310   5.450
  962BOLB   NC223077  20.060  11.840   3.370
  962BOLB   PO223078  20.200  12.200   3.300
  962BOLB   GL323079  20.110  12.060   3.810
  962BOLB   GL423080  20.410  12.060   4.020
  962BOLB   C1C23081  19.970  12.270   4.160
  962BOLB   C2C23082  19.830  12.390   4.490
  962BOLB   C3C23083  20.000  12.490   4.830
  962BOLB   C4C23084  20.370  12.610   5.000
  962BOLB   C1D23085  20.660  11.880   4.430
  962BOLB   C2D23086  20.430  11.550   4.590
  962BOLB   C3D23087  20.210  11.410   4.960
  962BOLB   C4D23088  20.230  11.540   5.460
  963BOLB   NC123089  10.740  17.990  14.020
  963BOLB   PO123090  10.940  18.430  13.920
  963BOLB   GL123091  10.550  18.460  13.760
  963BOLB   GL223092  10.320  18.770  13.770
  963BOLB   C1A23093  10.160  18.220  13.850
  963BOLB   C2A23094   9.710  18.210  13.810
  963BOLB   C3A23095   9.440  18.640  13.810
  963BOLB   C4A23096   9.180  18.850  13.560
  963BOLB   C1B23097   9.900  18.790  14.040
  963BOLB   C2B23098   9.570  18.910  14.240
  963BOLB   C3B23099   9.360  19.180  14.480
  963BOLB   C4B23100   9.640  19.490  14.710
  963BOLB   NC223101   7.400  20.760  13.670
  963BOLB   PO223102   7.430  20.420  13.340
  963BOLB   GL323103   7.670  19.980  13.260
  963BOLB   GL423104   7.850  19.890  13.570
  963BOLB   C1C23105   8.050  19.690  13.180
  963BOLB   C2C23106   8.280  19.410  13.050
  963BOLB   C3C23107   8.400  19.010  13.160
  963BOLB   C4C23108   8.640  18.750  13.440
  963BOLB   C1D23109   8.100  19.620  13.750
  963BOLB   C2D23110   8.400  19.360  13.790
  963BOLB   C3D23111   8.740  19.140  13.630
  963BOLB   C4D23112   8.840  18.750  13.920
  964BOLB   NC123113  13.650  10.360   4.640
  964BOLB   PO123114  13.250  10.310   4.550
  964BOLB   GL123115  13.360  10.330   5.000
  964BOLB   GL223116  13.640  10.600   5.150
  964BOLB   C1A23117  13.300  10.380   5.410
  964BOLB   C2A23118  13.210  10.560   5.830
  964BOLB   C3A23119  13.470  10.490   6.210
  964BOLB   C4A23120  13.540  10.750   6.590
  964BOLB   C1B23121  13.740  10.600   5.630
  964BOLB   C2B23122  13.950  10.610   6.030
  964BOLB   C3B23123  13.940  10.460   6.380
  964BOLB   C4B23124  13.850  10.500   6.910
  964BOLB   NC223125  11.650  10.260   5.290
  964BOLB   PO223126  11.670  10.740   5.380
  964BOLB   GL323127  11.860  10.940   5.730
  964BOLB   GL423128  11.740  11.160   6.050
  964BOLB   C1C23129  12.260  11.100   5.960
  964BOLB   C2C23130  12.430  10.920   6.350
  964BOLB   C3C23131  12.750  11.010   6.590
  964BOLB   C4C23132  13.220  11.010   6.700
  964BOLB   C1D23133  11.930  11.270   6.360
  964BOLB   C2D23134  12.200  11.100   6.730
  964BOLB   C3D23135  12.460  10.940   7.070
  964BOLB   C4D23136  12.800  10.830   7.530
  965BOLB   NC123137  12.350  19.550  15.130
  965BOLB   PO123138  12.000  19.860  15.000
  965BOLB   GL123139  11.720  20.050  15.210
  965BOLB   GL223140  11.770  20.450  15.300
  965BOLB   C1A23141  11.300  20.100  15.480
  965BOLB   C2A23142  10.980  20.130  15.710
  965BOLB   C3A23143  10.600  20.170  15.970
  965BOLB   C4A23144  10.310  20.400  16.160
  965BOLB   C1B23145  11.590  20.400  15.710
  965BOLB   C2B23146  11.260  20.480  15.960
  965BOLB   C3B23147  11.090  20.880  16.170
  965BOLB   C4B23148  10.620  21.060  16.230
  965BOLB   NC223149   8.740  21.670  17.190
  965BOLB   PO223150   8.490  21.380  16.870
  965BOLB   GL323151   8.820  21.110  17.040
  965BOLB   GL423152   8.860  20.720  17.050
  965BOLB   C1C23153   9.220  21.080  16.900
  965BOLB   C2C23154   9.450  20.830  16.750
  965BOLB   C3C23155   9.760  20.640  16.640
  965BOLB   C4C23156  10.030  20.360  16.470
  965BOLB   C1D23157   9.260  20.490  17.030
  965BOLB   C2D23158   9.600  20.190  16.910
  965BOLB   C3D23159   9.910  19.940  16.720
  965BOLB   C4D23160  10.220  19.600  16.760
  966BOLB   NC123161  12.720  17.420   9.520
  966BOLB   PO123162  12.650  17.380   9.110
  966BOLB   GL123163  12.610  17.410   8.710
  966BOLB   GL223164  12.890  17.400   8.520
  966BOLB   C1A23165  12.400  17.590   8.470
  966BOLB   C2A23166  11.990  17.650   8.250
  966BOLB   C3A23167  11.760  17.460   7.940
  966BOLB   C4A23168  11.690  17.550   7.540
  966BOLB   C1B23169  12.810  17.550   8.080
  966BOLB   C2B23170  12.640  17.580   7.710
  966BOLB   C3B23171  12.660  17.510   7.390
  966BOLB   C4B23172  12.510  17.670   6.920
  966BOLB   NC223173  11.960  18.570   4.970
  966BOLB   PO223174  11.650  18.350   5.270
  966BOLB   GL323175  11.640  18.630   5.570
  966BOLB   GL423176  11.930  18.650   5.630
  966BOLB   C1C23177  11.550  18.610   5.980
  966BOLB   C2C23178  11.760  18.390   6.330
  966BOLB   C3C23179  11.750  18.160   6.740
  966BOLB   C4C23180  11.660  17.850   7.150
  966BOLB   C1D23181  12.060  18.760   6.060
  966BOLB   C2D23182  12.430  18.700   6.320
  966BOLB   C3D23183  12.790  18.670   6.450
  966BOLB   C4D23184  12.820  18.680   6.860
  967BOLB   NC123185  25.220   8.430  18.340
  967BOLB   PO123186  25.510   8.180  18.290
  967BOLB   GL123187  25.240   8.100  18.710
  967BOLB   GL223188  25.580   8.060  18.810
  967BOLB   C1A23189  25.270   8.280  19.090
  967BOLB   C2A23190  25.530   8.200  19.320
  967BOLB   C3A23191  25.720   7.990  19.610
  967BOLB   C4A23192  26.090   8.000  19.970
  967BOLB   C1B23193  25.750   7.750  19.160
  967BOLB   C2B23194  26.180   7.790  19.390
  967BOLB   C3B23195  26.470   7.590  19.740
  967BOLB   C4B23196  26.700   7.440  20.040
  967BOLB   NC223197  25.630   6.290  21.700
  967BOLB   PO223198  25.810   6.610  21.760
  967BOLB   GL323199  25.910   6.700  21.460
  967BOLB   GL423200  26.000   6.970  21.520
  967BOLB   C1C23201  26.050   6.860  21.000
  967BOLB   C2C23202  26.320   7.060  20.590
  967BOLB   C3C23203  26.310   7.370  20.320
  967BOLB   C4C23204  26.110   7.740  20.360
  967BOLB   C1D23205  25.630   7.050  21.210
  967BOLB   C2D23206  25.370   7.150  20.840
  967BOLB   C3D23207  25.240   7.080  20.440
  967BOLB   C4D23208  25.190   7.230  20.050
  968BOLB   NC123209  19.450   6.720   5.570
  968BOLB   PO123210  19.850   6.870   5.390
  968BOLB   GL123211  20.110   7.120   5.810
  968BOLB   GL223212  20.140   7.390   5.770
  968BOLB   C1A23213  20.020   7.160   6.220
  968BOLB   C2A23214  19.900   7.120   6.690
  968BOLB   C3A23215  19.680   7.410   6.870
  968BOLB   C4A23216  19.360   7.190   7.130
  968BOLB   C1B23217  20.370   7.580   6.130
  968BOLB   C2B23218  20.550   7.580   6.510
  968BOLB   C3B23219  20.660   7.440   6.910
  968BOLB   C4B23220  20.640   7.390   7.310
  968BOLB   NC223221  18.680   7.700   5.500
  968BOLB   PO223222  18.580   7.190   5.630
  968BOLB   GL323223  18.650   7.440   5.980
  968BOLB   GL423224  18.900   7.240   6.170
  968BOLB   C1C23225  18.620   7.640   6.360
  968BOLB   C2C23226  18.580   7.840   6.820
  968BOLB   C3C23227  18.670   7.660   7.150
  968BOLB   C4C23228  18.950   7.290   7.260
  968BOLB   C1D23229  19.120   7.560   6.220
  968BOLB   C2D23230  19.040   7.950   6.340
  968BOLB   C3D23231  18.720   8.140   6.220
  968BOLB   C4D23232  18.290   8.010   6.470
  969BOLB   NC123233  21.760   8.310   9.380
  969BOLB   PO123234  22.010   8.060   9.660
  969BOLB   GL123235  21.910   7.750   9.370
  969BOLB   GL223236  22.170   7.730   9.320
  969BOLB   C1A23237  21.790   7.570   8.930
  969BOLB   C2A23238  21.610   7.430   8.530
  969BOLB   C3A23239  21.830   7.520   8.080
  969BOLB   C4A23240  22.060   7.320   7.800
  969BOLB   C1B23241  22.250   7.270   9.080
  969BOLB   C2B23242  22.410   7.040   8.690
  969BOLB   C3B23243  22.300   7.050   8.180
  969BOLB   C4B23244  22.540   6.900   7.790
  969BOLB   NC223245  21.460   6.660   5.570
  969BOLB   PO223246  21.370   6.300   5.750
  969BOLB   GL323247  21.390   6.640   6.100
  969BOLB   GL423248  21.140   6.740   5.960
  969BOLB   C1C23249  21.500   7.010   6.360
  969BOLB   C2C23250  21.900   7.040   6.590
  969BOLB   C3C23251  21.990   6.830   6.990
  969BOLB   C4C23252  22.070   6.910   7.520
  969BOLB   C1D23253  21.010   6.710   6.530
  969BOLB   C2D23254  20.840   6.770   6.940
  969BOLB   C3D23255  20.770   6.640   7.400
  969BOLB   C4D23256  20.800   6.730   7.900
  970BOLB   NC123257  26.310   8.020  12.830
  970BOLB   PO123258  26.180   7.740  12.780
  970BOLB   GL123259  26.590   7.560  12.980
  970BOLB   GL223260  26.720   7.850  13.070
  970BOLB   C1A23261  26.820   7.340  13.240
  970BOLB   C2A23262  27.270   7.270  13.320
  970BOLB   C3A23263  27.540   6.990  13.530
  970BOLB   C4A23264  27.850   6.650  13.320
  970BOLB   C1B23265  27.080   7.680  12.870
  970BOLB   C2B23266  27.410   7.400  12.790
  970BOLB   C3B23267  27.790   7.270  12.490
  970BOLB   C4B23268  27.920   6.880  12.270
  970BOLB   NC223269  29.050   4.790  13.790
  970BOLB   PO223270  29.380   4.860  13.410
  970BOLB   GL323271  29.120   5.220  13.490
  970BOLB   GL423272  29.080   5.450  13.240
  970BOLB   C1C23273  28.740   5.330  13.640
  970BOLB   C2C23274  28.510   5.650  13.530
  970BOLB   C3C23275  28.310   5.890  13.470
  970BOLB   C4C23276  27.950   6.250  13.300
  970BOLB   C1D23277  28.780   5.700  13.000
  970BOLB   C2D23278  28.460   5.630  12.620
  970BOLB   C3D23279  28.210   5.500  12.380
  970BOLB   C4D23280  27.750   5.580  12.140
  971BOLB   NC123281  21.350  26.390   6.540
  971BOLB   PO123282  21.460  26.040   6.840
  971BOLB   GL123283  21.400  25.580   7.010
  971BOLB   GL223284  21.710  25.370   7.020
  971BOLB   C1A23285  21.220  25.230   7.300
  971BOLB   C2A23286  20.930  24.880   7.310
  971BOLB   C3A23287  20.920  24.500   7.080
  971BOLB   C4A23288  20.660  24.220   6.860
  971BOLB   C1B23289  21.850  24.870   7.140
  971BOLB   C2B23290  21.960  24.520   7.400
  971BOLB   C3B23291  21.690  24.200   7.670
  971BOLB   C4B23292  21.370  24.080   7.860
  971BOLB   NC223293  22.660  24.410   6.390
  971BOLB   PO223294  22.340  24.410   5.990
  971BOLB   GL323295  22.220  24.200   6.330
  971BOLB   GL423296  22.340  23.910   6.240
  971BOLB   C1C23297  21.960  23.940   6.610
  971BOLB   C2C23298  21.570  23.780   6.710
  971BOLB   C3C23299  21.210  23.660   6.820
  971BOLB   C4C23300  20.790  23.790   6.780
  971BOLB   C1D23301  22.480  23.810   6.680
  971BOLB   C2D23302  22.860  23.570   6.800
  971BOLB   C3D23303  22.820  23.140   6.610
  971BOLB   C4D23304  22.820  22.600   6.550
  972BOLB   NC123305  13.760   6.990  16.860
  972BOLB   PO123306  13.540   7.370  16.980
  972BOLB   GL123307  13.230   7.140  17.220
  972BOLB   GL223308  13.410   6.870  17.350
  972BOLB   C1A23309  12.950   6.790  17.200
  972BOLB   C2A23310  12.580   6.540  17.090
  972BOLB   C3A23311  12.360   6.430  16.810
  972BOLB   C4A23312  11.930   6.470  16.570
  972BOLB   C1B23313  13.430   6.560  17.760
  972BOLB   C2B23314  13.410   6.060  17.870
  972BOLB   C3B23315  13.650   5.730  18.190
  972BOLB   C4B23316  13.890   5.670  18.540
  972BOLB   NC223317  11.000   4.950  17.820
  972BOLB   PO223318  10.950   4.580  17.530
  972BOLB   GL323319  11.280   4.820  17.350
  972BOLB   GL423320  11.580   4.830  17.490
  972BOLB   C1C23321  11.200   5.090  17.010
  972BOLB   C2C23322  11.500   5.420  16.810
  972BOLB   C3C23323  11.480   5.910  16.520
  972BOLB   C4C23324  11.580   6.300  16.370
  972BOLB   C1D23325  11.950   5.050  17.650
  972BOLB   C2D23326  12.290   5.010  17.540
  972BOLB   C3D23327  12.720   5.020  17.500
  972BOLB   C4D23328  13.080   4.890  17.190
  973BOLB   NC123329  17.790   2.680   9.330
  973BOLB   PO123330  17.990   2.920   9.160
  973BOLB   GL123331  18.340   3.110   9.290
  973BOLB   GL223332  18.670   3.080   9.130
  973BOLB   C1A23333  18.660   3.160   9.660
  973BOLB   C2A23334  18.680   3.500   9.960
  973BOLB   C3A23335  18.410   3.870  10.070
  973BOLB   C4A23336  18.020   3.980   9.830
  973BOLB   C1B23337  18.640   3.550   9.180
  973BOLB   C2B23338  18.340   3.800   9.110
  973BOLB   C3B23339  18.150   4.080   9.320
  973BOLB   C4B23340  18.110   4.460   9.350
  973BOLB   NC223341  17.280   3.060   8.690
  973BOLB   PO223342  16.970   3.210   8.420
  973BOLB   GL323343  17.010   3.460   8.790
  973BOLB   GL423344  17.140   3.670   8.810
  973BOLB   C1C23345  16.760   3.450   9.230
  973BOLB   C2C23346  16.890   3.610   9.560
  973BOLB   C3C23347  17.330   3.730   9.690
  973BOLB   C4C23348  17.750   3.880   9.560
  973BOLB   C1D23349  17.390   3.920   9.050
  973BOLB   C2D23350  17.580   4.240   9.220
  973BOLB   C3D23351  17.780   4.420   9.720
  973BOLB   C4D23352  17.610   4.250  10.060
  974BOLB   NC123353  22.090  23.100  12.800
  974BOLB   PO123354  21.870  22.880  12.420
  974BOLB   GL123355  21.910  23.270  12.210
  974BOLB   GL223356  22.220  23.400  12.300
  974BOLB   C1A23357  21.880  23.680  12.160
  974BOLB   C2A23358  21.780  23.920  11.960
  974BOLB   C3A23359  21.870  24.280  11.860
  974BOLB   C4A23360  22.070  24.740  11.850
  974BOLB   C1B23361  22.420  23.710  12.250
  974BOLB   C2B23362  22.540  23.940  12.580
  974BOLB   C3B23363  22.870  24.240  12.610
  974BOLB   C4B23364  23.300  24.210  12.470
  974BOLB   NC223365  22.530  26.830  11.150
  974BOLB   PO223366  22.790  26.800  11.420
  974BOLB   GL323367  22.760  26.360  11.580
  974BOLB   GL423368  22.690  26.450  11.910
  974BOLB   C1C23369  22.980  25.950  11.630
  974BOLB   C2C23370  22.960  25.510  11.880
  974BOLB   C3C23371  22.890  25.020  11.910
  974BOLB   C4C23372  22.490  24.900  11.900
  974BOLB   C1D23373  22.250  26.220  12.050
  974BOLB   C2D23374  21.850  25.860  12.040
  974BOLB   C3D23375  21.450  25.540  12.220
  974BOLB   C4D23376  21.020  25.540  12.200
  975BOLB   NC123377  19.690   0.550  11.870
  975BOLB   PO123378  19.610   0.820  11.640
  975BOLB   GL123379  19.720   1.350  11.500
  975BOLB   GL223380  19.470   1.450  11.470
  975BOLB   C1A23381  19.740   1.840  11.740
  975BOLB   C2A23382  19.790   2.060  12.130
  975BOLB   C3A23383  19.850   2.290  12.440
  975BOLB   C4A23384  20.020   2.140  12.860
  975BOLB   C1B23385  19.570   1.840  11.260
  975BOLB   C2B23386  19.480   2.220  11.390
  975BOLB   C3B23387  19.130   2.350  11.390
  975BOLB   C4B23388  18.710   2.630  11.500
  975BOLB   NC223389  19.920   0.770  13.080
  975BOLB   PO223390  19.610   0.550  12.950
  975BOLB   GL323391  19.430   0.960  13.020
  975BOLB   GL423392  19.240   1.130  12.690
  975BOLB   C1C23393  19.370   1.170  13.330
  975BOLB   C2C23394  19.390   1.450  13.490
  975BOLB   C3C23395  19.710   1.610  13.350
  975BOLB   C4C23396  20.040   1.770  13.010
  975BOLB   C1D23397  19.460   1.360  12.390
  975BOLB   C2D23398  19.500   1.660  12.190
  975BOLB   C3D23399  19.370   2.060  12.390
  975BOLB   C4D23400  19.320   2.460  12.530
  976BOLB   NC123401  16.170   5.570  16.190
  976BOLB   PO123402  16.550   5.680  16.240
  976BOLB   GL123403  16.610   5.370  16.490
  976BOLB   GL223404  16.410   5.330  16.830
  976BOLB   C1A23405  16.620   4.950  16.630
  976BOLB   C2A23406  16.710   4.500  16.760
  976BOLB   C3A23407  16.530   4.080  16.620
  976BOLB   C4A23408  16.270   3.740  16.820
  976BOLB   C1B23409  16.400   4.950  17.180
  976BOLB   C2B23410  16.130   4.590  17.380
  976BOLB   C3B23411  15.700   4.520  17.520
  976BOLB   C4B23412  15.380   4.290  17.530
  976BOLB   NC223413  15.900   2.100  18.360
  976BOLB   PO223414  15.880   2.000  17.860
  976BOLB   GL323415  16.120   2.320  17.900
  976BOLB   GL423416  16.360   2.340  18.060
  976BOLB   C1C23417  16.000   2.690  17.740
  976BOLB   C2C23418  16.150   3.110  17.740
  976BOLB   C3C23419  16.120   3.440  17.380
  976BOLB   C4C23420  15.990   3.620  17.090
  976BOLB   C1D23421  16.460   2.730  17.920
  976BOLB   C2D23422  16.660   3.140  17.840
  976BOLB   C3D23423  16.490   3.490  17.690
  976BOLB   C4D23424  16.250   3.860  17.620
  977BOLB   NC123425  13.350  20.540   4.820
  977BOLB   PO123426  13.500  20.180   4.830
  977BOLB   GL123427  13.770  19.950   5.070
  977BOLB   GL223428  13.710  19.850   5.400
  977BOLB   C1A23429  14.160  20.150   5.260
  977BOLB   C2A23430  14.460  20.130   5.560
  977BOLB   C3A23431  14.640  19.790   5.760
  977BOLB   C4A23432  14.920  19.410   6.050
  977BOLB   C1B23433  13.770  19.660   5.810
  977BOLB   C2B23434  14.000  19.540   6.200
  977BOLB   C3B23435  14.070  19.570   6.600
  977BOLB   C4B23436  13.780  19.600   6.950
  977BOLB   NC223437  15.580  19.210   3.710
  977BOLB   PO223438  15.250  19.210   4.060
  977BOLB   GL323439  15.190  19.460   4.600
  977BOLB   GL423440  15.020  19.490   4.880
  977BOLB   C1C23441  15.480  19.290   5.020
  977BOLB   C2C23442  15.360  19.150   5.380
  977BOLB   C3C23443  15.560  19.130   5.730
  977BOLB   C4C23444  15.330  19.340   6.060
  977BOLB   C1D23445  15.000  19.090   5.020
  977BOLB   C2D23446  14.910  18.860   5.350
  977BOLB   C3D23447  14.880  18.500   5.540
  977BOLB   C4D23448  14.820  18.070   5.540
  978BOLB   NC123449  19.440   5.830  17.900
  978BOLB   PO123450  19.700   5.680  17.490
  978BOLB   GL123451  20.000   5.340  17.510
  978BOLB   GL223452  19.850   5.010  17.580
  978BOLB   C1A23453  20.310   5.080  17.700
  978BOLB   C2A23454  20.380   4.610  17.880
  978BOLB   C3A23455  20.420   4.300  18.020
  978BOLB   C4A23456  20.370   3.930  18.380
  978BOLB   C1B23457  19.880   4.700  17.840
  978BOLB   C2B23458  19.850   4.230  17.850
  978BOLB   C3B23459  19.890   3.830  17.920
  978BOLB   C4B23460  19.730   3.460  17.790
  978BOLB   NC223461  19.610   1.980  19.820
  978BOLB   PO223462  19.360   2.080  19.540
  978BOLB   GL323463  19.550   2.440  19.390
  978BOLB   GL423464  19.540   2.480  19.060
  978BOLB   C1C23465  19.900   2.710  19.270
  978BOLB   C2C23466  20.020   3.120  19.190
  978BOLB   C3C23467  20.030   3.600  18.940
  978BOLB   C4C23468  20.050   3.770  18.580
  978BOLB   C1D23469  19.480   2.840  19.030
  978BOLB   C2D23470  19.230   3.170  18.960
  978BOLB   C3D23471  19.190   3.630  19.000
  978BOLB   C4D23472  19.310   4.020  19.120
  979BOLB   NC123473   7.670  10.640  17.880
  979BOLB   PO123474   7.950  10.390  18.120
  979BOLB   GL123475   8.250  10.490  17.980
  979BOLB   GL223476   8.180  10.560  17.670
  979BOLB   C1A23477   8.700  10.560  17.960
  979BOLB   C2A23478   9.090  10.480  18.010
  979BOLB   C3A23479   9.330  10.120  18.090
  979BOLB   C4A23480   9.760  10.110  17.970
  979BOLB   C1B23481   8.450  10.890  17.630
  979BOLB   C2B23482   8.880  11.160  17.650
  979BOLB   C3B23483   9.130  11.400  17.330
  979BOLB   C4B23484   9.420  11.740  17.370
  979BOLB   NC223485   9.210   9.730  20.330
  979BOLB   PO223486   9.190  10.210  20.150
  979BOLB   GL323487   9.360  10.370  19.820
  979BOLB   GL423488   9.400  10.690  19.900
  979BOLB   C1C23489   9.500  10.510  19.400
  979BOLB   C2C23490   9.710  10.440  18.940
  979BOLB   C3C23491  10.030  10.460  18.720
  979BOLB   C4C23492  10.090  10.240  18.310
  979BOLB   C1D23493   9.840  10.840  19.780
  979BOLB   C2D23494   9.930  10.680  19.400
  979BOLB   C3D23495  10.060  10.220  19.280
  979BOLB   C4D23496  10.080   9.770  19.180
  980BOLB   NC123497  14.710  22.810  14.080
  980BOLB   PO123498  15.110  22.730  14.150
  980BOLB   GL123499  15.030  23.110  14.310
  980BOLB   GL223500  15.230  23.180  14.640
  980BOLB   C1A23501  14.850  23.420  14.420
  980BOLB   C2A23502  14.640  23.660  14.690
  980BOLB   C3A23503  14.680  24.030  15.030
  980BOLB   C4A23504  14.750  24.430  15.130
  980BOLB   C1B23505  15.130  23.630  14.700
  980BOLB   C2B23506  15.220  24.010  14.880
  980BOLB   C3B23507  15.340  24.350  15.150
  980BOLB   C4B23508  15.430  24.800  15.190
  980BOLB   NC223509  14.640  26.790  16.480
  980BOLB   PO223510  14.890  26.410  16.370
  980BOLB   GL323511  14.720  26.140  16.100
  980BOLB   GL423512  14.890  25.930  15.940
  980BOLB   C1C23513  14.390  25.900  15.850
  980BOLB   C2C23514  14.610  25.630  15.500
  980BOLB   C3C23515  14.780  25.280  15.220
  980BOLB   C4C23516  14.950  24.780  15.200
  980BOLB   C1D23517  15.150  25.570  15.650
  980BOLB   C2D23518  15.280  25.280  15.360
  980BOLB   C3D23519  15.670  25.290  15.060
  980BOLB   C4D23520  15.990  25.210  14.850
  981BOLB   NC123521  20.160   0.800  14.470
  981BOLB   PO123522  20.450   0.840  14.640
  981BOLB   GL123523  20.420   1.240  14.600
  981BOLB   GL223524  20.700   1.390  14.570
  981BOLB   C1A23525  20.300   1.590  14.320
  981BOLB   C2A23526  19.870   1.690  14.260
  981BOLB   C3A23527  19.590   1.750  13.860
  981BOLB   C4A23528  19.560   2.180  13.790
  981BOLB   C1B23529  20.520   1.720  14.850
  981BOLB   C2B23530  20.610   2.190  14.810
  981BOLB   C3B23531  20.820   2.500  14.670
  981BOLB   C4B23532  21.190   2.700  14.570
  981BOLB   NC223533  18.370   1.270  12.340
  981BOLB   PO223534  18.780   1.030  12.250
  981BOLB   GL323535  18.980   1.450  12.300
  981BOLB   GL423536  18.680   1.690  12.190
  981BOLB   C1C23537  19.060   1.750  12.620
  981BOLB   C2C23538  19.050   2.070  12.830
  981BOLB   C3C23539  19.230   2.430  13.040
  981BOLB   C4C23540  19.390   2.480  13.420
  981BOLB   C1D23541  18.790   2.070  12.250
  981BOLB   C2D23542  19.000   2.470  12.140
  981BOLB   C3D23543  19.100   2.760  11.920
  981BOLB   C4D23544  19.430   2.790  11.580
  982BOLB   NC123545  22.250   5.850  14.670
  982BOLB   PO123546  22.620   5.620  14.570
  982BOLB   GL123547  22.900   5.230  14.720
  982BOLB   GL223548  23.060   4.980  14.430
  982BOLB   C1A23549  22.890   4.780  14.870
  982BOLB   C2A23550  23.040   4.430  15.160
  982BOLB   C3A23551  23.050   4.040  15.390
  982BOLB   C4A23552  23.310   3.680  15.240
  982BOLB   C1B23553  23.430   4.860  14.310
  982BOLB   C2B23554  23.600   4.590  14.060
  982BOLB   C3B23555  23.900   4.290  13.940
  982BOLB   C4B23556  23.900   3.900  13.990
  982BOLB   NC223557  23.700   1.590  14.630
  982BOLB   PO223558  23.820   1.690  14.230
  982BOLB   GL323559  23.680   2.100  14.430
  982BOLB   GL423560  23.450   2.320  14.340
  982BOLB   C1C23561  23.760   2.480  14.750
  982BOLB   C2C23562  23.910   2.820  14.670
  982BOLB   C3C23563  23.660   3.200  14.620
  982BOLB   C4C23564  23.470   3.400  14.960
  982BOLB   C1D23565  23.760   2.240  13.920
  982BOLB   C2D23566  23.770   2.280  13.600
  982BOLB   C3D23567  23.850   2.770  13.410
  982BOLB   C4D23568  24.190   3.140  13.340
  983BOLB   NC123569  12.870   3.330  18.320
  983BOLB   PO123570  12.730   3.700  18.640
  983BOLB   GL123571  13.130   3.820  18.580
  983BOLB   GL223572  13.340   3.780  18.770
  983BOLB   C1A23573  13.460   4.050  18.330
  983BOLB   C2A23574  13.650   4.380  18.090
  983BOLB   C3A23575  14.090   4.310  17.970
  983BOLB   C4A23576  14.290   4.350  17.570
  983BOLB   C1B23577  13.520   4.260  18.790
  983BOLB   C2B23578  13.430   4.610  18.450
  983BOLB   C3B23579  13.310   4.940  18.200
  983BOLB   C4B23580  13.350   5.320  17.990
  983BOLB   NC223581  14.070   2.360  17.830
  983BOLB   PO223582  14.010   2.250  17.380
  983BOLB   GL323583  14.120   2.540  17.060
  983BOLB   GL423584  13.860   2.760  16.930
  983BOLB   C1C23585  14.490   2.850  17.180
  983BOLB   C2C23586  14.660   3.290  17.110
  983BOLB   C3C23587  14.430   3.640  17.190
  983BOLB   C4C23588  14.250   3.870  17.390
  983BOLB   C1D23589  13.730   3.240  16.620
  983BOLB   C2D23590  13.900   3.500  16.310
  983BOLB   C3D23591  14.080   3.830  16.300
  983BOLB   C4D23592  14.520   4.050  16.230
  984BOLB   NC123593   9.690  15.040   6.120
  984BOLB   PO123594   9.590  15.280   6.400
  984BOLB   GL123595   9.650  15.310   6.880
  984BOLB   GL223596   9.450  15.350   7.260
  984BOLB   C1A23597   9.880  15.780   7.160
  984BOLB   C2A23598  10.130  16.000   7.350
  984BOLB   C3A23599  10.500  16.050   7.590
  984BOLB   C4A23600  10.780  16.470   7.640
  984BOLB   C1B23601   9.760  15.370   7.650
  984BOLB   C2B23602   9.990  15.750   7.750
  984BOLB   C3B23603  10.190  16.000   8.030
  984BOLB   C4B23604  10.360  16.370   8.050
  984BOLB   NC223605   8.980  17.180   7.380
  984BOLB   PO223606   8.800  17.360   7.730
  984BOLB   GL323607   9.160  17.180   7.860
  984BOLB   GL423608   9.240  16.920   7.760
  984BOLB   C1C23609   9.580  17.230   7.830
  984BOLB   C2C23610  10.020  17.220   7.840
  984BOLB   C3C23611  10.480  17.190   7.900
  984BOLB   C4C23612  10.740  16.770   7.940
  984BOLB   C1D23613   9.320  16.710   8.180
  984BOLB   C2D23614   9.250  16.440   8.430
  984BOLB   C3D23615   9.020  16.130   8.700
  984BOLB   C4D23616   8.600  15.830   8.930
  985BOLB   NC123617  10.720  11.660  15.300
  985BOLB   PO123618  10.420  11.940  15.540
  985BOLB   GL123619  10.160  11.510  15.430
  985BOLB   GL223620  10.340  11.340  15.370
  985BOLB   C1A23621   9.900  11.350  15.680
  985BOLB   C2A23622   9.610  11.140  15.860
  985BOLB   C3A23623   9.290  11.100  15.690
  985BOLB   C4A23624   8.970  10.900  15.570
  985BOLB   C1B23625  10.100  11.190  15.020
  985BOLB   C2B23626   9.790  11.020  14.830
  985BOLB   C3B23627   9.560  11.060  14.490
  985BOLB   C4B23628   9.400  11.180  14.140
  985BOLB   NC223629   6.480  11.080  14.470
  985BOLB   PO223630   6.620  10.730  14.820
  985BOLB   GL323631   7.110  10.850  14.760
  985BOLB   GL423632   7.230  10.900  14.490
  985BOLB   C1C23633   7.540  10.840  14.920
  985BOLB   C2C23634   7.880  10.670  15.170
  985BOLB   C3C23635   8.170  10.860  15.520
  985BOLB   C4C23636   8.520  11.050  15.390
  985BOLB   C1D23637   7.640  11.040  14.470
  985BOLB   C2D23638   7.990  10.990  14.430
  985BOLB   C3D23639   8.130  10.690  14.630
  985BOLB   C4D23640   8.350  10.630  15.020
  986BOLB   NC123641   8.720  17.510   6.210
  986BOLB   PO123642   9.230  17.570   6.270
  986BOLB   GL123643   9.520  17.580   6.600
  986BOLB   GL223644   9.810  17.360   6.760
  986BOLB   C1A23645   9.730  17.780   6.960
  986BOLB   C2A23646   9.870  18.100   7.280
  986BOLB   C3A23647   9.830  18.160   7.740
  986BOLB   C4A23648   9.990  18.020   8.150
  986BOLB   C1B23649  10.040  17.130   6.990
  986BOLB   C2B23650  10.410  16.850   7.060
  986BOLB   C3B23651  10.610  16.900   7.480
  986BOLB   C4B23652  11.000  17.110   7.690
  986BOLB   NC223653   8.530  19.410   8.270
  986BOLB   PO223654   8.480  19.080   8.540
  986BOLB   GL323655   8.860  19.200   8.600
  986BOLB   GL423656   9.020  18.930   8.400
  986BOLB   C1C23657   9.060  19.030   8.930
  986BOLB   C2C23658   9.240  18.670   9.000
  986BOLB   C3C23659   9.610  18.270   8.760
  986BOLB   C4C23660   9.890  18.020   8.570
  986BOLB   C1D23661   9.480  18.770   8.620
  986BOLB   C2D23662   9.900  18.710   8.820
  986BOLB   C3D23663  10.160  18.420   8.920
  986BOLB   C4D23664  10.540  18.480   9.070
  987BOLB   NC123665  17.430   5.150  14.800
  987BOLB   PO123666  17.960   5.040  14.820
  987BOLB   GL123667  17.650   4.690  14.710
  987BOLB   GL223668  17.290   4.650  14.740
  987BOLB   C1A23669  17.670   4.220  14.630
  987BOLB   C2A23670  17.570   3.800  14.560
  987BOLB   C3A23671  17.500   3.520  14.160
  987BOLB   C4A23672  17.180   3.270  13.950
  987BOLB   C1B23673  17.230   4.430  15.150
  987BOLB   C2B23674  16.850   4.120  15.230
  987BOLB   C3B23675  16.580   3.800  15.270
  987BOLB   C4B23676  16.420   3.420  15.130
  987BOLB   NC223677  16.000   0.860  14.230
  987BOLB   PO223678  16.500   1.100  14.390
  987BOLB   GL323679  16.630   1.480  14.400
  987BOLB   GL423680  17.000   1.470  14.530
  987BOLB   C1C23681  16.640   1.880  14.210
  987BOLB   C2C23682  16.890   2.060  13.860
  987BOLB   C3C23683  17.030   2.440  13.720
  987BOLB   C4C23684  16.960   2.940  13.810
  987BOLB   C1D23685  16.980   1.880  14.660
  987BOLB   C2D23686  16.980   2.360  14.650
  987BOLB   C3D23687  17.060   2.790  14.750
  987BOLB   C4D23688  17.260   3.140  14.900
  988BOLB   NC123689  11.010  11.700  14.260
  988BOLB   PO123690  10.960  11.770  13.880
  988BOLB   GL123691  10.710  11.430  13.890
  988BOLB   GL223692  10.550  11.510  13.640
  988BOLB   C1A23693  10.380  11.150  13.930
  988BOLB   C2A23694   9.840  11.060  13.830
  988BOLB   C3A23695   9.500  10.780  13.780
  988BOLB   C4A23696   9.000  10.730  13.700
  988BOLB   C1B23697  10.330  11.530  13.310
  988BOLB   C2B23698   9.940  11.560  13.120
  988BOLB   C3B23699   9.570  11.580  12.890
  988BOLB   C4B23700   9.180  11.460  12.530
  988BOLB   NC223701   7.840   8.870  12.730
  988BOLB   PO223702   7.970   8.940  12.360
  988BOLB   GL323703   8.060   9.300  12.500
  988BOLB   GL423704   7.950   9.380  12.770
  988BOLB   C1C23705   8.390   9.670  12.630
  988BOLB   C2C23706   8.430  10.000  12.880
  988BOLB   C3C23707   8.740  10.150  13.230
  988BOLB   C4C23708   8.770  10.450  13.510
  988BOLB   C1D23709   8.440   9.220  12.850
  988BOLB   C2D23710   8.680   9.570  12.990
  988BOLB   C3D23711   9.080   9.840  13.070
  988BOLB   C4D23712   9.560  10.050  13.010
  989BOLB   NC123713   6.170  16.630  16.000
  989BOLB   PO123714   6.200  16.600  15.560
  989BOLB   GL123715   6.550  16.290  15.650
  989BOLB   GL223716   6.580  16.120  15.970
  989BOLB   C1A23717   6.930  16.260  15.700
  989BOLB   C2A23718   7.430  16.210  15.770
  989BOLB   C3A23719   7.660  16.600  15.940
  989BOLB   C4A23720   7.740  16.830  16.360
  989BOLB   C1B23721   6.910  15.840  15.930
  989BOLB   C2B23722   7.350  15.740  16.000
  989BOLB   C3B23723   7.690  15.770  15.700
  989BOLB   C4B23724   7.920  16.100  15.800
  989BOLB   NC223725   7.860  16.510  18.500
  989BOLB   PO223726   7.650  16.870  18.680
  989BOLB   GL323727   7.950  17.000  18.380
  989BOLB   GL423728   8.030  16.820  18.080
  989BOLB   C1C23729   7.900  17.250  17.950
  989BOLB   C2C23730   7.890  17.210  17.490
  989BOLB   C3C23731   7.800  17.020  17.090
  989BOLB   C4C23732   7.710  16.780  16.780
  989BOLB   C1D23733   8.320  16.990  17.850
  989BOLB   C2D23734   8.750  16.890  17.630
  989BOLB   C3D23735   9.180  16.990  17.610
  989BOLB   C4D23736   9.620  17.040  17.650
  990BOLB   NC123737  12.830  12.120  10.660
  990BOLB   PO123738  12.570  12.320  10.360
  990BOLB   GL123739  12.310  12.370  10.020
  990BOLB   GL223740  12.090  12.590  10.080
  990BOLB   C1A23741  12.060  12.220   9.720
  990BOLB   C2A23742  11.910  12.200   9.240
  990BOLB   C3A23743  11.440  12.180   9.050
  990BOLB   C4A23744  11.340  12.000   8.800
  990BOLB   C1B23745  11.700  12.750   9.940
  990BOLB   C2B23746  11.350  12.370   9.730
  990BOLB   C3B23747  10.940  12.080   9.560
  990BOLB   C4B23748  10.580  12.170   9.290
  990BOLB   NC223749   9.870  11.240   6.930
  990BOLB   PO223750   9.720  10.930   7.290
  990BOLB   GL323751  10.010  11.110   7.410
  990BOLB   GL423752   9.990  11.430   7.440
  990BOLB   C1C23753  10.220  11.330   7.860
  990BOLB   C2C23754  10.480  11.270   8.230
  990BOLB   C3C23755  10.910  11.480   8.290
  990BOLB   C4C23756  11.150  11.660   8.680
  990BOLB   C1D23757  10.310  11.710   7.560
  990BOLB   C2D23758  10.720  11.580   7.790
  990BOLB   C3D23759  11.140  11.360   7.890
  990BOLB   C4D23760  11.410  11.070   7.950
  991BOLB   NC123761  14.970  18.470  18.370
  991BOLB   PO123762  15.210  18.530  18.690
  991BOLB   GL123763  14.980  18.730  18.940
  991BOLB   GL223764  15.010  19.020  19.010
  991BOLB   C1A23765  14.880  18.660  19.370
  991BOLB   C2A23766  14.750  18.870  19.780
  991BOLB   C3A23767  14.540  19.260  19.890
  991BOLB   C4A23768  14.160  19.460  19.870
  991BOLB   C1B23769  14.690  19.150  19.380
  991BOLB   C2B23770  14.310  19.020  19.460
  991BOLB   C3B23771  14.060  18.960  19.760
  991BOLB   C4B23772  13.970  18.990  20.190
  991BOLB   NC223773  12.930  21.330  21.370
  991BOLB   PO223774  13.280  21.160  21.330
  991BOLB   GL323775  13.520  20.950  21.160
  991BOLB   GL423776  13.570  20.950  20.860
  991BOLB   C1C23777  13.400  20.490  20.970
  991BOLB   C2C23778  13.510  20.110  20.790
  991BOLB   C3C23779  13.760  20.020  20.370
  991BOLB   C4C23780  13.770  19.750  20.110
  991BOLB   C1D23781  13.850  21.000  20.500
  991BOLB   C2D23782  14.070  20.890  20.110
  991BOLB   C3D23783  14.120  20.940  19.630
  991BOLB   C4D23784  14.270  20.930  19.180
  992BOLB   NC123785  14.300   6.340  13.980
  992BOLB   PO123786  14.620   5.980  13.870
  992BOLB   GL123787  14.260   5.750  14.010
  992BOLB   GL223788  14.030   5.820  13.800
  992BOLB   C1A23789  14.260   5.290  14.010
  992BOLB   C2A23790  13.940   5.030  13.930
  992BOLB   C3A23791  13.550   4.800  13.680
  992BOLB   C4A23792  13.220   4.610  13.560
  992BOLB   C1B23793  13.730   6.080  14.040
  992BOLB   C2B23794  13.460   5.770  14.060
  992BOLB   C3B23795  13.090   5.460  13.910
  992BOLB   C4B23796  12.870   5.120  13.780
  992BOLB   NC223797  11.220   3.220  14.770
  992BOLB   PO223798  11.470   3.510  14.420
  992BOLB   GL323799  11.620   3.910  14.410
  992BOLB   GL423800  11.900   3.970  14.660
  992BOLB   C1C23801  11.810   4.380  14.350
  992BOLB   C2C23802  12.120   4.640  14.150
  992BOLB   C3C23803  12.440   4.830  13.860
  992BOLB   C4C23804  12.770   4.620  13.760
  992BOLB   C1D23805  11.850   4.370  14.850
  992BOLB   C2D23806  12.010   4.850  14.630
  992BOLB   C3D23807  12.260   5.120  14.290
  992BOLB   C4D23808  12.040   5.130  13.880
  993BOLB   NC123809  23.490   2.620  10.270
  993BOLB   PO123810  23.680   2.880  10.100
  993BOLB   GL123811  23.570   3.250  10.150
  993BOLB   GL223812  23.540   3.180  10.470
  993BOLB   C1A23813  23.450   3.710  10.290
  993BOLB   C2A23814  23.360   4.010  10.560
  993BOLB   C3A23815  23.140   4.100  10.960
  993BOLB   C4A23816  22.650   4.090  10.920
  993BOLB   C1B23817  23.530   3.510  10.780
  993BOLB   C2B23818  23.660   3.890  11.050
  993BOLB   C3B23819  23.600   4.280  10.890
  993BOLB   C4B23820  23.710   4.690  10.730
  993BOLB   NC223821  23.360   2.040  11.220
  993BOLB   PO223822  22.920   2.080  10.970
  993BOLB   GL323823  22.680   2.360  11.140
  993BOLB   GL423824  22.740   2.580  10.880
  993BOLB   C1C23825  22.470   2.640  11.350
  993BOLB   C2C23826  22.190   2.970  11.350
  993BOLB   C3C23827  22.180   3.440  11.170
  993BOLB   C4C23828  22.270   3.890  10.960
  993BOLB   C1D23829  22.300   2.650  10.840
  993BOLB   C2D23830  21.960   2.520  11.160
  993BOLB   C3D23831  21.580   2.340  11.250
  993BOLB   C4D23832  21.230   2.540  11.560
  994BOLB   NC123833   9.300  20.650   7.580
  994BOLB   PO123834   9.450  20.800   7.900
  994BOLB   GL123835   9.770  20.790   8.250
  994BOLB   GL223836   9.880  20.500   8.490
  994BOLB   C1A23837  10.220  20.740   8.190
  994BOLB   C2A23838  10.430  20.390   8.480
  994BOLB   C3A23839  10.590  19.970   8.470
  994BOLB   C4A23840  11.000  19.870   8.610
  994BOLB   C1B23841   9.870  20.310   8.830
  994BOLB   C2B23842   9.880  20.070   9.250
  994BOLB   C3B23843   9.630  20.160   9.530
  994BOLB   C4B23844   9.300  20.390   9.700
  994BOLB   NC223845  11.120  20.170   5.970
  994BOLB   PO223846  11.090  19.760   6.210
  994BOLB   GL323847  11.330  19.610   6.640
  994BOLB   GL423848  11.610  19.710   6.460
  994BOLB   C1C23849  11.220  19.590   7.060
  994BOLB   C2C23850  11.190  19.450   7.450
  994BOLB   C3C23851  11.210  19.440   7.930
  994BOLB   C4C23852  11.330  19.460   8.310
  994BOLB   C1D23853  11.860  19.570   6.810
  994BOLB   C2D23854  12.000  19.170   6.970
  994BOLB   C3D23855  11.920  18.870   7.230
  994BOLB   C4D23856  12.050  18.510   7.330
  995BOLB   NC123857  11.760  10.970  12.030
  995BOLB   PO123858  11.880  10.480  11.990
  995BOLB   GL123859  11.510  10.240  12.000
  995BOLB   GL223860  11.480  10.140  12.270
  995BOLB   C1A23861  11.130  10.260  11.780
  995BOLB   C2A23862  10.930  10.060  11.450
  995BOLB   C3A23863  10.500  10.130  11.250
  995BOLB   C4A23864  10.340  10.280  10.820
  995BOLB   C1B23865  11.290   9.800  12.140
  995BOLB   C2B23866  11.190   9.320  12.110
  995BOLB   C3B23867  10.710   9.170  12.230
  995BOLB   C4B23868  10.380   8.940  12.290
  995BOLB   NC223869   8.890   9.580   9.260
  995BOLB   PO223870   9.230   9.290   9.190
  995BOLB   GL323871   9.550   9.540   9.160
  995BOLB   GL423872   9.820   9.570   9.160
  995BOLB   C1C23873   9.850   9.980   9.420
  995BOLB   C2C23874   9.920  10.410   9.710
  995BOLB   C3C23875  10.140  10.710  10.120
  995BOLB   C4C23876  10.350  10.480  10.410
  995BOLB   C1D23877  10.220   9.570   9.210
  995BOLB   C2D23878  10.550   9.610   9.520
  995BOLB   C3D23879  10.580   9.600  10.000
  995BOLB   C4D23880  10.710   9.760  10.380
  996BOLB   NC123881   9.400   5.340  15.010
  996BOLB   PO123882   9.610   5.170  15.430
  996BOLB   GL123883   9.780   5.540  15.470
  996BOLB   GL223884  10.000   5.590  15.140
  996BOLB   C1A23885  10.200   5.750  15.530
  996BOLB   C2A23886  10.530   5.950  15.640
  996BOLB   C3A23887  10.710   6.340  15.620
  996BOLB   C4A23888  10.950   6.480  15.860
  996BOLB   C1B23889  10.150   5.910  15.030
  996BOLB   C2B23890  10.550   6.150  15.130
  996BOLB   C3B23891  10.570   6.620  15.050
  996BOLB   C4B23892  10.710   7.040  15.010
  996BOLB   NC223893  10.520   4.330  17.240
  996BOLB   PO223894  10.270   4.810  17.110
  996BOLB   GL323895  10.590   5.110  16.990
  996BOLB   GL423896  10.570   5.390  17.250
  996BOLB   C1C23897  10.860   5.390  16.790
  996BOLB   C2C23898  10.980   5.730  16.710
  996BOLB   C3C23899  10.950   6.180  16.570
  996BOLB   C4C23900  11.140   6.300  16.220
  996BOLB   C1D23901  10.980   5.420  17.300
  996BOLB   C2D23902  11.260   5.660  17.150
  996BOLB   C3D23903  11.490   5.880  17.000
  996BOLB   C4D23904  11.400   6.300  16.860
  997BOLB   NC123905  16.310  23.200  12.460
  997BOLB   PO123906  16.060  23.450  12.140
  997BOLB   GL123907  16.190  23.720  12.360
  997BOLB   GL223908  16.070  23.930  12.310
  997BOLB   C1A23909  16.180  23.890  12.820
  997BOLB   C2A23910  15.990  24.280  12.960
  997BOLB   C3A23911  15.990  24.750  13.030
  997BOLB   C4A23912  15.870  25.180  12.960
  997BOLB   C1B23913  15.780  24.270  12.490
  997BOLB   C2B23914  15.640  24.620  12.690
  997BOLB   C3B23915  15.160  24.820  12.560
  997BOLB   C4B23916  14.870  25.110  12.610
  997BOLB   NC223917  14.200  27.050  12.460
  997BOLB   PO223918  13.960  26.800  12.720
  997BOLB   GL323919  14.130  26.540  12.590
  997BOLB   GL423920  14.280  26.330  12.280
  997BOLB   C1C23921  14.380  26.270  12.780
  997BOLB   C2C23922  14.760  25.920  12.680
  997BOLB   C3C23923  15.220  25.710  12.840
  997BOLB   C4C23924  15.730  25.570  12.980
  997BOLB   C1D23925  14.480  25.940  12.280
  997BOLB   C2D23926  14.730  25.560  12.300
  997BOLB   C3D23927  14.760  25.270  11.970
  997BOLB   C4D23928  14.610  25.000  11.610
  998BOLB   NC123929   7.620  15.790  18.760
  998BOLB   PO123930   7.570  16.110  18.410
  998BOLB   GL123931   7.660  16.210  17.980
  998BOLB   GL223932   7.620  16.430  17.870
  998BOLB   C1A23933   8.070  16.230  17.950
  998BOLB   C2A23934   8.370  16.440  17.670
  998BOLB   C3A23935   8.730  16.430  17.490
  998BOLB   C4A23936   9.140  16.250  17.270
  998BOLB   C1B23937   7.910  16.640  17.610
  998BOLB   C2B23938   8.210  16.910  17.360
  998BOLB   C3B23939   8.530  16.890  17.230
  998BOLB   C4B23940   9.030  16.780  17.130
  998BOLB   NC223941   6.910  15.730  17.360
  998BOLB   PO223942   7.040  15.310  17.380
  998BOLB   GL323943   7.470  15.390  17.300
  998BOLB   GL423944   7.560  15.380  17.600
  998BOLB   C1C23945   7.870  15.210  17.290
  998BOLB   C2C23946   8.360  15.280  17.230
  998BOLB   C3C23947   8.760  15.400  17.250
  998BOLB   C4C23948   9.110  15.780  17.260
  998BOLB   C1D23949   7.660  15.800  17.760
  998BOLB   C2D23950   8.070  15.760  18.060
  998BOLB   C3D23951   8.460  15.470  18.000
  998BOLB   C4D23952   8.810  15.540  17.710
  999BOLB   NC123953  10.460  14.050  13.200
  999BOLB   PO123954  10.540  13.590  13.430
  999BOLB   GL123955  10.130  13.630  13.380
  999BOLB   GL223956  10.030  13.280  13.140
  999BOLB   C1A23957   9.650  13.770  13.480
  999BOLB   C2A23958   9.280  13.950  13.300
  999BOLB   C3A23959   9.080  14.000  12.880
  999BOLB   C4A23960   8.660  13.980  12.680
  999BOLB   C1B23961   9.570  13.340  13.190
  999BOLB   C2B23962   9.210  13.370  13.310
  999BOLB   C3B23963   8.810  13.480  13.350
  999BOLB   C4B23964   8.370  13.390  13.290
  999BOLB   NC223965   6.040  13.790  12.590
  999BOLB   PO223966   6.300  13.990  12.190
  999BOLB   GL323967   6.570  14.070  12.390
  999BOLB   GL423968   6.730  14.410  12.490
  999BOLB   C1C23969   7.020  13.980  12.440
  999BOLB   C2C23970   7.480  13.930  12.300
  999BOLB   C3C23971   7.940  14.060  12.410
  999BOLB   C4C23972   8.330  13.960  12.520
  999BOLB   C1D23973   6.980  14.280  12.820
  999BOLB   C2D23974   7.350  13.980  12.820
  999BOLB   C3D23975   7.750  13.730  12.800
  999BOLB   C4D23976   7.860  13.590  12.360
 1000BOLB   NC123977   8.160  14.370   8.260
 1000BOLB   PO123978   8.460  14.820   8.220
 1000BOLB   GL123979   8.740  14.730   8.540
 1000BOLB   GL223980   8.800  14.980   8.750
 1000BOLB   C1A23981   9.180  14.650   8.700
 1000BOLB   C2A23982   9.520  14.470   8.900
 1000BOLB   C3A23983   9.620  14.380   9.320
 1000BOLB   C4A23984   9.550  14.300   9.820
 1000BOLB   C1B23985   9.080  15.230   8.880
 1000BOLB   C2B23986   9.430  15.400   9.230
 1000BOLB   C3B23987   9.900  15.370   9.330
 1000BOLB   C4B23988  10.370  15.280   9.140
 1000BOLB   NC223989   7.140  13.980   9.570
 1000BOLB   PO223990   7.510  13.860   9.340
 1000BOLB   GL323991   7.670  14.060   9.770
 1000BOLB   GL423992   7.490  14.150   9.970
 1000BOLB   C1C23993   7.990  14.020  10.010
 1000BOLB   C2C23994   8.360  13.970  10.160
 1000BOLB   C3C23995   8.790  14.070   9.990
 1000BOLB   C4C23996   9.260  14.240  10.060
 1000BOLB   C1D23997   7.620  14.520   9.980
 1000BOLB   C2D23998   7.790  14.610  10.280
 1000BOLB   C3D23999   7.970  15.180  10.390
 1000BOLB   C4D24000   7.900  15.470  10.650
 1001BOLB   NC124001  13.590  21.090  11.350
 1001BOLB   PO124002  13.590  21.440  11.550
 1001BOLB   GL124003  13.400  21.720  11.250
 1001BOLB   GL224004  13.610  21.990  11.220
 1001BOLB   C1A24005  13.090  22.100  11.240
 1001BOLB   C2A24006  12.790  22.440  11.090
 1001BOLB   C3A24007  12.510  22.640  10.790
 1001BOLB   C4A24008  12.140  22.640  10.590
 1001BOLB   C1B24009  13.660  21.920  10.780
 1001BOLB   C2B24010  13.830  21.910  10.350
 1001BOLB   C3B24011  14.020  22.080   9.910
 1001BOLB   C4B24012  14.130  22.480   9.660
 1001BOLB   NC224013  11.090  23.580   8.730
 1001BOLB   PO224014  11.450  23.840   8.920
 1001BOLB   GL324015  11.500  23.540   9.200
 1001BOLB   GL424016  11.430  23.280   8.940
 1001BOLB   C1C24017  11.490  23.180   9.490
 1001BOLB   C2C24018  11.790  22.950   9.810
 1001BOLB   C3C24019  12.000  22.540   9.740
 1001BOLB   C4C24020  12.100  22.480  10.150
 1001BOLB   C1D24021  11.850  23.180   9.150
 1001BOLB   C2D24022  12.090  22.850   9.330
 1001BOLB   C3D24023  12.450  22.630   9.490
 1001BOLB   C4D24024  12.560  22.300   9.730
 1002BOLB   NC124025  19.410  11.760   7.770
 1002BOLB   PO124026  19.590  11.390   7.720
 1002BOLB   GL124027  19.780  11.510   7.360
 1002BOLB   GL224028  19.570  11.700   7.260
 1002BOLB   C1A24029  19.800  11.320   6.940
 1002BOLB   C2A24030  19.850  11.180   6.590
 1002BOLB   C3A24031  19.740  10.900   6.260
 1002BOLB   C4A24032  19.760  10.650   5.840
 1002BOLB   C1B24033  19.680  11.760   6.750
 1002BOLB   C2B24034  19.670  11.570   6.460
 1002BOLB   C3B24035  19.640  11.380   6.060
 1002BOLB   C4B24036  19.790  11.290   5.700
 1002BOLB   NC224037  21.060   9.040   3.670
 1002BOLB   PO224038  20.710   9.280   3.940
 1002BOLB   GL324039  20.610   9.310   4.350
 1002BOLB   GL424040  20.730   9.040   4.590
 1002BOLB   C1C24041  20.450   9.610   4.650
 1002BOLB   C2C24042  20.370   9.780   5.160
 1002BOLB   C3C24043  20.250  10.200   5.350
 1002BOLB   C4C24044  19.840  10.470   5.430
 1002BOLB   C1D24045  20.660   9.220   4.900
 1002BOLB   C2D24046  20.580   9.320   5.300
 1002BOLB   C3D24047  20.720   9.650   5.510
 1002BOLB   C4D24048  21.060   9.820   5.720
 1003BOLB   NC124049   6.080  17.050  11.770
 1003BOLB   PO124050   6.370  16.820  11.810
 1003BOLB   GL124051   6.820  16.720  11.670
 1003BOLB   GL224052   7.040  16.580  11.360
 1003BOLB   C1A24053   7.340  16.820  11.780
 1003BOLB   C2A24054   7.550  17.010  12.030
 1003BOLB   C3A24055   7.870  16.840  12.040
 1003BOLB   C4A24056   8.120  16.460  12.160
 1003BOLB   C1B24057   7.240  16.290  11.600
 1003BOLB   C2B24058   7.490  16.000  11.670
 1003BOLB   C3B24059   7.860  16.050  11.550
 1003BOLB   C4B24060   8.300  15.810  11.500
 1003BOLB   NC224061   6.080  16.070  12.670
 1003BOLB   PO224062   6.190  15.730  12.870
 1003BOLB   GL324063   6.550  15.790  12.750
 1003BOLB   GL424064   6.550  16.090  12.690
 1003BOLB   C1C24065   7.040  15.930  12.590
 1003BOLB   C2C24066   7.480  15.980  12.470
 1003BOLB   C3C24067   7.830  15.880  12.460
 1003BOLB   C4C24068   8.200  16.070  12.430
 1003BOLB   C1D24069   6.780  16.410  12.940
 1003BOLB   C2D24070   7.070  16.230  13.190
 1003BOLB   C3D24071   7.380  16.060  13.450
 1003BOLB   C4D24072   7.420  15.960  13.970
 1004BOLB   NC124073  10.460  15.460  12.950
 1004BOLB   PO124074  10.420  15.780  13.290
 1004BOLB   GL124075   9.990  15.670  13.200
 1004BOLB   GL224076   9.760  15.460  13.320
 1004BOLB   C1A24077   9.550  15.860  13.250
 1004BOLB   C2A24078   9.370  16.310  13.250
 1004BOLB   C3A24079   9.010  16.380  13.230
 1004BOLB   C4A24080   8.620  16.390  13.340
 1004BOLB   C1B24081   9.390  15.200  13.120
 1004BOLB   C2B24082   8.950  15.070  13.030
 1004BOLB   C3B24083   8.600  14.910  12.910
 1004BOLB   C4B24084   8.210  14.830  13.060
 1004BOLB   NC224085   6.530  17.110  14.150
 1004BOLB   PO224086   6.390  16.670  13.930
 1004BOLB   GL324087   6.660  16.480  13.610
 1004BOLB   GL424088   6.730  16.130  13.500
 1004BOLB   C1C24089   6.930  16.670  13.390
 1004BOLB   C2C24090   7.380  16.620  13.280
 1004BOLB   C3C24091   7.760  16.500  13.280
 1004BOLB   C4C24092   8.210  16.350  13.380
 1004BOLB   C1D24093   6.710  15.800  13.200
 1004BOLB   C2D24094   6.970  15.520  12.940
 1004BOLB   C3D24095   7.200  15.170  12.860
 1004BOLB   C4D24096   7.540  14.930  13.050
 1005BOLB   NC124097  32.120   9.170  16.810
 1005BOLB   PO124098  31.960   9.400  17.130
 1005BOLB   GL124099  31.550   9.440  17.250
 1005BOLB   GL224100  31.550   9.720  17.350
 1005BOLB   C1A24101  31.110   9.620  17.140
 1005BOLB   C2A24102  31.010   9.980  16.990
 1005BOLB   C3A24103  30.600  10.140  16.830
 1005BOLB   C4A24104  30.300  10.430  16.860
 1005BOLB   C1B24105  31.550  10.150  17.180
 1005BOLB   C2B24106  31.420  10.530  17.190
 1005BOLB   C3B24107  31.160  10.830  17.320
 1005BOLB   C4B24108  30.740  11.020  17.130
 1005BOLB   NC224109  31.990  10.900  17.960
 1005BOLB   PO224110  31.940  11.260  17.770
 1005BOLB   GL324111  31.540  11.240  17.430
 1005BOLB   GL424112  31.750  11.170  17.210
 1005BOLB   C1C24113  31.100  11.350  17.360
 1005BOLB   C2C24114  30.760  11.530  17.030
 1005BOLB   C3C24115  30.480  11.340  16.760
 1005BOLB   C4C24116  30.360  10.880  16.820
 1005BOLB   C1D24117  31.450  11.050  16.950
 1005BOLB   C2D24118  31.080  11.200  16.870
 1005BOLB   C3D24119  30.900  11.420  16.540
 1005BOLB   C4D24120  30.580  11.450  16.290
 1006BOLB   NC124121   5.910  18.130  12.860
 1006BOLB   PO124122   6.430  18.010  13.060
 1006BOLB   GL124123   6.930  18.030  12.930
 1006BOLB   GL224124   7.190  18.290  12.880
 1006BOLB   C1A24125   7.370  17.950  13.220
 1006BOLB   C2A24126   7.710  17.650  13.250
 1006BOLB   C3A24127   8.140  17.500  13.180
 1006BOLB   C4A24128   8.100  17.320  13.570
 1006BOLB   C1B24129   7.400  17.980  12.680
 1006BOLB   C2B24130   7.760  17.690  12.630
 1006BOLB   C3B24131   8.210  17.360  12.680
 1006BOLB   C4B24132   8.510  17.230  12.960
 1006BOLB   NC224133   6.800  18.470  14.780
 1006BOLB   PO224134   6.820  18.590  14.340
 1006BOLB   GL324135   7.270  18.350  14.590
 1006BOLB   GL424136   7.380  18.460  14.900
 1006BOLB   C1C24137   7.490  17.910  14.650
 1006BOLB   C2C24138   7.700  17.550  14.690
 1006BOLB   C3C24139   7.810  17.240  14.430
 1006BOLB   C4C24140   8.100  17.110  14.000
 1006BOLB   C1D24141   7.600  18.180  15.100
 1006BOLB   C2D24142   7.910  17.890  15.040
 1006BOLB   C3D24143   8.390  17.920  14.950
 1006BOLB   C4D24144   8.800  17.920  14.880
 1007BOLB   NC124145  26.570   2.760  13.880
 1007BOLB   PO124146  26.980   2.880  13.640
 1007BOLB   GL124147  26.800   3.250  13.840
 1007BOLB   GL224148  26.440   3.220  13.660
 1007BOLB   C1A24149  26.480   3.450  14.090
 1007BOLB   C2A24150  26.200   3.650  14.220
 1007BOLB   C3A24151  25.810   3.660  14.270
 1007BOLB   C4A24152  25.320   3.720  14.310
 1007BOLB   C1B24153  26.330   3.570  13.230
 1007BOLB   C2B24154  26.080   3.940  13.280
 1007BOLB   C3B24155  26.060   4.330  13.510
 1007BOLB   C4B24156  26.260   4.630  13.570
 1007BOLB   NC224157  23.450   6.070  14.080
 1007BOLB   PO224158  23.740   5.760  14.000
 1007BOLB   GL324159  24.040   5.420  13.980
 1007BOLB   GL424160  24.130   5.400  13.710
 1007BOLB   C1C24161  24.340   5.000  13.950
 1007BOLB   C2C24162  24.390   4.600  13.920
 1007BOLB   C3C24163  24.700   4.340  14.140
 1007BOLB   C4C24164  25.030   4.080  14.180
 1007BOLB   C1D24165  24.320   5.020  13.460
 1007BOLB   C2D24166  24.770   4.860  13.570
 1007BOLB   C3D24167  25.130   4.480  13.510
 1007BOLB   C4D24168  25.490   4.280  13.520
 1008BOLB   NC124169  15.590  18.560   8.410
 1008BOLB   PO124170  15.900  18.510   8.030
 1008BOLB   GL124171  15.430  18.640   7.890
 1008BOLB   GL224172  15.230  18.460   7.990
 1008BOLB   C1A24173  15.240  18.790   7.420
 1008BOLB   C2A24174  15.220  18.650   6.950
 1008BOLB   C3A24175  14.950  18.500   6.640
 1008BOLB   C4A24176  14.500  18.580   6.500
 1008BOLB   C1B24177  14.820  18.540   7.730
 1008BOLB   C2B24178  14.630  18.900   7.630
 1008BOLB   C3B24179  14.240  19.190   7.430
 1008BOLB   C4B24180  13.870  19.370   7.400
 1008BOLB   NC224181  13.540  18.630   4.360
 1008BOLB   PO224182  13.220  18.510   4.410
 1008BOLB   GL324183  13.390  18.280   4.770
 1008BOLB   GL424184  13.370  18.030   4.760
 1008BOLB   C1C24185  13.420  18.340   5.220
 1008BOLB   C2C24186  13.580  18.290   5.620
 1008BOLB   C3C24187  13.760  18.310   6.010
 1008BOLB   C4C24188  14.060  18.530   6.300
 1008BOLB   C1D24189  13.430  17.840   5.150
 1008BOLB   C2D24190  13.370  17.750   5.580
 1008BOLB   C3D24191  13.190  18.120   5.880
 1008BOLB   C4D24192  13.190  18.500   6.240
 1009BOLB   NC124193  20.760   9.320   8.650
 1009BOLB   PO124194  21.120   9.090   8.600
 1009BOLB   GL124195  21.140   8.800   8.340
 1009BOLB   GL224196  21.420   8.680   8.440
 1009BOLB   C1A24197  21.060   8.770   7.850
 1009BOLB   C2A24198  21.050   8.600   7.500
 1009BOLB   C3A24199  21.240   8.110   7.350
 1009BOLB   C4A24200  21.370   7.930   6.910
 1009BOLB   C1B24201  21.520   8.510   8.090
 1009BOLB   C2B24202  21.470   8.480   7.760
 1009BOLB   C3B24203  21.540   8.550   7.400
 1009BOLB   C4B24204  21.720   8.420   7.090
 1009BOLB   NC224205  20.860   7.160   5.100
 1009BOLB   PO224206  21.180   7.450   4.980
 1009BOLB   GL324207  21.150   7.690   5.260
 1009BOLB   GL424208  21.000   7.620   5.620
 1009BOLB   C1C24209  21.210   8.090   5.530
 1009BOLB   C2C24210  21.500   8.190   5.820
 1009BOLB   C3C24211  21.700   7.960   6.170
 1009BOLB   C4C24212  21.590   8.000   6.600
 1009BOLB   C1D24213  21.430   7.710   5.820
 1009BOLB   C2D24214  21.450   7.560   6.210
 1009BOLB   C3D24215  21.490   7.480   6.720
 1009BOLB   C4D24216  21.590   7.140   7.050
 1010BOLB   NC124217  15.000   5.380  15.040
 1010BOLB   PO124218  15.170   5.520  14.650
 1010BOLB   GL124219  14.870   5.190  14.570
 1010BOLB   GL224220  14.950   4.920  14.800
 1010BOLB   C1A24221  14.550   5.070  14.380
 1010BOLB   C2A24222  14.210   4.810  14.350
 1010BOLB   C3A24223  13.890   4.550  14.040
 1010BOLB   C4A24224  13.570   4.340  14.030
 1010BOLB   C1B24225  15.030   4.460  14.660
 1010BOLB   C2B24226  15.180   4.000  14.780
 1010BOLB   C3B24227  15.180   3.600  14.510
 1010BOLB   C4B24228  15.240   3.170  14.370
 1010BOLB   NC224229  12.060   3.550  12.870
 1010BOLB   PO224230  12.000   3.880  12.550
 1010BOLB   GL324231  12.210   4.240  12.720
 1010BOLB   GL424232  12.370   4.430  12.540
 1010BOLB   C1C24233  12.450   4.280  13.110
 1010BOLB   C2C24234  12.480   4.010  13.490
 1010BOLB   C3C24235  12.900   4.060  13.620
 1010BOLB   C4C24236  13.360   4.090  13.700
 1010BOLB   C1D24237  12.810   4.460  12.770
 1010BOLB   C2D24238  13.280   4.320  12.760
 1010BOLB   C3D24239  13.670   4.080  12.610
 1010BOLB   C4D24240  14.020   4.140  12.480
 1011BOLB   NC124241  11.270  18.170  11.850
 1011BOLB   PO124242  10.840  17.910  12.030
 1011BOLB   GL124243  10.800  18.020  11.700
 1011BOLB   GL224244  10.450  17.910  11.440
 1011BOLB   C1A24245  10.560  18.360  11.700
 1011BOLB   C2A24246  10.220  18.390  11.440
 1011BOLB   C3A24247   9.920  18.570  11.130
 1011BOLB   C4A24248   9.740  18.520  10.670
 1011BOLB   C1B24249  10.180  17.980  11.140
 1011BOLB   C2B24250  10.140  18.090  10.720
 1011BOLB   C3B24251   9.840  17.950  10.410
 1011BOLB   C4B24252   9.360  17.970  10.470
 1011BOLB   NC224253   7.760  19.480   9.770
 1011BOLB   PO224254   7.600  19.090   9.480
 1011BOLB   GL324255   8.060  19.000   9.630
 1011BOLB   GL424256   8.060  19.140   9.850
 1011BOLB   C1C24257   8.350  18.600   9.710
 1011BOLB   C2C24258   8.760  18.610   9.840
 1011BOLB   C3C24259   8.980  18.310  10.130
 1011BOLB   C4C24260   9.380  18.490  10.350
 1011BOLB   C1D24261   8.270  18.870  10.140
 1011BOLB   C2D24262   8.490  18.360  10.210
 1011BOLB   C3D24263   8.570  17.870  10.180
 1011BOLB   C4D24264   8.950  17.760  10.080
 1012BOLB   NC124265  13.000  19.010   9.420
 1012BOLB   PO124266  13.380  19.270   9.520
 1012BOLB   GL124267  13.070  19.500   9.280
 1012BOLB   GL224268  12.980  19.350   8.990
 1012BOLB   C1A24269  12.770  19.930   9.170
 1012BOLB   C2A24270  12.530  20.210   8.900
 1012BOLB   C3A24271  12.280  20.320   8.600
 1012BOLB   C4A24272  11.960  20.100   8.320
 1012BOLB   C1B24273  12.740  19.430   8.620
 1012BOLB   C2B24274  12.710  19.490   8.150
 1012BOLB   C3B24275  12.820  19.850   7.930
 1012BOLB   C4B24276  13.050  20.180   7.520
 1012BOLB   NC224277  11.890  20.540   5.900
 1012BOLB   PO224278  11.490  20.500   6.130
 1012BOLB   GL324279  11.780  20.280   6.290
 1012BOLB   GL424280  12.160  20.310   6.310
 1012BOLB   C1C24281  11.920  20.030   6.600
 1012BOLB   C2C24282  12.130  19.980   6.960
 1012BOLB   C3C24283  12.000  19.950   7.420
 1012BOLB   C4C24284  11.980  20.070   7.850
 1012BOLB   C1D24285  12.400  20.060   6.500
 1012BOLB   C2D24286  12.890  19.880   6.650
 1012BOLB   C3D24287  13.090  20.100   7.050
 1012BOLB   C4D24288  13.420  20.280   7.130
 1013BOLB   NC124289  16.260  14.420   3.270
 1013BOLB   PO124290  16.040  14.750   3.300
 1013BOLB   GL124291  15.900  14.500   3.650
 1013BOLB   GL224292  15.990  14.750   3.920
 1013BOLB   C1A24293  15.860  14.290   4.030
 1013BOLB   C2A24294  16.080  14.150   4.480
 1013BOLB   C3A24295  16.220  14.200   4.920
 1013BOLB   C4A24296  16.110  14.230   5.330
 1013BOLB   C1B24297  16.060  14.770   4.380
 1013BOLB   C2B24298  15.930  14.630   4.750
 1013BOLB   C3B24299  15.680  14.480   5.090
 1013BOLB   C4B24300  15.560  14.360   5.420
 1013BOLB   NC224301  16.000  13.820   8.360
 1013BOLB   PO224302  15.930  13.810   7.880
 1013BOLB   GL324303  15.870  13.860   7.440
 1013BOLB   GL424304  15.600  13.720   7.310
 1013BOLB   C1C24305  16.110  13.950   7.000
 1013BOLB   C2C24306  16.080  14.050   6.650
 1013BOLB   C3C24307  16.230  13.890   6.230
 1013BOLB   C4C24308  16.230  14.140   5.900
 1013BOLB   C1D24309  15.330  13.630   6.960
 1013BOLB   C2D24310  15.130  13.750   6.600
 1013BOLB   C3D24311  15.300  13.730   6.150
 1013BOLB   C4D24312  15.420  13.380   5.910
 1014BOLB   NC124313  12.230  19.180  12.340
 1014BOLB   PO124314  11.880  18.960  12.420
 1014BOLB   GL124315  11.300  19.130  12.340
 1014BOLB   GL224316  11.060  18.980  12.310
 1014BOLB   C1A24317  11.070  19.490  12.340
 1014BOLB   C2A24318  10.690  19.780  12.380
 1014BOLB   C3A24319  10.310  20.010  12.410
 1014BOLB   C4A24320  10.070  20.290  12.400
 1014BOLB   C1B24321  10.660  19.160  12.120
 1014BOLB   C2B24322  10.260  19.300  12.010
 1014BOLB   C3B24323  10.050  19.580  12.150
 1014BOLB   C4B24324   9.630  19.740  12.020
 1014BOLB   NC224325   7.720  22.020  12.830
 1014BOLB   PO224326   8.230  21.830  12.780
 1014BOLB   GL324327   8.680  21.700  12.850
 1014BOLB   GL424328   8.880  21.870  12.840
 1014BOLB   C1C24329   8.940  21.290  12.700
 1014BOLB   C2C24330   9.360  21.290  12.830
 1014BOLB   C3C24331   9.630  20.990  12.890
 1014BOLB   C4C24332   9.790  20.520  12.800
 1014BOLB   C1D24333   9.240  21.810  12.680
 1014BOLB   C2D24334   9.690  21.700  12.810
 1014BOLB   C3D24335  10.080  21.820  12.710
 1014BOLB   C4D24336  10.520  21.960  12.520
 1015BOLB   NC124337  18.800  23.160  10.710
 1015BOLB   PO124338  18.820  23.340  11.120
 1015BOLB   GL124339  19.110  23.780  11.140
 1015BOLB   GL224340  19.040  24.120  11.260
 1015BOLB   C1A24341  19.250  24.050  10.820
 1015BOLB   C2A24342  19.180  24.350  10.550
 1015BOLB   C3A24343  19.160  24.760  10.320
 1015BOLB   C4A24344  18.760  24.930  10.290
 1015BOLB   C1B24345  19.160  24.380  11.470
 1015BOLB   C2B24346  19.250  24.780  11.420
 1015BOLB   C3B24347  19.410  25.170  11.300
 1015BOLB   C4B24348  19.340  25.430  10.930
 1015BOLB   NC224349  18.810  27.620  10.660
 1015BOLB   PO224350  18.800  27.120  10.640
 1015BOLB   GL324351  18.460  26.930  10.600
 1015BOLB   GL424352  18.340  27.070  10.840
 1015BOLB   C1C24353  18.260  26.500  10.600
 1015BOLB   C2C24354  18.490  26.150  10.540
 1015BOLB   C3C24355  18.520  25.770  10.610
 1015BOLB   C4C24356  18.610  25.420  10.370
 1015BOLB   C1D24357  18.260  26.590  11.100
 1015BOLB   C2D24358  18.420  26.160  11.040
 1015BOLB   C3D24359  18.380  25.800  11.170
 1015BOLB   C4D24360  18.540  25.400  11.360
 1016BOLB   NC124361  16.220   1.520  13.000
 1016BOLB   PO124362  16.010   1.810  12.610
 1016BOLB   GL124363  16.150   2.200  12.860
 1016BOLB   GL224364  16.020   2.100  13.180
 1016BOLB   C1A24365  16.530   2.380  12.750
 1016BOLB   C2A24366  16.890   2.670  12.600
 1016BOLB   C3A24367  17.130   2.900  12.210
 1016BOLB   C4A24368  17.650   3.100  12.230
 1016BOLB   C1B24369  16.010   2.580  13.050
 1016BOLB   C2B24370  16.020   2.980  13.100
 1016BOLB   C3B24371  16.150   3.320  12.910
 1016BOLB   C4B24372  16.180   3.270  12.460
 1016BOLB   NC224373  17.850   0.890  13.100
 1016BOLB   PO224374  18.240   1.130  12.860
 1016BOLB   GL324375  18.410   1.490  12.830
 1016BOLB   GL424376  18.250   1.630  13.110
 1016BOLB   C1C24377  18.590   1.880  12.760
 1016BOLB   C2C24378  18.440   2.260  12.810
 1016BOLB   C3C24379  18.260   2.650  12.690
 1016BOLB   C4C24380  18.100   2.960  12.380
 1016BOLB   C1D24381  18.740   1.760  13.260
 1016BOLB   C2D24382  18.800   2.040  13.630
 1016BOLB   C3D24383  18.920   2.400  13.530
 1016BOLB   C4D24384  18.770   2.300  13.180
 1017BOLB   NC124385  18.630  12.280  20.720
 1017BOLB   PO124386  18.260  12.420  20.660
 1017BOLB   GL124387  18.090  12.500  21.000
 1017BOLB   GL224388  18.120  12.090  21.010
 1017BOLB   C1A24389  18.120  12.580  21.500
 1017BOLB   C2A24390  17.920  12.590  21.920
 1017BOLB   C3A24391  17.890  12.700  22.380
 1017BOLB   C4A24392  17.740  12.880  22.880
 1017BOLB   C1B24393  18.320  12.170  21.330
 1017BOLB   C2B24394  18.190  12.070  21.790
 1017BOLB   C3B24395  18.060  12.140  22.210
 1017BOLB   C4B24396  18.040  11.810  22.610
 1017BOLB   NC224397  16.840  13.540  25.230
 1017BOLB   PO224398  16.720  13.520  24.790
 1017BOLB   GL324399  16.980  13.470  24.490
 1017BOLB   GL424400  16.700  13.350  24.300
 1017BOLB   C1C24401  17.270  13.410  24.250
 1017BOLB   C2C24402  17.380  13.470  23.870
 1017BOLB   C3C24403  17.350  13.340  23.390
 1017BOLB   C4C24404  17.530  13.240  23.040
 1017BOLB   C1D24405  16.880  13.500  23.800
 1017BOLB   C2D24406  16.920  13.740  23.400
 1017BOLB   C3D24407  16.650  13.940  23.160
 1017BOLB   C4D24408  16.570  14.250  22.980
 1018BOLB   NC124409  23.900   3.140  19.640
 1018BOLB   PO124410  23.880   3.100  19.200
 1018BOLB   GL124411  23.630   3.410  19.210
 1018BOLB   GL224412  23.480   3.600  19.540
 1018BOLB   C1A24413  23.270   3.670  19.080
 1018BOLB   C2A24414  22.940   3.810  18.840
 1018BOLB   C3A24415  22.720   3.720  18.450
 1018BOLB   C4A24416  23.030   3.640  18.060
 1018BOLB   C1B24417  23.650   3.900  19.330
 1018BOLB   C2B24418  23.710   4.390  19.260
 1018BOLB   C3B24419  23.670   4.550  18.880
 1018BOLB   C4B24420  23.650   4.880  18.610
 1018BOLB   NC224421  21.750   5.460  16.730
 1018BOLB   PO224422  22.170   5.600  16.630
 1018BOLB   GL324423  22.220   5.130  16.870
 1018BOLB   GL424424  22.340   4.830  16.690
 1018BOLB   C1C24425  22.560   4.890  17.180
 1018BOLB   C2C24426  22.760   4.490  17.240
 1018BOLB   C3C24427  23.050   4.260  17.510
 1018BOLB   C4C24428  22.970   3.850  17.740
 1018BOLB   C1D24429  22.500   4.380  16.830
 1018BOLB   C2D24430  22.840   4.120  16.960
 1018BOLB   C3D24431  23.080   3.910  17.070
 1018BOLB   C4D24432  23.420   3.810  17.460
 1019BOLB   NC124433  14.730  16.570   3.510
 1019BOLB   PO124434  14.330  16.380   3.500
 1019BOLB   GL124435  14.570  16.280   3.930
 1019BOLB   GL224436  14.500  16.150   4.180
 1019BOLB   C1A24437  14.970  16.190   4.220
 1019BOLB   C2A24438  15.380  16.100   4.260
 1019BOLB   C3A24439  15.730  15.970   4.530
 1019BOLB   C4A24440  15.950  15.740   4.680
 1019BOLB   C1B24441  14.650  15.720   4.320
 1019BOLB   C2B24442  14.520  15.260   4.460
 1019BOLB   C3B24443  14.800  14.880   4.420
 1019BOLB   C4B24444  15.050  14.490   4.410
 1019BOLB   NC224445  17.150  15.870   2.750
 1019BOLB   PO224446  17.160  15.530   3.000
 1019BOLB   GL324447  17.110  15.560   3.390
 1019BOLB   GL424448  17.220  15.910   3.540
 1019BOLB   C1C24449  17.060  15.520   3.830
 1019BOLB   C2C24450  16.880  15.390   4.250
 1019BOLB   C3C24451  16.560  15.620   4.510
 1019BOLB   C4C24452  16.280  15.520   4.890
 1019BOLB   C1D24453  17.140  15.970   4.010
 1019BOLB   C2D24454  17.300  16.050   4.500
 1019BOLB   C3D24455  17.450  15.990   4.880
 1019BOLB   C4D24456  17.280  16.020   5.310
 1020BOLB   NC124457  14.790   1.570  16.750
 1020BOLB   PO124458  14.800   1.900  17.020
 1020BOLB   GL124459  15.140   2.250  16.850
 1020BOLB   GL224460  15.370   2.230  16.530
 1020BOLB   C1A24461  15.300   2.680  16.770
 1020BOLB   C2A24462  15.460   3.010  16.900
 1020BOLB   C3A24463  15.730   3.300  16.870
 1020BOLB   C4A24464  15.870   3.520  16.550
 1020BOLB   C1B24465  14.950   2.560  16.390
 1020BOLB   C2B24466  14.730   2.920  16.280
 1020BOLB   C3B24467  14.290   3.090  16.270
 1020BOLB   C4B24468  14.350   3.450  16.620
 1020BOLB   NC224469  15.310   1.400  15.310
 1020BOLB   PO224470  15.730   1.470  15.060
 1020BOLB   GL324471  15.710   1.780  15.310
 1020BOLB   GL424472  15.580   1.720  15.620
 1020BOLB   C1C24473  15.780   2.230  15.390
 1020BOLB   C2C24474  15.820   2.690  15.560
 1020BOLB   C3C24475  15.730   3.100  15.780
 1020BOLB   C4C24476  15.800   3.380  16.120
 1020BOLB   C1D24477  15.740   2.010  15.890
 1020BOLB   C2D24478  15.700   2.290  16.210
 1020BOLB   C3D24479  15.750   2.660  16.500
 1020BOLB   C4D24480  15.950   2.900  16.720
 1021BOLB   NC124481   8.280  18.280   8.450
 1021BOLB   PO124482   8.710  18.120   8.250
 1021BOLB   GL124483   9.060  17.900   8.370
 1021BOLB   GL224484   9.090  17.740   8.070
 1021BOLB   C1A24485   9.440  17.730   8.470
 1021BOLB   C2A24486   9.750  17.480   8.710
 1021BOLB   C3A24487  10.060  17.370   8.930
 1021BOLB   C4A24488  10.430  17.200   9.200
 1021BOLB   C1B24489   9.310  17.330   8.320
 1021BOLB   C2B24490   9.620  17.020   8.530
 1021BOLB   C3B24491   9.820  16.730   8.430
 1021BOLB   C4B24492   9.820  16.350   8.230
 1021BOLB   NC224493  11.310  16.750  11.080
 1021BOLB   PO224494  10.880  16.560  11.220
 1021BOLB   GL324495  10.680  16.550  10.860
 1021BOLB   GL424496  10.730  16.240  10.790
 1021BOLB   C1C24497  10.580  16.730  10.500
 1021BOLB   C2C24498  10.700  16.940  10.000
 1021BOLB   C3C24499  10.890  16.920   9.680
 1021BOLB   C4C24500  10.750  16.910   9.260
 1021BOLB   C1D24501  10.350  16.270  10.570
 1021BOLB   C2D24502   9.970  16.100  10.680
 1021BOLB   C3D24503   9.570  15.970  10.950
 1021BOLB   C4D24504   9.300  16.040  11.360
 1022BOLB   NC124505  17.050   7.230  11.630
 1022BOLB   PO124506  16.810   7.310  11.260
 1022BOLB   GL124507  16.880   6.910  10.920
 1022BOLB   GL224508  17.070   6.600  10.790
 1022BOLB   C1A24509  16.540   6.690  10.710
 1022BOLB   C2A24510  16.410   6.350  10.480
 1022BOLB   C3A24511  16.370   6.020  10.210
 1022BOLB   C4A24512  16.190   5.660  10.270
 1022BOLB   C1B24513  16.950   6.270  10.630
 1022BOLB   C2B24514  16.800   5.950  10.490
 1022BOLB   C3B24515  16.710   5.670  10.140
 1022BOLB   C4B24516  16.820   5.420   9.780
 1022BOLB   NC224517  14.910   3.600   9.150
 1022BOLB   PO224518  15.060   4.040   8.820
 1022BOLB   GL324519  15.480   4.330   8.840
 1022BOLB   GL424520  15.780   4.270   8.660
 1022BOLB   C1C24521  15.720   4.610   9.080
 1022BOLB   C2C24522  15.720   4.650   9.560
 1022BOLB   C3C24523  15.800   4.950   9.940
 1022BOLB   C4C24524  15.950   5.360   9.960
 1022BOLB   C1D24525  15.690   4.770   8.650
 1022BOLB   C2D24526  15.860   5.160   8.850
 1022BOLB   C3D24527  15.830   5.570   8.680
 1022BOLB   C4D24528  15.910   5.970   8.710
 1023BOLB   NC124529   7.960   7.560  14.580
 1023BOLB   PO124530   8.260   7.710  14.370
 1023BOLB   GL124531   8.590   7.930  14.260
 1023BOLB   GL224532   8.790   7.890  14.390
 1023BOLB   C1A24533   8.690   8.230  13.990
 1023BOLB   C2A24534   8.930   8.440  13.540
 1023BOLB   C3A24535   9.290   8.300  13.360
 1023BOLB   C4A24536   9.650   8.370  13.200
 1023BOLB   C1B24537   9.090   7.740  14.280
 1023BOLB   C2B24538   9.330   7.610  13.950
 1023BOLB   C3B24539   9.750   7.620  13.880
 1023BOLB   C4B24540  10.070   7.670  14.070
 1023BOLB   NC224541   9.130   7.050  11.620
 1023BOLB   PO224542   9.380   6.940  12.030
 1023BOLB   GL324543   9.670   7.110  11.880
 1023BOLB   GL424544   9.960   6.890  11.940
 1023BOLB   C1C24545   9.800   7.570  11.900
 1023BOLB   C2C24546   9.740   7.820  12.170
 1023BOLB   C3C24547   9.820   7.990  12.570
 1023BOLB   C4C24548   9.950   8.330  12.820
 1023BOLB   C1D24549  10.300   6.910  12.310
 1023BOLB   C2D24550  10.590   7.090  12.540
 1023BOLB   C3D24551  10.830   7.420  12.630
 1023BOLB   C4D24552  11.250   7.540  12.780
 1024BOLB   NC124553  15.740  15.910   7.330
 1024BOLB   PO124554  15.760  16.160   7.610
 1024BOLB   GL124555  15.780  16.440   7.230
 1024BOLB   GL224556  15.490  16.440   7.020
 1024BOLB   C1A24557  15.940  16.700   6.790
 1024BOLB   C2A24558  16.190  16.640   6.430
 1024BOLB   C3A24559  16.140  16.930   6.080
 1024BOLB   C4A24560  16.350  17.160   5.810
 1024BOLB   C1B24561  15.530  16.410   6.690
 1024BOLB   C2B24562  15.750  16.310   6.250
 1024BOLB   C3B24563  15.820  16.390   5.780
 1024BOLB   C4B24564  15.700  16.300   5.410
 1024BOLB   NC224565  16.020  17.220   3.330
 1024BOLB   PO224566  16.380  17.520   3.370
 1024BOLB   GL324567  16.350  17.460   3.780
 1024BOLB   GL424568  16.140  17.640   4.110
 1024BOLB   C1C24569  16.670  17.440   4.140
 1024BOLB   C2C24570  16.620  17.460   4.540
 1024BOLB   C3C24571  16.590  17.260   5.050
 1024BOLB   C4C24572  16.640  17.310   5.530
 1024BOLB   C1D24573  16.040  17.870   4.390
 1024BOLB   C2D24574  16.230  18.160   4.640
 1024BOLB   C3D24575  16.640  18.280   4.660
 1024BOLB   C4D24576  16.930  17.970   4.740
 1025BOLB   NC124577  11.480  18.340  11.270
 1025BOLB   PO124578  11.230  17.950  11.360
 1025BOLB   GL124579  10.890  17.900  11.090
 1025BOLB   GL224580  10.650  17.600  11.010
 1025BOLB   C1A24581  10.620  18.240  11.040
 1025BOLB   C2A24582  10.280  18.550  10.810
 1025BOLB   C3A24583   9.990  18.970  10.680
 1025BOLB   C4A24584   9.900  19.240  10.320
 1025BOLB   C1B24585  10.230  17.480  10.820
 1025BOLB   C2B24586   9.980  17.340  10.470
 1025BOLB   C3B24587   9.640  17.020  10.540
 1025BOLB   C4B24588   9.350  16.930  10.870
 1025BOLB   NC224589   8.950  20.220   8.350
 1025BOLB   PO224590   8.760  19.910   8.250
 1025BOLB   GL324591   8.990  19.730   8.620
 1025BOLB   GL424592   9.220  19.870   8.610
 1025BOLB   C1C24593   9.140  19.530   9.000
 1025BOLB   C2C24594   9.270  19.310   9.400
 1025BOLB   C3C24595   9.530  19.250   9.720
 1025BOLB   C4C24596   9.760  19.440  10.030
 1025BOLB   C1D24597   9.540  19.810   8.900
 1025BOLB   C2D24598   9.690  19.490   9.200
 1025BOLB   C3D24599   9.950  19.470   9.450
 1025BOLB   C4D24600   9.990  19.080   9.690
 1026BOLB   NC124601  15.910  26.850   8.810
 1026BOLB   PO124602  16.160  26.610   8.520
 1026BOLB   GL124603  16.180  26.250   8.820
 1026BOLB   GL224604  16.040  26.350   9.110
 1026BOLB   C1A24605  16.500  26.000   9.120
 1026BOLB   C2A24606  16.630  25.640   9.330
 1026BOLB   C3A24607  16.710  25.120   9.390
 1026BOLB   C4A24608  16.670  24.810   9.030
 1026BOLB   C1B24609  15.900  25.890   9.090
 1026BOLB   C2B24610  16.190  25.550   8.880
 1026BOLB   C3B24611  16.250  25.170   8.740
 1026BOLB   C4B24612  16.320  24.720   8.680
 1026BOLB   NC224613  17.250  25.400   6.820
 1026BOLB   PO224614  17.550  25.520   7.180
 1026BOLB   GL324615  17.610  25.050   7.210
 1026BOLB   GL424616  17.470  24.850   6.980
 1026BOLB   C1C24617  17.580  24.860   7.560
 1026BOLB   C2C24618  17.260  24.880   7.890
 1026BOLB   C3C24619  17.000  24.900   8.200
 1026BOLB   C4C24620  16.810  24.860   8.660
 1026BOLB   C1D24621  17.570  24.420   7.110
 1026BOLB   C2D24622  17.550  24.130   7.380
 1026BOLB   C3D24623  17.590  23.810   7.730
 1026BOLB   C4D24624  17.370  23.400   7.790
 1027BOLB   NC124625  31.600   8.520  17.170
 1027BOLB   PO124626  31.620   8.990  16.980
 1027BOLB   GL124627  31.250   9.290  16.760
 1027BOLB   GL224628  31.380   9.590  16.790
 1027BOLB   C1A24629  30.880   9.250  16.920
 1027BOLB   C2A24630  30.630   9.600  16.930
 1027BOLB   C3A24631  30.290   9.720  16.690
 1027BOLB   C4A24632  30.230  10.140  16.500
 1027BOLB   C1B24633  30.960   9.660  16.600
 1027BOLB   C2B24634  30.680   9.880  16.450
 1027BOLB   C3B24635  30.460   9.760  16.120
 1027BOLB   C4B24636  30.180   9.810  16.160
 1027BOLB   NC224637  32.180  10.050  16.630
 1027BOLB   PO224638  32.560  10.410  16.670
 1027BOLB   GL324639  32.030  10.570  16.670
 1027BOLB   GL424640  31.720  10.250  16.670
 1027BOLB   C1C24641  31.600  10.720  16.590
 1027BOLB   C2C24642  31.200  10.670  16.800
 1027BOLB   C3C24643  30.880  10.670  16.770
 1027BOLB   C4C24644  30.560  10.460  16.420
 1027BOLB   C1D24645  31.320  10.240  16.680
 1027BOLB   C2D24646  31.000  10.300  16.440
 1027BOLB   C3D24647  30.860  10.620  16.040
 1027BOLB   C4D24648  30.810  10.890  15.660
 1028BOLB   NC124649  25.990  20.410  12.540
 1028BOLB   PO124650  26.110  20.030  12.270
 1028BOLB   GL124651  26.480  20.310  12.420
 1028BOLB   GL224652  26.640  20.200  12.110
 1028BOLB   C1A24653  26.710  20.730  12.460
 1028BOLB   C2A24654  27.000  20.780  12.200
 1028BOLB   C3A24655  27.380  20.650  12.160
 1028BOLB   C4A24656  27.670  20.660  11.880
 1028BOLB   C1B24657  26.850  20.450  11.940
 1028BOLB   C2B24658  27.190  20.410  11.680
 1028BOLB   C3B24659  27.330  20.230  11.280
 1028BOLB   C4B24660  27.650  20.270  10.960
 1028BOLB   NC224661  29.640  22.740  11.600
 1028BOLB   PO224662  29.310  22.450  11.350
 1028BOLB   GL324663  29.190  22.190  11.660
 1028BOLB   GL424664  29.260  21.910  11.610
 1028BOLB   C1C24665  28.820  21.750  11.750
 1028BOLB   C2C24666  28.590  21.500  11.470
 1028BOLB   C3C24667  28.310  21.180  11.480
 1028BOLB   C4C24668  28.100  20.710  11.600
 1028BOLB   C1D24669  29.050  21.820  11.310
 1028BOLB   C2D24670  28.710  21.840  11.060
 1028BOLB   C3D24671  28.530  21.780  10.690
 1028BOLB   C4D24672  28.280  21.600  10.300
 1029BOLB   NC124673  24.450  25.390  17.410
 1029BOLB   PO124674  24.010  25.650  17.350
 1029BOLB   GL124675  23.950  25.450  16.930
 1029BOLB   GL224676  24.140  25.280  16.810
 1029BOLB   C1A24677  23.730  25.300  16.570
 1029BOLB   C2A24678  23.830  24.930  16.320
 1029BOLB   C3A24679  23.570  24.610  16.270
 1029BOLB   C4A24680  23.620  24.130  16.420
 1029BOLB   C1B24681  23.830  24.920  16.860
 1029BOLB   C2B24682  23.410  24.840  17.050
 1029BOLB   C3B24683  23.260  24.490  17.160
 1029BOLB   C4B24684  23.240  24.280  17.550
 1029BOLB   NC224685  22.710  22.400  15.360
 1029BOLB   PO224686  22.260  22.580  15.380
 1029BOLB   GL324687  22.480  22.900  15.330
 1029BOLB   GL424688  22.740  22.820  14.990
 1029BOLB   C1C24689  22.380  23.280  15.620
 1029BOLB   C2C24690  22.470  23.720  15.780
 1029BOLB   C3C24691  22.770  23.900  16.040
 1029BOLB   C4C24692  23.210  23.910  16.350
 1029BOLB   C1D24693  22.890  23.150  15.090
 1029BOLB   C2D24694  23.190  23.470  15.090
 1029BOLB   C3D24695  23.630  23.730  14.890
 1029BOLB   C4D24696  24.020  23.820  14.740
 1030BOLB   NC124697  24.790  20.740  15.340
 1030BOLB   PO124698  25.010  20.530  15.660
 1030BOLB   GL124699  25.090  20.970  15.650
 1030BOLB   GL224700  25.320  21.010  15.270
 1030BOLB   C1A24701  25.300  21.420  15.880
 1030BOLB   C2A24702  25.570  21.650  15.730
 1030BOLB   C3A24703  25.770  21.980  15.580
 1030BOLB   C4A24704  26.050  22.320  15.790
 1030BOLB   C1B24705  25.650  21.360  15.230
 1030BOLB   C2B24706  25.870  21.750  15.070
 1030BOLB   C3B24707  26.010  22.150  15.080
 1030BOLB   C4B24708  26.210  22.380  15.280
 1030BOLB   NC224709  25.960  24.880  16.720
 1030BOLB   PO224710  26.340  24.610  16.540
 1030BOLB   GL324711  26.340  24.210  16.320
 1030BOLB   GL424712  26.110  24.210  16.120
 1030BOLB   C1C24713  26.460  23.830  16.470
 1030BOLB   C2C24714  26.490  23.390  16.380
 1030BOLB   C3C24715  26.470  23.100  16.000
 1030BOLB   C4C24716  26.260  22.680  15.910
 1030BOLB   C1D24717  25.700  23.970  16.020
 1030BOLB   C2D24718  25.730  23.590  15.860
 1030BOLB   C3D24719  25.600  23.140  15.750
 1030BOLB   C4D24720  25.170  22.940  15.730
 1031BOLB   NC124721  11.850  17.440  10.930
 1031BOLB   PO124722  11.810  17.420  10.500
 1031BOLB   GL124723  11.430  17.650  10.530
 1031BOLB   GL224724  11.150  17.600  10.640
 1031BOLB   C1A24725  11.030  17.830  10.180
 1031BOLB   C2A24726  10.690  17.880   9.910
 1031BOLB   C3A24727  10.230  18.000   9.870
 1031BOLB   C4A24728   9.980  18.270   9.980
 1031BOLB   C1B24729  10.820  17.500  10.560
 1031BOLB   C2B24730  10.450  17.160  10.360
 1031BOLB   C3B24731  10.160  16.990  10.130
 1031BOLB   C4B24732   9.900  16.870   9.840
 1031BOLB   NC224733   7.970  19.350   9.210
 1031BOLB   PO224734   8.070  19.750   9.470
 1031BOLB   GL324735   8.350  19.510   9.560
 1031BOLB   GL424736   8.630  19.470   9.870
 1031BOLB   C1C24737   8.560  19.090   9.560
 1031BOLB   C2C24738   8.920  18.850   9.400
 1031BOLB   C3C24739   9.410  18.750   9.500
 1031BOLB   C4C24740   9.820  18.620   9.730
 1031BOLB   C1D24741   8.760  19.080  10.100
 1031BOLB   C2D24742   9.130  18.840   9.950
 1031BOLB   C3D24743   9.370  18.410   9.850
 1031BOLB   C4D24744   9.520  18.050   9.970
 1032BOLB   NC124745  21.200  22.570  10.410
 1032BOLB   PO124746  21.050  22.800  10.020
 1032BOLB   GL124747  21.110  23.110   9.700
 1032BOLB   GL224748  20.990  23.010   9.360
 1032BOLB   C1A24749  20.820  23.450   9.600
 1032BOLB   C2A24750  20.790  23.850   9.420
 1032BOLB   C3A24751  20.620  24.020   8.980
 1032BOLB   C4A24752  20.320  24.260   8.690
 1032BOLB   C1B24753  20.950  23.380   9.030
 1032BOLB   C2B24754  21.060  23.750   8.830
 1032BOLB   C3B24755  21.280  24.120   8.890
 1032BOLB   C4B24756  21.270  24.460   8.650
 1032BOLB   NC224757  20.200  26.900   7.770
 1032BOLB   PO224758  20.390  26.480   7.950
 1032BOLB   GL324759  20.230  26.180   8.260
 1032BOLB   GL424760  20.030  26.260   8.570
 1032BOLB   C1C24761  20.470  25.890   8.430
 1032BOLB   C2C24762  20.440  25.480   8.430
 1032BOLB   C3C24763  20.410  25.110   8.620
 1032BOLB   C4C24764  20.290  24.660   8.620
 1032BOLB   C1D24765  20.110  25.910   8.760
 1032BOLB   C2D24766  20.190  25.500   8.900
 1032BOLB   C3D24767  20.050  25.090   8.990
 1032BOLB   C4D24768  19.730  24.980   9.090
 1033BOLB   NC124769  14.240  17.610  17.750
 1033BOLB   PO124770  14.220  18.020  17.950
 1033BOLB   GL124771  14.010  18.000  18.350
 1033BOLB   GL224772  13.710  17.840  18.460
 1033BOLB   C1A24773  13.880  18.160  18.740
 1033BOLB   C2A24774  14.030  18.230  19.100
 1033BOLB   C3A24775  13.960  18.020  19.490
 1033BOLB   C4A24776  13.850  18.210  20.010
 1033BOLB   C1B24777  13.390  17.970  18.820
 1033BOLB   C2B24778  13.090  18.250  19.100
 1033BOLB   C3B24779  12.910  18.530  19.440
 1033BOLB   C4B24780  12.740  18.320  19.870
 1033BOLB   NC224781  12.780  18.100  22.170
 1033BOLB   PO224782  13.090  17.730  22.400
 1033BOLB   GL324783  13.060  17.650  22.000
 1033BOLB   GL424784  12.990  17.320  22.090
 1033BOLB   C1C24785  13.400  17.810  21.590
 1033BOLB   C2C24786  13.460  18.110  21.260
 1033BOLB   C3C24787  13.450  18.250  20.740
 1033BOLB   C4C24788  13.500  18.330  20.340
 1033BOLB   C1D24789  13.410  17.120  21.950
 1033BOLB   C2D24790  13.780  17.010  21.660
 1033BOLB   C3D24791  13.990  16.900  21.440
 1033BOLB   C4D24792  14.060  16.650  21.140
 1034BOLB   NC124793  10.760   8.400   7.560
 1034BOLB   PO124794  11.050   8.110   7.610
 1034BOLB   GL124795  11.210   8.250   7.850
 1034BOLB   GL224796  11.420   8.050   7.940
 1034BOLB   C1A24797  11.160   8.540   8.140
 1034BOLB   C2A24798  11.470   8.770   8.320
 1034BOLB   C3A24799  11.640   9.240   8.230
 1034BOLB   C4A24800  11.730   9.700   8.270
 1034BOLB   C1B24801  11.640   8.440   7.920
 1034BOLB   C2B24802  12.100   8.470   7.840
 1034BOLB   C3B24803  12.450   8.520   8.130
 1034BOLB   C4B24804  12.460   8.500   8.620
 1034BOLB   NC224805  10.850  10.290   6.770
 1034BOLB   PO224806  11.100  10.060   6.550
 1034BOLB   GL324807  11.360  10.100   6.890
 1034BOLB   GL424808  11.590   9.900   6.970
 1034BOLB   C1C24809  11.490  10.300   7.320
 1034BOLB   C2C24810  11.860  10.500   7.530
 1034BOLB   C3C24811  12.040  10.390   7.940
 1034BOLB   C4C24812  11.960  10.130   8.320
 1034BOLB   C1D24813  11.850  10.220   6.850
 1034BOLB   C2D24814  12.200  10.440   7.160
 1034BOLB   C3D24815  12.300  10.760   7.550
 1034BOLB   C4D24816  12.540  11.090   7.850
 1035BOLB   NC124817  21.020  23.340  12.170
 1035BOLB   PO124818  21.370  23.260  12.040
 1035BOLB   GL124819  21.480  23.560  12.300
 1035BOLB   GL224820  21.200  23.790  12.330
 1035BOLB   C1A24821  21.540  23.930  12.660
 1035BOLB   C2A24822  21.620  24.360  12.840
 1035BOLB   C3A24823  21.810  24.710  12.790
 1035BOLB   C4A24824  22.240  24.750  13.050
 1035BOLB   C1B24825  21.370  24.310  12.300
 1035BOLB   C2B24826  21.470  24.700  12.400
 1035BOLB   C3B24827  21.480  25.200  12.620
 1035BOLB   C4B24828  21.500  25.540  12.980
 1035BOLB   NC224829  23.430  26.650  13.630
 1035BOLB   PO224830  23.840  26.470  13.460
 1035BOLB   GL324831  23.480  26.210  13.370
 1035BOLB   GL424832  23.360  26.100  13.090
 1035BOLB   C1C24833  23.280  25.840  13.490
 1035BOLB   C2C24834  23.090  25.460  13.500
 1035BOLB   C3C24835  22.920  25.060  13.240
 1035BOLB   C4C24836  22.550  24.760  13.230
 1035BOLB   C1D24837  23.030  25.820  13.090
 1035BOLB   C2D24838  22.960  25.430  12.960
 1035BOLB   C3D24839  23.190  25.010  12.870
 1035BOLB   C4D24840  23.410  24.670  12.630
 1036BOLB   NC124841   9.780  15.230  14.240
 1036BOLB   PO124842   9.940  14.840  13.990
 1036BOLB   GL124843   9.540  14.830  13.680
 1036BOLB   GL224844   9.620  14.580  13.540
 1036BOLB   C1A24845   9.150  14.870  13.490
 1036BOLB   C2A24846   8.790  14.830  13.470
 1036BOLB   C3A24847   8.680  14.470  13.480
 1036BOLB   C4A24848   8.300  14.160  13.540
 1036BOLB   C1B24849   9.230  14.390  13.560
 1036BOLB   C2B24850   8.820  13.980  13.540
 1036BOLB   C3B24851   8.570  13.870  13.170
 1036BOLB   C4B24852   8.120  13.860  13.110
 1036BOLB   NC224853   5.880  14.480  13.860
 1036BOLB   PO224854   6.070  14.510  13.540
 1036BOLB   GL324855   6.430  14.280  13.640
 1036BOLB   GL424856   6.380  14.090  13.960
 1036BOLB   C1C24857   6.800  14.250  13.820
 1036BOLB   C2C24858   7.280  14.210  13.850
 1036BOLB   C3C24859   7.690  14.140  13.920
 1036BOLB   C4C24860   8.030  14.280  13.760
 1036BOLB   C1D24861   6.730  13.800  13.910
 1036BOLB   C2D24862   7.110  13.790  13.660
 1036BOLB   C3D24863   7.560  13.660  13.800
 1036BOLB   C4D24864   7.900  13.830  13.560
 1037BOLB   NC124865  19.360  17.210   7.200
 1037BOLB   PO124866  19.320  17.620   7.120
 1037BOLB   GL124867  19.090  17.690   6.800
 1037BOLB   GL224868  18.990  18.020   6.830
 1037BOLB   C1A24869  19.240  17.710   6.340
 1037BOLB   C2A24870  19.310  17.840   5.980
 1037BOLB   C3A24871  19.300  17.830   5.620
 1037BOLB   C4A24872  19.580  17.630   5.300
 1037BOLB   C1B24873  18.890  18.050   6.410
 1037BOLB   C2B24874  18.700  17.800   6.010
 1037BOLB   C3B24875  18.680  17.710   5.590
 1037BOLB   C4B24876  18.480  17.840   5.180
 1037BOLB   NC224877  19.690  17.410   2.670
 1037BOLB   PO224878  19.750  17.720   2.950
 1037BOLB   GL324879  19.670  17.820   3.320
 1037BOLB   GL424880  19.910  17.540   3.450
 1037BOLB   C1C24881  19.700  18.140   3.660
 1037BOLB   C2C24882  19.710  17.960   4.170
 1037BOLB   C3C24883  19.700  17.980   4.610
 1037BOLB   C4C24884  19.750  17.720   4.970
 1037BOLB   C1D24885  20.160  17.190   3.630
 1037BOLB   C2D24886  20.650  17.030   3.780
 1037BOLB   C3D24887  20.580  16.880   4.160
 1037BOLB   C4D24888  20.680  16.840   4.630
 1038BOLB   NC124889  19.670  14.830   7.150
 1038BOLB   PO124890  19.370  14.510   7.190
 1038BOLB   GL124891  19.510  14.550   6.690
 1038BOLB   GL224892  19.310  14.730   6.630
 1038BOLB   C1A24893  19.820  14.530   6.400
 1038BOLB   C2A24894  19.970  14.500   5.980
 1038BOLB   C3A24895  20.170  14.480   5.620
 1038BOLB   C4A24896  20.010  14.570   5.220
 1038BOLB   C1B24897  19.400  14.700   6.220
 1038BOLB   C2B24898  19.380  14.750   5.830
 1038BOLB   C3B24899  19.180  14.620   5.450
 1038BOLB   C4B24900  19.180  14.680   4.940
 1038BOLB   NC224901  19.750  13.850   3.030
 1038BOLB   PO224902  20.140  14.060   3.000
 1038BOLB   GL324903  20.180  14.370   3.220
 1038BOLB   GL424904  20.420  14.290   3.360
 1038BOLB   C1C24905  20.040  14.470   3.620
 1038BOLB   C2C24906  20.230  14.460   4.050
 1038BOLB   C3C24907  20.390  14.550   4.390
 1038BOLB   C4C24908  20.270  14.520   4.810
 1038BOLB   C1D24909  20.830  14.080   3.620
 1038BOLB   C2D24910  21.260  14.010   3.780
 1038BOLB   C3D24911  21.550  14.170   4.130
 1038BOLB   C4D24912  21.680  14.330   4.520
 1039BOLB   NC124913  26.900  19.220  13.080
 1039BOLB   PO124914  26.700  19.040  12.740
 1039BOLB   GL124915  26.940  19.400  12.520
 1039BOLB   GL224916  27.090  19.150  12.300
 1039BOLB   C1A24917  27.260  19.760  12.520
 1039BOLB   C2A24918  27.580  19.960  12.540
 1039BOLB   C3A24919  27.740  19.880  13.010
 1039BOLB   C4A24920  27.920  20.150  13.310
 1039BOLB   C1B24921  27.430  19.310  12.140
 1039BOLB   C2B24922  27.710  19.690  12.050
 1039BOLB   C3B24923  28.050  19.850  12.130
 1039BOLB   C4B24924  28.440  20.000  12.090
 1039BOLB   NC224925  30.330  21.460  12.330
 1039BOLB   PO224926  30.010  21.410  12.700
 1039BOLB   GL324927  29.610  21.180  12.820
 1039BOLB   GL424928  29.550  20.980  12.470
 1039BOLB   C1C24929  29.300  21.200  13.120
 1039BOLB   C2C24930  28.890  21.120  13.340
 1039BOLB   C3C24931  28.510  20.820  13.360
 1039BOLB   C4C24932  28.150  20.530  13.210
 1039BOLB   C1D24933  29.320  20.640  12.210
 1039BOLB   C2D24934  29.150  20.690  11.810
 1039BOLB   C3D24935  29.110  20.290  11.560
 1039BOLB   C4D24936  28.800  20.020  11.490
 1040BOLB   NC124937  23.710  22.090  12.780
 1040BOLB   PO124938  24.050  21.850  12.540
 1040BOLB   GL124939  24.420  22.090  12.540
 1040BOLB   GL224940  24.590  21.840  12.480
 1040BOLB   C1A24941  24.860  22.280  12.550
 1040BOLB   C2A24942  25.160  22.550  12.640
 1040BOLB   C3A24943  25.500  22.630  12.760
 1040BOLB   C4A24944  25.760  22.940  12.920
 1040BOLB   C1B24945  25.030  21.820  12.490
 1040BOLB   C2B24946  25.360  22.020  12.340
 1040BOLB   C3B24947  25.540  22.300  12.280
 1040BOLB   C4B24948  25.790  22.550  12.020
 1040BOLB   NC224949  27.210  24.840  13.230
 1040BOLB   PO224950  27.590  24.420  13.460
 1040BOLB   GL324951  27.230  24.060  13.460
 1040BOLB   GL424952  27.180  23.830  13.170
 1040BOLB   C1C24953  26.890  23.760  13.640
 1040BOLB   C2C24954  26.670  23.470  13.520
 1040BOLB   C3C24955  26.450  23.140  13.320
 1040BOLB   C4C24956  26.180  23.020  13.060
 1040BOLB   C1D24957  26.910  23.460  13.080
 1040BOLB   C2D24958  26.570  23.270  12.830
 1040BOLB   C3D24959  26.270  23.040  12.520
 1040BOLB   C4D24960  26.110  22.990  12.160
 1041BOLB   NC124961  20.280  16.700   7.000
 1041BOLB   PO124962  20.110  17.210   7.000
 1041BOLB   GL124963  20.290  17.260   6.580
 1041BOLB   GL224964  20.150  17.010   6.550
 1041BOLB   C1A24965  20.520  17.020   6.250
 1041BOLB   C2A24966  20.380  16.750   5.900
 1041BOLB   C3A24967  20.190  16.490   5.540
 1041BOLB   C4A24968  20.360  16.250   5.160
 1041BOLB   C1B24969  19.950  16.780   6.160
 1041BOLB   C2B24970  19.930  16.890   5.730
 1041BOLB   C3B24971  19.900  16.780   5.280
 1041BOLB   C4B24972  19.750  16.730   4.870
 1041BOLB   NC224973  20.940  15.770   2.740
 1041BOLB   PO224974  20.580  15.950   2.990
 1041BOLB   GL324975  20.590  16.130   3.390
 1041BOLB   GL424976  20.560  15.880   3.540
 1041BOLB   C1C24977  20.900  16.390   3.500
 1041BOLB   C2C24978  20.980  16.470   3.960
 1041BOLB   C3C24979  20.910  16.400   4.420
 1041BOLB   C4C24980  20.740  16.420   4.890
 1041BOLB   C1D24981  20.640  15.830   4.020
 1041BOLB   C2D24982  20.810  15.820   4.480
 1041BOLB   C3D24983  21.010  15.660   4.810
 1041BOLB   C4D24984  21.160  15.270   5.080
 1042BOLB   NC124985  14.700  21.110  10.050
 1042BOLB   PO124986  14.620  21.020   9.640
 1042BOLB   GL124987  14.150  20.970   9.520
 1042BOLB   GL224988  14.020  20.830   9.280
 1042BOLB   C1A24989  13.760  21.070   9.690
 1042BOLB   C2A24990  13.430  21.290   9.720
 1042BOLB   C3A24991  13.210  21.650   9.610
 1042BOLB   C4A24992  12.940  21.900   9.330
 1042BOLB   C1B24993  13.850  21.100   9.080
 1042BOLB   C2B24994  13.920  21.490   8.850
 1042BOLB   C3B24995  13.850  21.950   8.700
 1042BOLB   C4B24996  13.570  22.280   8.720
 1042BOLB   NC224997  10.530  23.140   8.460
 1042BOLB   PO224998  10.920  23.320   8.360
 1042BOLB   GL324999  11.010  23.000   8.720
 1042BOLB   GL425000  10.970  22.700   8.790
 1042BOLB   C1C25001  11.450  22.800   8.760
 1042BOLB   C2C25002  11.940  22.690   8.850
 1042BOLB   C3C25003  12.210  22.420   9.130
 1042BOLB   C4C25004  12.550  22.050   9.300
 1042BOLB   C1D25005  11.100  22.420   8.560
 1042BOLB   C2D25006  11.400  22.070   8.560
 1042BOLB   C3D25007  11.820  21.980   8.710
 1042BOLB   C4D25008  12.130  21.840   9.030
 1043BOLB   NC125009  27.610  17.230  13.520
 1043BOLB   PO125010  27.710  16.800  13.330
 1043BOLB   GL125011  28.090  17.130  13.440
 1043BOLB   GL225012  28.300  16.980  13.270
 1043BOLB   C1A25013  28.360  17.490  13.480
 1043BOLB   C2A25014  28.840  17.510  13.290
 1043BOLB   C3A25015  29.310  17.570  13.280
 1043BOLB   C4A25016  29.680  17.770  13.390
 1043BOLB   C1B25017  28.660  16.900  13.160
 1043BOLB   C2B25018  29.050  17.010  13.250
 1043BOLB   C3B25019  29.390  17.130  13.020
 1043BOLB   C4B25020  29.740  17.400  13.020
 1043BOLB   NC225021  31.650  19.430  13.540
 1043BOLB   PO225022  31.750  18.930  13.500
 1043BOLB   GL325023  31.410  18.640  13.310
 1043BOLB   GL425024  31.600  18.370  13.230
 1043BOLB   C1C25025  31.150  18.270  13.380
 1043BOLB   C2C25026  30.900  18.040  13.030
 1043BOLB   C3C25027  30.600  17.770  13.010
 1043BOLB   C4C25028  30.140  17.680  13.220
 1043BOLB   C1D25029  31.410  18.090  12.920
 1043BOLB   C2D25030  31.390  17.710  12.620
 1043BOLB   C3D25031  31.340  17.290  12.570
 1043BOLB   C4D25032  31.110  16.980  12.900
 1044BOLB   NC125033  22.850  22.260  10.710
 1044BOLB   PO125034  22.420  22.370  10.540
 1044BOLB   GL125035  22.610  22.660  10.340
 1044BOLB   GL225036  22.360  22.710  10.110
 1044BOLB   C1A25037  22.780  22.990  10.330
 1044BOLB   C2A25038  23.030  23.420  10.360
 1044BOLB   C3A25039  23.200  23.710  10.310
 1044BOLB   C4A25040  23.370  24.080  10.390
 1044BOLB   C1B25041  22.620  23.030   9.860
 1044BOLB   C2B25042  22.740  23.230   9.500
 1044BOLB   C3B25043  22.800  23.630   9.240
 1044BOLB   C4B25044  23.030  23.940   9.410
 1044BOLB   NC225045  24.800  26.030  11.250
 1044BOLB   PO225046  24.950  25.640  11.220
 1044BOLB   GL325047  24.780  25.240  11.240
 1044BOLB   GL425048  24.770  24.900  11.400
 1044BOLB   C1C25049  24.520  24.860  10.950
 1044BOLB   C2C25050  24.200  24.910  10.670
 1044BOLB   C3C25051  23.790  24.840  10.740
 1044BOLB   C4C25052  23.610  24.370  10.380
 1044BOLB   C1D25053  24.470  24.610  11.440
 1044BOLB   C2D25054  24.030  24.480  11.580
 1044BOLB   C3D25055  23.630  24.570  11.360
 1044BOLB   C4D25056  23.630  24.400  10.980
 1045BOLB   NC125057  17.040  23.360  12.090
 1045BOLB   PO125058  16.970  23.840  11.940
 1045BOLB   GL125059  16.990  24.260  12.060
 1045BOLB   GL225060  17.060  24.270  12.430
 1045BOLB   C1A25061  16.760  24.710  11.980
 1045BOLB   C2A25062  16.510  24.950  12.130
 1045BOLB   C3A25063  16.280  25.320  12.240
 1045BOLB   C4A25064  16.170  25.500  12.620
 1045BOLB   C1B25065  16.810  24.550  12.510
 1045BOLB   C2B25066  16.740  24.900  12.650
 1045BOLB   C3B25067  16.300  25.090  12.840
 1045BOLB   C4B25068  16.120  25.180  13.370
 1045BOLB   NC225069  15.900  27.440  12.600
 1045BOLB   PO225070  15.590  27.310  12.340
 1045BOLB   GL325071  15.340  27.050  12.630
 1045BOLB   GL425072  15.110  27.230  12.740
 1045BOLB   C1C25073  15.320  26.810  12.990
 1045BOLB   C2C25074  15.500  26.430  13.060
 1045BOLB   C3C25075  15.870  26.290  12.910
 1045BOLB   C4C25076  16.070  25.950  12.650
 1045BOLB   C1D25077  14.890  26.790  12.820
 1045BOLB   C2D25078  14.930  26.350  12.960
 1045BOLB   C3D25079  15.000  25.970  13.250
 1045BOLB   C4D25080  14.910  25.590  13.460
 1046BOLB   NC125081  24.010  21.690  12.020
 1046BOLB   PO125082  23.620  21.830  12.310
 1046BOLB   GL125083  23.970  22.190  12.230
 1046BOLB   GL225084  24.310  22.090  12.070
 1046BOLB   C1A25085  24.110  22.550  12.320
 1046BOLB   C2A25086  24.320  22.980  12.260
 1046BOLB   C3A25087  24.660  23.310  12.300
 1046BOLB   C4A25088  24.900  23.730  12.290
 1046BOLB   C1B25089  24.570  22.430  12.180
 1046BOLB   C2B25090  24.720  22.730  12.310
 1046BOLB   C3B25091  25.040  23.000  12.390
 1046BOLB   C4B25092  25.500  22.950  12.450
 1046BOLB   NC225093  25.870  25.800  13.360
 1046BOLB   PO225094  25.880  25.330  13.330
 1046BOLB   GL325095  25.820  24.930  13.470
 1046BOLB   GL425096  25.950  24.710  13.770
 1046BOLB   C1C25097  25.700  24.560  13.290
 1046BOLB   C2C25098  25.500  24.290  13.040
 1046BOLB   C3C25099  25.140  24.200  12.790
 1046BOLB   C4C25100  24.990  23.900  12.670
 1046BOLB   C1D25101  25.910  24.320  13.650
 1046BOLB   C2D25102  25.640  24.040  13.720
 1046BOLB   C3D25103  25.340  23.690  13.750
 1046BOLB   C4D25104  24.890  23.620  13.740
 1047BOLB   NC125105  21.100  16.680   7.300
 1047BOLB   PO125106  21.530  16.800   7.360
 1047BOLB   GL125107  21.670  17.010   7.030
 1047BOLB   GL225108  21.840  16.790   6.830
 1047BOLB   C1A25109  21.720  17.240   6.600
 1047BOLB   C2A25110  21.780  17.380   6.180
 1047BOLB   C3A25111  22.080  17.370   5.750
 1047BOLB   C4A25112  21.950  17.210   5.360
 1047BOLB   C1B25113  22.130  16.870   6.510
 1047BOLB   C2B25114  22.130  16.990   6.050
 1047BOLB   C3B25115  22.120  16.820   5.690
 1047BOLB   C4B25116  21.890  16.730   5.250
 1047BOLB   NC225117  22.340  18.540   3.340
 1047BOLB   PO225118  22.550  18.220   3.200
 1047BOLB   GL325119  22.630  18.190   3.650
 1047BOLB   GL425120  22.570  18.580   3.840
 1047BOLB   C1C25121  22.440  17.950   4.050
 1047BOLB   C2C25122  22.190  17.940   4.490
 1047BOLB   C3C25123  21.910  17.560   4.630
 1047BOLB   C4C25124  22.000  17.200   4.900
 1047BOLB   C1D25125  22.210  18.510   4.040
 1047BOLB   C2D25126  22.120  18.410   4.440
 1047BOLB   C3D25127  22.540  18.490   4.830
 1047BOLB   C4D25128  22.820  18.880   4.980
 1048BOLB   NC125129  24.230  21.000  11.070
 1048BOLB   PO125130  24.300  21.070  11.450
 1048BOLB   GL125131  24.400  21.490  11.240
 1048BOLB   GL225132  24.530  21.370  11.010
 1048BOLB   C1A25133  24.460  21.940  11.150
 1048BOLB   C2A25134  24.720  22.260  10.980
 1048BOLB   C3A25135  24.990  22.500  10.730
 1048BOLB   C4A25136  24.990  22.880  10.540
 1048BOLB   C1B25137  24.810  21.510  10.660
 1048BOLB   C2B25138  24.840  21.870  10.570
 1048BOLB   C3B25139  24.820  22.050  10.120
 1048BOLB   C4B25140  24.930  22.290   9.730
 1048BOLB   NC225141  25.810  25.230   8.870
 1048BOLB   PO225142  26.020  24.960   9.100
 1048BOLB   GL325143  25.850  24.490   9.190
 1048BOLB   GL425144  25.520  24.500   9.100
 1048BOLB   C1C25145  25.560  24.230   9.500
 1048BOLB   C2C25146  25.260  23.900   9.570
 1048BOLB   C3C25147  25.300  23.520   9.800
 1048BOLB   C4C25148  25.180  23.200  10.210
 1048BOLB   C1D25149  25.180  24.520   9.450
 1048BOLB   C2D25150  25.050  24.500   9.760
 1048BOLB   C3D25151  24.780  24.400  10.030
 1048BOLB   C4D25152  24.300  24.280  10.080
 1049BOLB   NC125153  24.010  18.080  18.230
 1049BOLB   PO125154  24.390  18.200  18.430
 1049BOLB   GL125155  24.360  18.420  18.810
 1049BOLB   GL225156  24.150  18.400  19.090
 1049BOLB   C1A25157  24.590  18.520  19.270
 1049BOLB   C2A25158  24.880  18.860  19.440
 1049BOLB   C3A25159  24.930  19.320  19.390
 1049BOLB   C4A25160  24.940  19.600  19.490
 1049BOLB   C1B25161  24.050  18.590  19.430
 1049BOLB   C2B25162  24.330  18.650  19.680
 1049BOLB   C3B25163  24.660  18.890  19.980
 1049BOLB   C4B25164  24.890  19.180  19.990
 1049BOLB   NC225165  25.090  20.790  21.980
 1049BOLB   PO225166  25.480  20.690  21.730
 1049BOLB   GL325167  25.300  20.570  21.300
 1049BOLB   GL425168  25.010  20.470  21.370
 1049BOLB   C1C25169  25.250  20.470  20.880
 1049BOLB   C2C25170  25.130  20.220  20.460
 1049BOLB   C3C25171  25.030  20.140  20.050
 1049BOLB   C4C25172  24.990  19.950  19.730
 1049BOLB   C1D25173  24.930  20.160  21.610
 1049BOLB   C2D25174  24.830  19.710  21.760
 1049BOLB   C3D25175  24.550  19.340  21.940
 1049BOLB   C4D25176  24.630  18.930  22.130
 1050BOLB   NC125177  25.830  19.060  10.220
 1050BOLB   PO125178  26.230  18.780  10.320
 1050BOLB   GL125179  26.590  18.860  10.190
 1050BOLB   GL225180  26.840  18.900  10.410
 1050BOLB   C1A25181  26.700  19.080   9.890
 1050BOLB   C2A25182  27.120  18.980   9.730
 1050BOLB   C3A25183  27.320  18.530   9.510
 1050BOLB   C4A25184  27.710  18.410   9.280
 1050BOLB   C1B25185  27.180  19.110  10.350
 1050BOLB   C2B25186  27.380  19.260  10.160
 1050BOLB   C3B25187  27.570  19.340   9.790
 1050BOLB   C4B25188  27.700  19.020   9.490
 1050BOLB   NC225189  29.370  17.880   7.840
 1050BOLB   PO225190  29.360  18.090   7.350
 1050BOLB   GL325191  28.980  18.120   7.650
 1050BOLB   GL425192  28.740  18.000   7.520
 1050BOLB   C1C25193  28.770  18.090   8.070
 1050BOLB   C2C25194  28.340  18.230   8.130
 1050BOLB   C3C25195  28.010  18.440   8.470
 1050BOLB   C4C25196  27.860  18.250   8.900
 1050BOLB   C1D25197  28.470  17.820   7.810
 1050BOLB   C2D25198  28.450  17.720   8.250
 1050BOLB   C3D25199  28.480  18.030   8.580
 1050BOLB   C4D25200  28.450  18.490   8.700
 1051BOLB   NC125201  16.370  21.720   9.540
 1051BOLB   PO125202  16.010  21.830   9.340
 1051BOLB   GL125203  16.090  21.880   8.890
 1051BOLB   GL225204  16.050  21.620   8.690
 1051BOLB   C1A25205  16.130  22.130   8.570
 1051BOLB   C2A25206  16.090  22.540   8.290
 1051BOLB   C3A25207  15.700  22.660   8.040
 1051BOLB   C4A25208  15.350  22.600   7.910
 1051BOLB   C1B25209  16.190  21.680   8.320
 1051BOLB   C2B25210  16.140  21.810   7.960
 1051BOLB   C3B25211  16.020  21.590   7.640
 1051BOLB   C4B25212  16.000  21.310   7.330
 1051BOLB   NC225213  14.730  24.180   6.530
 1051BOLB   PO225214  15.050  23.920   6.340
 1051BOLB   GL325215  15.100  23.530   6.480
 1051BOLB   GL425216  15.350  23.220   6.350
 1051BOLB   C1C25217  15.070  23.270   6.760
 1051BOLB   C2C25218  14.910  23.250   7.040
 1051BOLB   C3C25219  14.860  23.130   7.450
 1051BOLB   C4C25220  15.040  22.810   7.730
 1051BOLB   C1D25221  15.590  23.160   6.670
 1051BOLB   C2D25222  15.770  23.100   7.010
 1051BOLB   C3D25223  16.040  22.880   7.160
 1051BOLB   C4D25224  16.250  22.510   7.350
 1052BOLB   NC125225  14.390  20.540   9.490
 1052BOLB   PO125226  13.980  20.460   9.670
 1052BOLB   GL125227  13.630  20.530   9.520
 1052BOLB   GL225228  13.500  20.670   9.810
 1052BOLB   C1A25229  13.460  20.840   9.160
 1052BOLB   C2A25230  13.310  21.240   9.190
 1052BOLB   C3A25231  13.180  21.540   9.040
 1052BOLB   C4A25232  13.330  21.690   8.660
 1052BOLB   C1B25233  13.140  20.750   9.580
 1052BOLB   C2B25234  12.870  20.920   9.280
 1052BOLB   C3B25235  12.540  21.080   9.100
 1052BOLB   C4B25236  12.170  21.130   8.910
 1052BOLB   NC225237  13.130  23.170   6.170
 1052BOLB   PO225238  13.180  23.050   6.650
 1052BOLB   GL325239  13.240  22.740   7.070
 1052BOLB   GL425240  13.210  22.850   7.350
 1052BOLB   C1C25241  13.690  22.530   7.220
 1052BOLB   C2C25242  13.670  22.150   7.580
 1052BOLB   C3C25243  13.710  21.960   7.930
 1052BOLB   C4C25244  13.550  21.920   8.340
 1052BOLB   C1D25245  13.440  22.570   7.700
 1052BOLB   C2D25246  13.740  22.550   8.040
 1052BOLB   C3D25247  13.990  22.380   8.260
 1052BOLB   C4D25248  14.080  22.510   8.690
 1053BOLB   NC125249  27.710  11.060  11.230
 1053BOLB   PO125250  27.890  11.410  11.410
 1053BOLB   GL125251  28.250  11.140  11.300
 1053BOLB   GL225252  28.200  10.810  11.290
 1053BOLB   C1A25253  28.570  11.180  10.940
 1053BOLB   C2A25254  28.800  11.340  10.590
 1053BOLB   C3A25255  29.200  11.050  10.400
 1053BOLB   C4A25256  29.440  10.850  10.130
 1053BOLB   C1B25257  28.470  10.670  11.130
 1053BOLB   C2B25258  28.690  10.300  11.000
 1053BOLB   C3B25259  29.000  10.170  11.150
 1053BOLB   C4B25260  29.260  10.150  11.440
 1053BOLB   NC225261  31.770  11.320  10.240
 1053BOLB   PO225262  31.420  11.590   9.940
 1053BOLB   GL325263  31.030  11.600  10.020
 1053BOLB   GL425264  30.960  11.830   9.750
 1053BOLB   C1C25265  30.690  11.380   9.700
 1053BOLB   C2C25266  30.240  11.430   9.640
 1053BOLB   C3C25267  30.030  11.060   9.820
 1053BOLB   C4C25268  29.770  10.760   9.900
 1053BOLB   C1D25269  30.580  11.830  10.080
 1053BOLB   C2D25270  30.420  12.010  10.360
 1053BOLB   C3D25271  30.010  11.950  10.490
 1053BOLB   C4D25272  29.740  11.790  10.590
 1054BOLB   NC125273  24.500  25.680   7.690
 1054BOLB   PO125274  24.080  25.660   7.900
 1054BOLB   GL125275  24.070  25.250   8.290
 1054BOLB   GL225276  23.770  25.160   8.390
 1054BOLB   C1A25277  24.150  25.000   8.610
 1054BOLB   C2A25278  24.400  24.710   8.640
 1054BOLB   C3A25279  24.620  24.400   8.840
 1054BOLB   C4A25280  24.950  24.170   9.110
 1054BOLB   C1B25281  23.450  24.790   8.410
 1054BOLB   C2B25282  23.360  24.380   8.280
 1054BOLB   C3B25283  23.030  24.090   8.220
 1054BOLB   C4B25284  22.750  23.980   7.840
 1054BOLB   NC225285  27.070  23.500   8.730
 1054BOLB   PO225286  26.670  23.600   8.490
 1054BOLB   GL325287  26.440  23.260   8.650
 1054BOLB   GL425288  26.360  23.020   8.530
 1054BOLB   C1C25289  26.170  23.160   8.970
 1054BOLB   C2C25290  25.700  23.220   8.940
 1054BOLB   C3C25291  25.500  23.530   9.080
 1054BOLB   C4C25292  25.360  23.950   9.030
 1054BOLB   C1D25293  25.980  22.770   8.780
 1054BOLB   C2D25294  25.910  22.400   9.020
 1054BOLB   C3D25295  25.560  22.340   9.330
 1054BOLB   C4D25296  25.200  22.530   9.400
 1055BOLB   NC125297  16.090  20.630   9.390
 1055BOLB   PO125298  16.140  20.830   8.970
 1055BOLB   GL125299  15.870  21.120   8.820
 1055BOLB   GL225300  15.550  20.990   8.730
 1055BOLB   C1A25301  15.670  21.370   8.410
 1055BOLB   C2A25302  15.730  21.830   8.370
 1055BOLB   C3A25303  15.790  22.150   8.080
 1055BOLB   C4A25304  15.850  22.170   7.700
 1055BOLB   C1B25305  15.220  21.160   8.400
 1055BOLB   C2B25306  15.170  21.460   8.080
 1055BOLB   C3B25307  15.010  21.720   7.860
 1055BOLB   C4B25308  15.280  22.090   7.850
 1055BOLB   NC225309  16.250  22.390   5.320
 1055BOLB   PO225310  15.810  22.590   5.340
 1055BOLB   GL325311  15.750  22.610   5.760
 1055BOLB   GL425312  15.610  22.860   5.910
 1055BOLB   C1C25313  15.770  22.370   6.140
 1055BOLB   C2C25314  15.800  21.990   6.400
 1055BOLB   C3C25315  15.790  22.040   6.840
 1055BOLB   C4C25316  15.960  22.020   7.350
 1055BOLB   C1D25317  15.770  22.910   6.290
 1055BOLB   C2D25318  15.930  22.750   6.620
 1055BOLB   C3D25319  16.130  22.430   6.880
 1055BOLB   C4D25320  16.280  22.040   6.740
 1056BOLB   NC125321  13.430  21.450  12.050
 1056BOLB   PO125322  13.700  21.660  12.080
 1056BOLB   GL125323  13.600  21.980  11.720
 1056BOLB   GL225324  13.190  21.880  11.800
 1056BOLB   C1A25325  13.460  22.360  11.580
 1056BOLB   C2A25326  13.300  22.710  11.590
 1056BOLB   C3A25327  13.050  22.970  11.780
 1056BOLB   C4A25328  12.710  23.180  11.700
 1056BOLB   C1B25329  12.870  21.830  11.600
 1056BOLB   C2B25330  12.560  22.150  11.430
 1056BOLB   C3B25331  12.140  22.060  11.400
 1056BOLB   C4B25332  11.880  21.710  11.580
 1056BOLB   NC225333  10.650  24.340  10.530
 1056BOLB   PO225334  11.010  24.540  10.610
 1056BOLB   GL325335  11.200  24.180  10.720
 1056BOLB   GL425336  11.210  23.910  10.920
 1056BOLB   C1C25337  11.670  24.050  10.800
 1056BOLB   C2C25338  12.040  23.890  11.080
 1056BOLB   C3C25339  12.160  23.590  11.270
 1056BOLB   C4C25340  12.420  23.470  11.700
 1056BOLB   C1D25341  11.630  23.570  10.960
 1056BOLB   C2D25342  11.840  23.280  11.180
 1056BOLB   C3D25343  11.860  22.840  11.110
 1056BOLB   C4D25344  12.160  22.540  11.190
 1057BOLB   NC125345  27.830  18.960   5.930
 1057BOLB   PO125346  28.080  18.720   6.230
 1057BOLB   GL125347  27.590  18.640   6.300
 1057BOLB   GL225348  27.360  18.450   6.540
 1057BOLB   C1A25349  27.240  18.450   6.060
 1057BOLB   C2A25350  27.140  18.040   6.040
 1057BOLB   C3A25351  26.680  17.910   5.940
 1057BOLB   C4A25352  26.330  17.650   6.100
 1057BOLB   C1B25353  27.390  18.220   6.940
 1057BOLB   C2B25354  27.350  18.070   7.420
 1057BOLB   C3B25355  27.500  18.130   7.850
 1057BOLB   C4B25356  27.850  18.330   8.000
 1057BOLB   NC225357  26.590  16.160   4.510
 1057BOLB   PO225358  26.670  16.560   4.720
 1057BOLB   GL325359  26.490  16.320   5.040
 1057BOLB   GL425360  26.430  16.010   5.030
 1057BOLB   C1C25361  26.370  16.480   5.410
 1057BOLB   C2C25362  26.000  16.490   5.710
 1057BOLB   C3C25363  26.080  16.700   6.050
 1057BOLB   C4C25364  26.100  17.220   6.010
 1057BOLB   C1D25365  26.630  16.070   5.550
 1057BOLB   C2D25366  26.660  15.860   5.970
 1057BOLB   C3D25367  26.690  15.390   6.160
 1057BOLB   C4D25368  26.660  14.920   6.170
 1058BOLB   NC125369  27.700  14.820  12.520
 1058BOLB   PO125370  28.050  14.750  12.270
 1058BOLB   GL125371  28.370  15.050  12.110
 1058BOLB   GL225372  28.590  14.820  12.220
 1058BOLB   C1A25373  28.720  15.180  11.890
 1058BOLB   C2A25374  29.120  15.150  11.730
 1058BOLB   C3A25375  29.450  15.250  11.530
 1058BOLB   C4A25376  29.860  15.020  11.390
 1058BOLB   C1B25377  29.000  14.880  12.140
 1058BOLB   C2B25378  29.430  14.890  11.990
 1058BOLB   C3B25379  29.810  15.150  12.030
 1058BOLB   C4B25380  29.890  15.520  11.600
 1058BOLB   NC225381  32.340  14.240  11.580
 1058BOLB   PO225382  31.910  14.000  11.300
 1058BOLB   GL325383  31.420  13.990  11.370
 1058BOLB   GL425384  31.430  13.920  11.580
 1058BOLB   C1C25385  31.070  14.070  11.120
 1058BOLB   C2C25386  30.640  14.040  11.320
 1058BOLB   C3C25387  30.270  14.230  11.400
 1058BOLB   C4C25388  30.100  14.620  11.310
 1058BOLB   C1D25389  31.300  14.060  12.040
 1058BOLB   C2D25390  30.870  13.900  12.200
 1058BOLB   C3D25391  30.510  13.930  12.350
 1058BOLB   C4D25392  30.390  14.030  12.750
 1059BOLB   NC125393  18.560  22.050   9.990
 1059BOLB   PO125394  18.480  22.370   9.700
 1059BOLB   GL125395  18.390  22.820   9.380
 1059BOLB   GL225396  18.700  22.950   9.220
 1059BOLB   C1A25397  18.180  23.130   9.160
 1059BOLB   C2A25398  18.400  23.320   8.840
 1059BOLB   C3A25399  18.590  23.460   8.530
 1059BOLB   C4A25400  18.480  23.860   8.320
 1059BOLB   C1B25401  18.540  23.390   9.320
 1059BOLB   C2B25402  18.640  23.800   9.140
 1059BOLB   C3B25403  18.570  24.130   8.830
 1059BOLB   C4B25404  18.520  24.360   8.490
 1059BOLB   NC225405  18.510  25.130   6.180
 1059BOLB   PO225406  18.320  25.480   6.440
 1059BOLB   GL325407  18.240  25.190   6.840
 1059BOLB   GL425408  18.060  24.800   6.770
 1059BOLB   C1C25409  18.260  24.960   7.220
 1059BOLB   C2C25410  18.490  24.530   7.280
 1059BOLB   C3C25411  18.430  24.210   7.540
 1059BOLB   C4C25412  18.530  24.140   8.050
 1059BOLB   C1D25413  18.050  24.490   7.050
 1059BOLB   C2D25414  17.970  24.500   7.450
 1059BOLB   C3D25415  18.020  24.690   7.830
 1059BOLB   C4D25416  18.280  24.780   8.150
 1060BOLB   NC125417  21.400  23.050  15.410
 1060BOLB   PO125418  21.350  23.080  14.930
 1060BOLB   GL125419  21.390  23.510  14.880
 1060BOLB   GL225420  21.570  23.600  14.640
 1060BOLB   C1A25421  21.210  23.850  15.180
 1060BOLB   C2A25422  21.400  24.190  15.370
 1060BOLB   C3A25423  21.660  24.320  15.610
 1060BOLB   C4A25424  21.920  24.410  15.940
 1060BOLB   C1B25425  21.390  24.000  14.750
 1060BOLB   C2B25426  21.090  24.340  14.800
 1060BOLB   C3B25427  21.120  24.800  14.810
 1060BOLB   C4B25428  21.040  24.990  15.260
 1060BOLB   NC225429  22.450  26.310  17.360
 1060BOLB   PO225430  22.110  26.640  17.480
 1060BOLB   GL325431  21.890  26.140  17.290
 1060BOLB   GL425432  21.590  26.210  17.250
 1060BOLB   C1C25433  22.150  25.840  17.080
 1060BOLB   C2C25434  22.300  25.540  16.760
 1060BOLB   C3C25435  22.240  25.170  16.450
 1060BOLB   C4C25436  22.170  24.780  16.230
 1060BOLB   C1D25437  21.600  25.840  16.970
 1060BOLB   C2D25438  21.830  25.520  16.950
 1060BOLB   C3D25439  21.840  25.130  16.700
 1060BOLB   C4D25440  21.740  24.980  16.360
 1061BOLB   NC125441  19.990  23.290  13.660
 1061BOLB   PO125442  19.760  23.520  13.330
 1061BOLB   GL125443  19.780  24.010  13.330
 1061BOLB   GL225444  19.620  24.050  13.050
 1061BOLB   C1A25445  19.670  24.530  13.310
 1061BOLB   C2A25446  19.880  24.820  13.440
 1061BOLB   C3A25447  20.100  25.220  13.540
 1061BOLB   C4A25448  20.160  25.620  13.290
 1061BOLB   C1B25449  19.430  24.410  12.840
 1061BOLB   C2B25450  19.600  24.760  12.910
 1061BOLB   C3B25451  19.810  25.220  12.990
 1061BOLB   C4B25452  20.140  25.510  12.770
 1061BOLB   NC225453  21.340  26.870  11.780
 1061BOLB   PO225454  21.210  27.270  12.050
 1061BOLB   GL325455  20.960  26.950  12.200
 1061BOLB   GL425456  20.700  27.010  12.360
 1061BOLB   C1C25457  20.710  26.580  12.200
 1061BOLB   C2C25458  20.420  26.310  12.470
 1061BOLB   C3C25459  20.100  26.040  12.640
 1061BOLB   C4C25460  20.130  25.950  13.080
 1061BOLB   C1D25461  20.450  26.810  12.630
 1061BOLB   C2D25462  20.050  26.750  12.910
 1061BOLB   C3D25463  19.860  26.430  13.100
 1061BOLB   C4D25464  19.950  26.210  13.470
 1062BOLB   NC125465  12.900  20.090  10.290
 1062BOLB   PO125466  12.640  19.800  10.580
 1062BOLB   GL125467  12.220  19.910  10.510
 1062BOLB   GL225468  12.140  19.720  10.310
 1062BOLB   C1A25469  11.950  20.190  10.280
 1062BOLB   C2A25470  11.790  20.540  10.070
 1062BOLB   C3A25471  11.580  20.880   9.960
 1062BOLB   C4A25472  11.620  21.230   9.730
 1062BOLB   C1B25473  11.630  19.780  10.180
 1062BOLB   C2B25474  11.370  20.100  10.070
 1062BOLB   C3B25475  11.030  20.320   9.860
 1062BOLB   C4B25476  10.640  20.620   9.750
 1062BOLB   NC225477  10.080  22.960   9.420
 1062BOLB   PO225478  10.060  22.900   9.840
 1062BOLB   GL325479  10.400  22.630   9.870
 1062BOLB   GL425480  10.620  22.790   9.620
 1062BOLB   C1C25481  10.760  22.200   9.860
 1062BOLB   C2C25482  11.160  21.960   9.850
 1062BOLB   C3C25483  11.530  21.810   9.480
 1062BOLB   C4C25484  11.810  21.550   9.480
 1062BOLB   C1D25485  10.840  22.450   9.470
 1062BOLB   C2D25486  10.960  21.980   9.370
 1062BOLB   C3D25487  11.060  21.600   9.390
 1062BOLB   C4D25488  11.270  21.330   9.390
 1063BOLB   NC125489  21.980  21.800  17.370
 1063BOLB   PO125490  22.400  21.620  17.100
 1063BOLB   GL125491  22.490  22.000  17.280
 1063BOLB   GL225492  22.480  21.990  17.590
 1063BOLB   C1A25493  22.350  22.440  17.290
 1063BOLB   C2A25494  22.450  22.800  17.480
 1063BOLB   C3A25495  22.490  23.120  17.760
 1063BOLB   C4A25496  22.360  23.560  17.890
 1063BOLB   C1B25497  22.450  22.330  17.790
 1063BOLB   C2B25498  22.080  22.580  17.840
 1063BOLB   C3B25499  21.990  22.970  17.910
 1063BOLB   C4B25500  21.690  23.250  18.130
 1063BOLB   NC225501  24.710  25.310  18.270
 1063BOLB   PO225502  24.570  24.900  18.340
 1063BOLB   GL325503  24.360  24.510  18.390
 1063BOLB   GL425504  24.500  24.220  18.310
 1063BOLB   C1C25505  23.880  24.400  18.430
 1063BOLB   C2C25506  23.380  24.310  18.260
 1063BOLB   C3C25507  22.930  24.220  18.020
 1063BOLB   C4C25508  22.660  23.860  18.010
 1063BOLB   C1D25509  24.240  24.120  18.060
 1063BOLB   C2D25510  23.790  24.190  17.990
 1063BOLB   C3D25511  23.570  24.560  17.810
 1063BOLB   C4D25512  23.160  24.710  17.920
 1064BOLB   NC125513  19.000  23.700  13.630
 1064BOLB   PO125514  19.360  23.850  13.510
 1064BOLB   GL125515  19.420  24.190  13.650
 1064BOLB   GL225516  19.690  24.080  13.850
 1064BOLB   C1A25517  19.280  24.500  13.610
 1064BOLB   C2A25518  19.480  25.020  13.550
 1064BOLB   C3A25519  19.570  25.420  13.650
 1064BOLB   C4A25520  19.620  25.860  13.660
 1064BOLB   C1B25521  19.700  24.410  13.990
 1064BOLB   C2B25522  19.470  24.740  13.940
 1064BOLB   C3B25523  19.370  25.130  14.140
 1064BOLB   C4B25524  19.290  25.590  14.040
 1064BOLB   NC225525  20.480  28.090  12.420
 1064BOLB   PO225526  20.240  27.940  12.820
 1064BOLB   GL325527  20.000  27.690  13.090
 1064BOLB   GL425528  19.580  27.770  13.230
 1064BOLB   C1C25529  19.920  27.370  13.170
 1064BOLB   C2C25530  19.770  26.950  13.240
 1064BOLB   C3C25531  19.480  26.590  13.300
 1064BOLB   C4C25532  19.420  26.140  13.430
 1064BOLB   C1D25533  19.630  27.310  13.520
 1064BOLB   C2D25534  19.770  26.820  13.780
 1064BOLB   C3D25535  19.750  26.280  13.900
 1064BOLB   C4D25536  19.780  25.980  14.250
 1065BOLB   NC125537  26.820  13.310   9.830
 1065BOLB   PO125538  26.870  12.850   9.790
 1065BOLB   GL125539  26.910  13.120   9.340
 1065BOLB   GL225540  26.820  12.880   9.120
 1065BOLB   C1A25541  27.060  13.540   9.200
 1065BOLB   C2A25542  27.320  13.670   8.790
 1065BOLB   C3A25543  27.570  13.480   8.580
 1065BOLB   C4A25544  27.810  13.490   8.200
 1065BOLB   C1B25545  27.160  13.050   8.900
 1065BOLB   C2B25546  27.100  13.240   8.530
 1065BOLB   C3B25547  27.290  13.280   8.100
 1065BOLB   C4B25548  27.160  13.100   7.680
 1065BOLB   NC225549  30.220  14.050   7.660
 1065BOLB   PO225550  29.890  14.000   7.400
 1065BOLB   GL325551  29.570  14.130   7.460
 1065BOLB   GL425552  29.440  14.420   7.420
 1065BOLB   C1C25553  29.210  13.840   7.320
 1065BOLB   C2C25554  28.830  13.760   7.390
 1065BOLB   C3C25555  28.480  13.590   7.670
 1065BOLB   C4C25556  28.160  13.360   7.860
 1065BOLB   C1D25557  29.110  14.300   7.580
 1065BOLB   C2D25558  28.620  14.090   7.690
 1065BOLB   C3D25559  28.420  13.920   8.030
 1065BOLB   C4D25560  28.270  13.930   8.510
 1066BOLB   NC125561  23.170  18.150  19.260
 1066BOLB   PO125562  23.510  18.060  18.990
 1066BOLB   GL125563  23.590  17.870  19.380
 1066BOLB   GL225564  23.730  18.190  19.420
 1066BOLB   C1A25565  23.690  17.780  19.900
 1066BOLB   C2A25566  23.930  17.750  20.310
 1066BOLB   C3A25567  23.780  18.030  20.710
 1066BOLB   C4A25568  23.990  17.980  21.050
 1066BOLB   C1B25569  23.860  18.240  19.740
 1066BOLB   C2B25570  24.080  18.230  20.180
 1066BOLB   C3B25571  24.230  18.180  20.510
 1066BOLB   C4B25572  24.530  18.300  20.890
 1066BOLB   NC225573  24.630  19.630  22.680
 1066BOLB   PO225574  25.000  19.650  22.400
 1066BOLB   GL325575  25.070  19.350  21.960
 1066BOLB   GL425576  25.370  19.610  21.910
 1066BOLB   C1C25577  24.930  19.010  21.730
 1066BOLB   C2C25578  24.800  18.610  21.530
 1066BOLB   C3C25579  24.710  18.110  21.350
 1066BOLB   C4C25580  24.400  17.870  21.150
 1066BOLB   C1D25581  25.300  19.660  21.500
 1066BOLB   C2D25582  25.000  19.450  21.170
 1066BOLB   C3D25583  24.770  19.310  20.800
 1066BOLB   C4D25584  24.610  19.310  20.360
 1067BOLB   NC125585  19.450  22.990  14.390
 1067BOLB   PO125586  19.630  23.440  14.600
 1067BOLB   GL125587  19.810  23.820  14.770
 1067BOLB   GL225588  19.890  24.050  14.500
 1067BOLB   C1A25589  20.240  24.050  14.970
 1067BOLB   C2A25590  20.470  24.450  15.090
 1067BOLB   C3A25591  20.600  24.870  15.400
 1067BOLB   C4A25592  20.670  25.330  15.330
 1067BOLB   C1B25593  20.000  24.400  14.630
 1067BOLB   C2B25594  19.820  24.740  14.900
 1067BOLB   C3B25595  19.630  24.950  15.210
 1067BOLB   C4B25596  19.810  25.250  15.300
 1067BOLB   NC225597  22.050  27.380  16.620
 1067BOLB   PO225598  21.980  27.110  16.260
 1067BOLB   GL325599  21.740  26.650  16.190
 1067BOLB   GL425600  21.790  26.400  16.340
 1067BOLB   C1C25601  21.450  26.420  16.000
 1067BOLB   C2C25602  21.100  26.140  15.990
 1067BOLB   C3C25603  20.800  25.980  15.700
 1067BOLB   C4C25604  20.950  25.590  15.510
 1067BOLB   C1D25605  21.830  26.130  16.060
 1067BOLB   C2D25606  21.660  25.990  15.690
 1067BOLB   C3D25607  21.300  25.720  15.820
 1067BOLB   C4D25608  21.010  25.750  16.250
 1068BOLB   NC125609  26.900  18.530  12.720
 1068BOLB   PO125610  27.190  18.890  12.770
 1068BOLB   GL125611  27.380  19.260  12.710
 1068BOLB   GL225612  27.610  19.010  12.520
 1068BOLB   C1A25613  27.780  19.530  12.550
 1068BOLB   C2A25614  28.080  19.860  12.670
 1068BOLB   C3A25615  28.330  20.220  12.870
 1068BOLB   C4A25616  28.570  20.500  12.950
 1068BOLB   C1B25617  28.050  19.150  12.550
 1068BOLB   C2B25618  28.360  19.480  12.300
 1068BOLB   C3B25619  28.580  19.720  12.500
 1068BOLB   C4B25620  28.670  19.870  12.880
 1068BOLB   NC225621  30.990  21.000  13.410
 1068BOLB   PO225622  30.510  21.080  13.450
 1068BOLB   GL325623  30.090  20.970  13.490
 1068BOLB   GL425624  30.010  20.620  13.530
 1068BOLB   C1C25625  29.800  20.950  13.180
 1068BOLB   C2C25626  29.660  20.700  12.970
 1068BOLB   C3C25627  29.280  20.670  12.720
 1068BOLB   C4C25628  28.840  20.960  12.830
 1068BOLB   C1D25629  30.120  20.210  13.540
 1068BOLB   C2D25630  30.050  19.740  13.620
 1068BOLB   C3D25631  29.610  19.560  13.700
 1068BOLB   C4D25632  29.430  19.300  14.060
 1069BOLB   NC125633  10.320  13.500  15.670
 1069BOLB   PO125634  10.160  13.890  15.650
 1069BOLB   GL125635   9.830  13.600  15.740
 1069BOLB   GL225636   9.770  13.890  15.950
 1069BOLB   C1A25637   9.360  13.470  15.770
 1069BOLB   C2A25638   8.960  13.340  15.760
 1069BOLB   C3A25639   8.590  13.040  15.790
 1069BOLB   C4A25640   8.520  12.680  16.110
 1069BOLB   C1B25641   9.470  13.820  16.210
 1069BOLB   C2B25642   9.120  13.470  16.220
 1069BOLB   C3B25643   8.650  13.670  16.130
 1069BOLB   C4B25644   8.380  13.740  15.850
 1069BOLB   NC225645   6.500  11.420  17.360
 1069BOLB   PO225646   6.560  11.860  17.220
 1069BOLB   GL325647   6.820  12.200  17.050
 1069BOLB   GL425648   7.010  12.340  16.750
 1069BOLB   C1C25649   7.380  12.290  17.150
 1069BOLB   C2C25650   7.680  12.600  17.030
 1069BOLB   C3C25651   8.000  12.620  16.790
 1069BOLB   C4C25652   8.160  12.510  16.350
 1069BOLB   C1D25653   7.310  12.550  16.670
 1069BOLB   C2D25654   7.730  12.800  16.420
 1069BOLB   C3D25655   8.250  12.980  16.440
 1069BOLB   C4D25656   8.260  13.340  16.170
 1070BOLB   NC125657  15.880   8.560   9.850
 1070BOLB   PO125658  16.290   8.640   9.590
 1070BOLB   GL125659  16.230   8.280   9.410
 1070BOLB   GL225660  16.170   8.430   9.050
 1070BOLB   C1A25661  16.410   8.000   9.160
 1070BOLB   C2A25662  16.330   7.740   8.970
 1070BOLB   C3A25663  16.160   7.560   8.700
 1070BOLB   C4A25664  15.930   7.280   8.460
 1070BOLB   C1B25665  16.060   8.590   8.680
 1070BOLB   C2B25666  15.820   8.430   8.390
 1070BOLB   C3B25667  15.690   8.600   7.940
 1070BOLB   C4B25668  15.440   8.730   7.520
 1070BOLB   NC225669  14.870   5.930   6.640
 1070BOLB   PO225670  15.280   5.830   6.620
 1070BOLB   GL325671  15.580   6.220   6.830
 1070BOLB   GL425672  15.780   6.430   6.700
 1070BOLB   C1C25673  15.730   6.400   7.260
 1070BOLB   C2C25674  15.860   6.840   7.370
 1070BOLB   C3C25675  15.740   7.110   7.740
 1070BOLB   C4C25676  15.800   7.220   8.110
 1070BOLB   C1D25677  16.170   6.480   7.000
 1070BOLB   C2D25678  16.230   6.260   7.400
 1070BOLB   C3D25679  16.170   6.580   7.710
 1070BOLB   C4D25680  16.210   7.090   7.810
 1071BOLB   NC125681  25.570  25.780  13.980
 1071BOLB   PO125682  25.900  25.530  13.760
 1071BOLB   GL125683  25.660  25.120  13.890
 1071BOLB   GL225684  25.370  24.980  14.130
 1071BOLB   C1A25685  25.470  24.720  13.730
 1071BOLB   C2A25686  25.310  24.360  13.490
 1071BOLB   C3A25687  25.280  23.910  13.320
 1071BOLB   C4A25688  25.480  23.790  12.810
 1071BOLB   C1B25689  24.990  24.890  14.350
 1071BOLB   C2B25690  24.640  24.650  14.570
 1071BOLB   C3B25691  24.240  24.630  14.650
 1071BOLB   C4B25692  23.980  25.000  14.760
 1071BOLB   NC225693  27.120  24.420  11.910
 1071BOLB   PO225694  26.820  24.750  11.820
 1071BOLB   GL325695  26.560  24.460  11.630
 1071BOLB   GL425696  26.750  24.240  11.530
 1071BOLB   C1C25697  26.130  24.310  11.620
 1071BOLB   C2C25698  25.900  24.020  11.760
 1071BOLB   C3C25699  25.680  23.900  12.120
 1071BOLB   C4C25700  25.440  23.850  12.400
 1071BOLB   C1D25701  26.380  23.950  11.560
 1071BOLB   C2D25702  26.140  23.640  11.560
 1071BOLB   C3D25703  26.090  23.250  11.510
 1071BOLB   C4D25704  25.790  22.980  11.630
 1072BOLB   NC125705  17.670  17.380   7.970
 1072BOLB   PO125706  17.740  17.260   7.470
 1072BOLB   GL125707  17.680  17.400   7.050
 1072BOLB   GL225708  17.620  17.740   6.930
 1072BOLB   C1A25709  17.830  17.310   6.610
 1072BOLB   C2A25710  17.690  17.250   6.170
 1072BOLB   C3A25711  17.610  17.500   5.800
 1072BOLB   C4A25712  17.660  17.520   5.380
 1072BOLB   C1B25713  17.880  18.120   6.760
 1072BOLB   C2B25714  17.780  18.250   6.410
 1072BOLB   C3B25715  17.760  18.350   5.970
 1072BOLB   C4B25716  17.660  18.520   5.590
 1072BOLB   NC225717  16.860  17.240   3.330
 1072BOLB   PO225718  17.170  16.980   3.270
 1072BOLB   GL325719  17.180  16.990   3.670
 1072BOLB   GL425720  17.090  17.180   3.820
 1072BOLB   C1C25721  17.480  17.040   4.030
 1072BOLB   C2C25722  17.590  16.970   4.380
 1072BOLB   C3C25723  17.630  17.200   4.610
 1072BOLB   C4C25724  17.720  17.170   4.980
 1072BOLB   C1D25725  17.030  17.140   4.260
 1072BOLB   C2D25726  16.710  16.950   4.360
 1072BOLB   C3D25727  16.320  16.950   4.660
 1072BOLB   C4D25728  15.890  16.900   4.920
 1073BOLB   NC125729  15.600  15.610   7.780
 1073BOLB   PO125730  15.610  15.450   7.420
 1073BOLB   GL125731  15.540  15.580   6.980
 1073BOLB   GL225732  15.600  15.870   6.860
 1073BOLB   C1A25733  15.280  15.450   6.670
 1073BOLB   C2A25734  15.080  15.540   6.250
 1073BOLB   C3A25735  14.850  15.910   6.070
 1073BOLB   C4A25736  14.800  16.370   5.830
 1073BOLB   C1B25737  15.500  15.880   6.460
 1073BOLB   C2B25738  15.500  15.910   5.970
 1073BOLB   C3B25739  15.480  15.800   5.490
 1073BOLB   C4B25740  15.500  15.850   5.040
 1073BOLB   NC225741  15.120  17.440   3.310
 1073BOLB   PO225742  14.880  17.110   3.530
 1073BOLB   GL325743  14.960  16.790   3.910
 1073BOLB   GL425744  14.710  16.740   4.110
 1073BOLB   C1C25745  15.200  16.620   4.370
 1073BOLB   C2C25746  15.340  16.370   4.780
 1073BOLB   C3C25747  15.170  16.290   5.230
 1073BOLB   C4C25748  14.890  16.540   5.460
 1073BOLB   C1D25749  14.630  16.710   4.550
 1073BOLB   C2D25750  14.440  16.820   4.840
 1073BOLB   C3D25751  14.360  16.860   5.170
 1073BOLB   C4D25752  14.590  16.930   5.600
 1074BOLB   NC125753  23.040  16.830   8.270
 1074BOLB   PO125754  23.150  16.710   7.790
 1074BOLB   GL125755  23.300  16.790   7.350
 1074BOLB   GL225756  23.630  16.690   7.180
 1074BOLB   C1A25757  23.350  17.010   6.990
 1074BOLB   C2A25758  23.520  17.310   6.740
 1074BOLB   C3A25759  23.610  17.400   6.340
 1074BOLB   C4A25760  23.710  17.630   6.000
 1074BOLB   C1B25761  23.800  16.770   6.750
 1074BOLB   C2B25762  23.830  16.910   6.330
 1074BOLB   C3B25763  23.960  16.990   5.980
 1074BOLB   C4B25764  24.000  16.810   5.540
 1074BOLB   NC225765  23.910  17.840   3.470
 1074BOLB   PO225766  23.440  17.990   3.400
 1074BOLB   GL325767  23.540  17.860   3.840
 1074BOLB   GL425768  23.620  17.510   3.890
 1074BOLB   C1C25769  23.450  17.870   4.280
 1074BOLB   C2C25770  23.470  17.700   4.680
 1074BOLB   C3C25771  23.580  17.600   5.080
 1074BOLB   C4C25772  23.600  17.660   5.560
 1074BOLB   C1D25773  23.690  17.450   4.310
 1074BOLB   C2D25774  23.760  17.310   4.730
 1074BOLB   C3D25775  24.030  17.270   5.140
 1074BOLB   C4D25776  24.020  17.300   5.560
 1075BOLB   NC125777  19.640  16.640   7.570
 1075BOLB   PO125778  19.720  16.880   7.190
 1075BOLB   GL125779  19.660  17.120   6.790
 1075BOLB   GL225780  19.320  17.270   6.670
 1075BOLB   C1A25781  19.780  17.320   6.370
 1075BOLB   C2A25782  20.100  17.250   6.070
 1075BOLB   C3A25783  20.340  17.220   5.760
 1075BOLB   C4A25784  20.380  17.040   5.390
 1075BOLB   C1B25785  19.400  17.230   6.130
 1075BOLB   C2B25786  19.600  17.320   5.820
 1075BOLB   C3B25787  19.940  17.320   5.490
 1075BOLB   C4B25788  20.000  17.200   5.060
 1075BOLB   NC225789  20.030  18.530   2.710
 1075BOLB   PO225790  20.110  18.170   3.120
 1075BOLB   GL325791  20.220  17.900   3.490
 1075BOLB   GL425792  20.230  18.090   3.760
 1075BOLB   C1C25793  20.510  17.590   3.690
 1075BOLB   C2C25794  20.530  17.440   4.090
 1075BOLB   C3C25795  20.520  17.360   4.520
 1075BOLB   C4C25796  20.490  17.270   4.950
 1075BOLB   C1D25797  20.060  17.670   3.940
 1075BOLB   C2D25798  20.100  17.240   4.240
 1075BOLB   C3D25799  20.180  16.920   4.570
 1075BOLB   C4D25800  20.310  16.700   4.940
 1076BOLB   NC125801  26.270  20.020  12.720
 1076BOLB   PO125802  26.530  19.520  12.810
 1076BOLB   GL125803  26.800  19.840  12.830
 1076BOLB   GL225804  26.800  19.930  12.580
 1076BOLB   C1A25805  27.140  19.990  12.990
 1076BOLB   C2A25806  27.440  20.310  13.110
 1076BOLB   C3A25807  27.700  20.540  12.750
 1076BOLB   C4A25808  27.790  20.760  12.440
 1076BOLB   C1B25809  27.140  20.320  12.510
 1076BOLB   C2B25810  27.210  20.740  12.730
 1076BOLB   C3B25811  27.220  20.870  13.250
 1076BOLB   C4B25812  27.480  20.860  13.650
 1076BOLB   NC225813  29.480  22.130  12.890
 1076BOLB   PO225814  29.670  21.810  12.690
 1076BOLB   GL325815  29.410  21.530  12.440
 1076BOLB   GL425816  29.120  21.300  12.650
 1076BOLB   C1C25817  29.060  21.490  12.110
 1076BOLB   C2C25818  28.610  21.290  11.950
 1076BOLB   C3C25819  28.330  21.020  11.950
 1076BOLB   C4C25820  28.100  20.780  12.100
 1076BOLB   C1D25821  28.770  21.350  12.510
 1076BOLB   C2D25822  28.340  21.120  12.430
 1076BOLB   C3D25823  28.300  20.640  12.520
 1076BOLB   C4D25824  28.060  20.290  12.410
 1077BOLB   NC125825  17.310  17.580   7.330
 1077BOLB   PO125826  17.310  17.940   7.280
 1077BOLB   GL125827  17.060  17.780   6.890
 1077BOLB   GL225828  17.230  17.530   6.780
 1077BOLB   C1A25829  16.900  17.830   6.460
 1077BOLB   C2A25830  17.060  17.780   6.040
 1077BOLB   C3A25831  17.060  17.740   5.600
 1077BOLB   C4A25832  17.280  17.910   5.250
 1077BOLB   C1B25833  17.470  17.660   6.450
 1077BOLB   C2B25834  17.790  17.870   6.110
 1077BOLB   C3B25835  18.160  18.140   6.110
 1077BOLB   C4B25836  18.500  18.290   6.100
 1077BOLB   NC225837  16.670  19.110   3.470
 1077BOLB   PO225838  16.420  18.710   3.290
 1077BOLB   GL325839  16.530  18.630   3.780
 1077BOLB   GL425840  16.480  18.880   4.030
 1077BOLB   C1C25841  16.680  18.360   4.020
 1077BOLB   C2C25842  16.960  18.230   4.300
 1077BOLB   C3C25843  17.150  18.470   4.730
 1077BOLB   C4C25844  17.400  18.280   5.130
 1077BOLB   C1D25845  16.750  18.820   4.390
 1077BOLB   C2D25846  16.760  18.720   4.910
 1077BOLB   C3D25847  16.880  18.670   5.310
 1077BOLB   C4D25848  17.290  18.820   5.190
 1078BOLB   NC125849  18.210  21.380   9.300
 1078BOLB   PO125850  18.430  21.720   9.070
 1078BOLB   GL125851  18.340  22.090   8.840
 1078BOLB   GL225852  18.550  22.280   8.590
 1078BOLB   C1A25853  18.090  22.220   8.570
 1078BOLB   C2A25854  17.980  22.570   8.360
 1078BOLB   C3A25855  17.760  22.930   8.180
 1078BOLB   C4A25856  17.780  23.030   7.750
 1078BOLB   C1B25857  18.680  22.570   8.230
 1078BOLB   C2B25858  18.510  22.800   7.970
 1078BOLB   C3B25859  18.260  23.100   7.840
 1078BOLB   C4B25860  17.910  23.400   7.990
 1078BOLB   NC225861  17.360  25.190   6.170
 1078BOLB   PO225862  17.130  25.030   6.500
 1078BOLB   GL325863  17.190  24.570   6.370
 1078BOLB   GL425864  16.970  24.520   6.160
 1078BOLB   C1C25865  17.280  24.160   6.490
 1078BOLB   C2C25866  17.410  23.910   6.800
 1078BOLB   C3C25867  17.600  23.640   7.220
 1078BOLB   C4C25868  17.860  23.320   7.390
 1078BOLB   C1D25869  16.610  24.550   6.410
 1078BOLB   C2D25870  16.370  24.670   6.860
 1078BOLB   C3D25871  16.250  24.610   7.270
 1078BOLB   C4D25872  15.930  24.370   7.550
 1079BOLB   NC125873  18.890  23.930  12.260
 1079BOLB   PO125874  18.430  23.840  12.490
 1079BOLB   GL125875  18.560  24.330  12.430
 1079BOLB   GL225876  18.870  24.410  12.200
 1079BOLB   C1A25877  18.340  24.700  12.570
 1079BOLB   C2A25878  18.130  25.000  12.340
 1079BOLB   C3A25879  18.090  25.410  12.180
 1079BOLB   C4A25880  17.750  25.680  11.900
 1079BOLB   C1B25881  19.220  24.630  12.020
 1079BOLB   C2B25882  19.230  25.140  12.100
 1079BOLB   C3B25883  19.100  25.540  12.160
 1079BOLB   C4B25884  19.030  25.940  12.060
 1079BOLB   NC225885  17.380  27.640  11.040
 1079BOLB   PO225886  17.430  27.910  11.440
 1079BOLB   GL325887  17.210  27.500  11.450
 1079BOLB   GL425888  17.430  27.170  11.260
 1079BOLB   C1C25889  17.150  27.090  11.610
 1079BOLB   C2C25890  17.230  26.680  11.860
 1079BOLB   C3C25891  17.480  26.380  11.740
 1079BOLB   C4C25892  17.720  26.070  11.760
 1079BOLB   C1D25893  17.590  26.830  11.540
 1079BOLB   C2D25894  17.750  26.760  11.930
 1079BOLB   C3D25895  17.640  26.540  12.170
 1079BOLB   C4D25896  17.800  26.150  12.230
 1080BOLB   NC125897  26.720  18.060  10.830
 1080BOLB   PO125898  26.800  17.820  11.130
 1080BOLB   GL125899  27.190  18.050  10.940
 1080BOLB   GL225900  27.030  17.760  10.670
 1080BOLB   C1A25901  27.550  18.260  10.820
 1080BOLB   C2A25902  27.720  18.580  10.770
 1080BOLB   C3A25903  27.920  18.750  10.870
 1080BOLB   C4A25904  28.300  18.920  10.920
 1080BOLB   C1B25905  27.320  17.950  10.380
 1080BOLB   C2B25906  27.700  18.280  10.290
 1080BOLB   C3B25907  28.010  18.520  10.100
 1080BOLB   C4B25908  28.410  18.780   9.880
 1080BOLB   NC225909  30.610  19.650  10.410
 1080BOLB   PO225910  30.340  19.500  10.050
 1080BOLB   GL325911  30.030  19.100  10.250
 1080BOLB   GL425912  29.810  19.150  10.030
 1080BOLB   C1C25913  29.690  19.030  10.520
 1080BOLB   C2C25914  29.360  19.150  10.770
 1080BOLB   C3C25915  29.040  19.010  10.930
 1080BOLB   C4C25916  28.660  18.870  11.140
 1080BOLB   C1D25917  29.460  19.430  10.130
 1080BOLB   C2D25918  29.130  19.420  10.440
 1080BOLB   C3D25919  28.710  19.460  10.370
 1080BOLB   C4D25920  28.200  19.430  10.320
 1081BOLB   NC125921  23.110  26.550  11.190
 1081BOLB   PO125922  23.500  26.520  11.050
 1081BOLB   GL125923  23.400  26.250  11.390
 1081BOLB   GL225924  23.760  26.070  11.400
 1081BOLB   C1A25925  23.460  25.760  11.560
 1081BOLB   C2A25926  23.630  25.470  11.600
 1081BOLB   C3A25927  23.820  25.090  11.560
 1081BOLB   C4A25928  23.770  24.730  11.930
 1081BOLB   C1B25929  23.890  25.840  11.780
 1081BOLB   C2B25930  23.960  25.820  12.170
 1081BOLB   C3B25931  23.790  25.700  12.530
 1081BOLB   C4B25932  23.580  25.660  12.830
 1081BOLB   NC225933  24.490  25.980  12.360
 1081BOLB   PO225934  24.870  25.890  12.130
 1081BOLB   GL325935  24.770  25.570  12.110
 1081BOLB   GL425936  24.350  25.530  12.090
 1081BOLB   C1C25937  24.760  25.180  12.240
 1081BOLB   C2C25938  24.560  24.860  12.290
 1081BOLB   C3C25939  24.220  24.610  12.330
 1081BOLB   C4C25940  23.820  24.580  12.330
 1081BOLB   C1D25941  24.160  25.450  11.730
 1081BOLB   C2D25942  24.280  25.330  11.320
 1081BOLB   C3D25943  24.330  25.330  10.940
 1081BOLB   C4D25944  24.680  25.550  10.670
 1082BOLB   NC125945  23.400  18.270   8.460
 1082BOLB   PO125946  23.870  18.450   8.390
 1082BOLB   GL125947  24.060  18.590   7.940
 1082BOLB   GL225948  23.960  18.550   7.580
 1082BOLB   C1A25949  24.430  18.550   7.630
 1082BOLB   C2A25950  24.370  18.500   7.160
 1082BOLB   C3A25951  24.240  18.460   6.800
 1082BOLB   C4A25952  24.000  18.490   6.430
 1082BOLB   C1B25953  23.900  18.590   7.200
 1082BOLB   C2B25954  23.770  18.790   6.780
 1082BOLB   C3B25955  24.090  18.980   6.540
 1082BOLB   C4B25956  24.280  19.080   6.160
 1082BOLB   NC225957  24.470  20.780   4.660
 1082BOLB   PO225958  24.370  20.430   5.010
 1082BOLB   GL325959  24.340  20.080   5.310
 1082BOLB   GL425960  24.450  20.170   5.550
 1082BOLB   C1C25961  24.460  19.670   5.500
 1082BOLB   C2C25962  24.320  19.310   5.740
 1082BOLB   C3C25963  24.140  18.920   5.710
 1082BOLB   C4C25964  23.890  18.710   6.110
 1082BOLB   C1D25965  24.320  20.010   5.880
 1082BOLB   C2D25966  24.250  19.970   6.320
 1082BOLB   C3D25967  23.970  20.030   6.580
 1082BOLB   C4D25968  23.760  19.790   6.940
 1083BOLB   NC125969  26.730  16.930  16.510
 1083BOLB   PO125970  26.800  16.920  16.960
 1083BOLB   GL125971  27.110  17.160  17.140
 1083BOLB   GL225972  26.880  17.160  17.390
 1083BOLB   C1A25973  27.540  17.280  17.160
 1083BOLB   C2A25974  27.850  17.700  17.280
 1083BOLB   C3A25975  28.080  18.120  17.310
 1083BOLB   C4A25976  28.030  18.510  17.620
 1083BOLB   C1B25977  27.030  17.240  17.730
 1083BOLB   C2B25978  27.360  17.160  17.970
 1083BOLB   C3B25979  27.520  17.320  18.310
 1083BOLB   C4B25980  27.790  17.650  18.540
 1083BOLB   NC225981  29.460  19.140  19.310
 1083BOLB   PO225982  29.070  19.360  19.390
 1083BOLB   GL325983  28.770  19.180  19.200
 1083BOLB   GL425984  28.330  19.330  19.210
 1083BOLB   C1C25985  28.550  18.850  19.110
 1083BOLB   C2C25986  28.350  18.660  18.780
 1083BOLB   C3C25987  28.180  18.610  18.450
 1083BOLB   C4C25988  27.950  18.540  18.010
 1083BOLB   C1D25989  27.870  19.290  19.150
 1083BOLB   C2D25990  27.470  19.300  19.050
 1083BOLB   C3D25991  27.090  19.190  18.870
 1083BOLB   C4D25992  26.940  18.780  19.070
 1084BOLB   NC125993  20.150  23.210  15.400
 1084BOLB   PO125994  20.520  23.030  15.410
 1084BOLB   GL125995  20.630  23.380  15.470
 1084BOLB   GL225996  20.890  23.430  15.390
 1084BOLB   C1A25997  20.450  23.810  15.440
 1084BOLB   C2A25998  20.540  24.210  15.520
 1084BOLB   C3A25999  20.670  24.550  15.830
 1084BOLB   C4A26000  20.930  24.880  15.820
 1084BOLB   C1B26001  20.910  23.840  15.560
 1084BOLB   C2B26002  21.180  24.170  15.830
 1084BOLB   C3B26003  21.410  24.440  16.090
 1084BOLB   C4B26004  21.300  24.860  16.200
 1084BOLB   NC226005  22.310  27.200  14.960
 1084BOLB   PO226006  21.940  27.150  15.200
 1084BOLB   GL326007  22.150  26.710  15.200
 1084BOLB   GL426008  22.260  26.610  14.800
 1084BOLB   C1C26009  22.030  26.170  15.320
 1084BOLB   C2C26010  21.950  25.770  15.400
 1084BOLB   C3C26011  21.610  25.430  15.630
 1084BOLB   C4C26012  21.230  25.250  15.740
 1084BOLB   C1D26013  22.070  26.330  14.810
 1084BOLB   C2D26014  21.850  25.940  14.770
 1084BOLB   C3D26015  21.490  25.710  14.800
 1084BOLB   C4D26016  21.190  25.400  14.990
 1085BOLB   NC126017  13.460  13.810   8.660
 1085BOLB   PO126018  13.450  13.480   8.380
 1085BOLB   GL126019  13.310  13.520   8.060
 1085BOLB   GL226020  13.060  13.760   7.920
 1085BOLB   C1A26021  13.360  13.480   7.640
 1085BOLB   C2A26022  13.320  13.220   7.270
 1085BOLB   C3A26023  13.060  13.070   6.930
 1085BOLB   C4A26024  13.020  12.840   6.540
 1085BOLB   C1B26025  12.840  13.640   7.740
 1085BOLB   C2B26026  12.690  13.290   7.530
 1085BOLB   C3B26027  12.540  13.040   7.140
 1085BOLB   C4B26028  12.150  12.840   7.040
 1085BOLB   NC226029  11.320  13.150   4.810
 1085BOLB   PO226030  11.480  12.700   4.880
 1085BOLB   GL326031  11.620  12.340   5.150
 1085BOLB   GL426032  11.600  12.350   5.630
 1085BOLB   C1C26033  12.000  12.550   5.390
 1085BOLB   C2C26034  12.400  12.770   5.410
 1085BOLB   C3C26035  12.710  12.770   5.770
 1085BOLB   C4C26036  13.020  12.720   6.090
 1085BOLB   C1D26037  11.830  12.600   6.000
 1085BOLB   C2D26038  12.090  13.010   6.100
 1085BOLB   C3D26039  12.320  13.340   6.260
 1085BOLB   C4D26040  12.660  13.690   6.400
 1086BOLB   NC126041  23.100  22.300  14.470
 1086BOLB   PO126042  23.200  21.980  14.670
 1086BOLB   GL126043  23.280  22.370  14.970
 1086BOLB   GL226044  23.120  22.570  15.220
 1086BOLB   C1A26045  23.660  22.700  14.870
 1086BOLB   C2A26046  24.100  22.900  15.030
 1086BOLB   C3A26047  24.300  23.200  15.250
 1086BOLB   C4A26048  24.330  23.640  15.490
 1086BOLB   C1B26049  23.320  22.940  15.270
 1086BOLB   C2B26050  23.650  23.180  15.040
 1086BOLB   C3B26051  23.910  23.520  15.180
 1086BOLB   C4B26052  23.980  23.940  15.240
 1086BOLB   NC226053  25.960  24.690  16.220
 1086BOLB   PO226054  25.700  25.130  16.380
 1086BOLB   GL326055  25.350  24.760  16.390
 1086BOLB   GL426056  25.120  24.820  16.080
 1086BOLB   C1C26057  25.200  24.330  16.600
 1086BOLB   C2C26058  24.940  24.060  16.420
 1086BOLB   C3C26059  24.800  23.790  16.070
 1086BOLB   C4C26060  24.700  23.690  15.710
 1086BOLB   C1D26061  25.030  24.440  16.100
 1086BOLB   C2D26062  25.160  24.060  16.020
 1086BOLB   C3D26063  25.250  23.700  15.890
 1086BOLB   C4D26064  25.070  23.330  15.960
 1087BOLB   NC126065  15.060  20.570   8.670
 1087BOLB   PO126066  15.230  20.800   8.980
 1087BOLB   GL126067  14.920  21.100   8.840
 1087BOLB   GL226068  14.910  21.430   8.930
 1087BOLB   C1A26069  14.750  21.320   8.490
 1087BOLB   C2A26070  14.660  21.790   8.250
 1087BOLB   C3A26071  14.540  22.210   8.240
 1087BOLB   C4A26072  14.410  22.590   8.010
 1087BOLB   C1B26073  14.730  21.700   8.830
 1087BOLB   C2B26074  14.410  22.080   8.750
 1087BOLB   C3B26075  14.590  22.450   8.710
 1087BOLB   C4B26076  14.520  22.780   8.500
 1087BOLB   NC226077  13.680  24.810   6.790
 1087BOLB   PO226078  14.120  24.500   6.750
 1087BOLB   GL326079  14.250  24.110   7.050
 1087BOLB   GL426080  14.640  24.110   7.070
 1087BOLB   C1C26081  14.440  23.740   7.280
 1087BOLB   C2C26082  14.590  23.540   7.530
 1087BOLB   C3C26083  14.850  23.420   7.880
 1087BOLB   C4C26084  14.600  23.020   7.930
 1087BOLB   C1D26085  14.900  23.820   7.260
 1087BOLB   C2D26086  15.160  23.540   7.460
 1087BOLB   C3D26087  15.390  23.080   7.320
 1087BOLB   C4D26088  15.420  22.780   6.990
 1088BOLB   NC126089  22.240  20.680   8.940
 1088BOLB   PO126090  22.420  21.080   8.990
 1088BOLB   GL126091  22.540  21.250   8.630
 1088BOLB   GL226092  22.260  21.390   8.470
 1088BOLB   C1A26093  22.900  21.540   8.440
 1088BOLB   C2A26094  23.180  21.700   8.170
 1088BOLB   C3A26095  23.260  22.130   8.060
 1088BOLB   C4A26096  23.170  22.500   7.820
 1088BOLB   C1B26097  22.460  21.650   8.090
 1088BOLB   C2B26098  22.780  21.870   7.800
 1088BOLB   C3B26099  22.820  22.180   7.490
 1088BOLB   C4B26100  22.840  22.450   7.120
 1088BOLB   NC226101  25.330  23.500   7.000
 1088BOLB   PO226102  25.090  23.390   7.290
 1088BOLB   GL326103  24.720  23.540   7.500
 1088BOLB   GL426104  24.670  23.560   7.820
 1088BOLB   C1C26105  24.290  23.390   7.430
 1088BOLB   C2C26106  23.940  23.100   7.360
 1088BOLB   C3C26107  23.480  22.970   7.310
 1088BOLB   C4C26108  23.120  22.780   7.460
 1088BOLB   C1D26109  24.420  23.100   7.860
 1088BOLB   C2D26110  24.050  23.070   7.880
 1088BOLB   C3D26111  23.650  23.190   8.140
 1088BOLB   C4D26112  23.300  23.100   8.320
 1089BOLB   NC126113  24.410  20.720  10.430
 1089BOLB   PO126114  24.200  21.110  10.570
 1089BOLB   GL126115  24.280  21.470  10.430
 1089BOLB   GL226116  24.360  21.710  10.680
 1089BOLB   C1A26117  24.360  21.770  10.190
 1089BOLB   C2A26118  24.350  22.190  10.020
 1089BOLB   C3A26119  24.460  22.650   9.980
 1089BOLB   C4A26120  24.740  23.040  10.070
 1089BOLB   C1B26121  24.400  22.180  10.570
 1089BOLB   C2B26122  24.640  22.410  10.400
 1089BOLB   C3B26123  24.970  22.590  10.140
 1089BOLB   C4B26124  25.230  22.920   9.850
 1089BOLB   NC226125  26.020  25.520  10.210
 1089BOLB   PO226126  26.000  25.250   9.930
 1089BOLB   GL326127  25.660  24.950   9.950
 1089BOLB   GL426128  25.330  25.010  10.330
 1089BOLB   C1C26129  25.580  24.530   9.860
 1089BOLB   C2C26130  25.360  24.190   9.970
 1089BOLB   C3C26131  25.030  23.990  10.060
 1089BOLB   C4C26132  24.780  23.570   9.990
 1089BOLB   C1D26133  25.210  24.560  10.350
 1089BOLB   C2D26134  24.970  24.300  10.490
 1089BOLB   C3D26135  24.600  23.960  10.380
 1089BOLB   C4D26136  24.200  23.610  10.510
 1090BOLB   NC126137  13.750  18.050   8.980
 1090BOLB   PO126138  13.320  18.120   9.070
 1090BOLB   GL126139  12.910  18.320   9.100
 1090BOLB   GL226140  13.000  18.630   8.900
 1090BOLB   C1A26141  12.550  18.450   8.850
 1090BOLB   C2A26142  12.300  18.590   8.490
 1090BOLB   C3A26143  12.030  18.740   8.200
 1090BOLB   C4A26144  11.930  18.940   7.910
 1090BOLB   C1B26145  12.840  18.600   8.430
 1090BOLB   C2B26146  12.570  18.430   8.100
 1090BOLB   C3B26147  12.290  18.570   7.800
 1090BOLB   C4B26148  12.340  18.950   7.590
 1090BOLB   NC226149  11.090  19.060   5.350
 1090BOLB   PO226150  11.550  19.220   5.620
 1090BOLB   GL326151  11.660  19.150   6.000
 1090BOLB   GL426152  11.780  19.400   6.060
 1090BOLB   C1C26153  11.470  19.200   6.440
 1090BOLB   C2C26154  11.540  19.200   6.900
 1090BOLB   C3C26155  11.400  19.010   7.240
 1090BOLB   C4C26156  11.600  18.830   7.660
 1090BOLB   C1D26157  12.000  19.170   6.370
 1090BOLB   C2D26158  12.360  19.110   6.640
 1090BOLB   C3D26159  12.480  19.070   7.100
 1090BOLB   C4D26160  12.780  19.010   7.370
 1091BOLB   NC126161  27.070  14.350  10.780
 1091BOLB   PO126162  27.350  14.230  10.480
 1091BOLB   GL126163  27.480  14.470  10.210
 1091BOLB   GL226164  27.630  14.730  10.410
 1091BOLB   C1A26165  27.800  14.370   9.870
 1091BOLB   C2A26166  28.170  14.160   9.820
 1091BOLB   C3A26167  28.500  14.030   9.440
 1091BOLB   C4A26168  28.720  13.940   9.140
 1091BOLB   C1B26169  28.050  14.740  10.350
 1091BOLB   C2B26170  28.450  14.950  10.130
 1091BOLB   C3B26171  28.820  15.180  10.160
 1091BOLB   C4B26172  29.140  15.510  10.130
 1091BOLB   NC226173  30.100  13.070   7.390
 1091BOLB   PO226174  29.700  13.040   7.170
 1091BOLB   GL326175  29.630  13.020   7.570
 1091BOLB   GL426176  29.350  12.990   7.590
 1091BOLB   C1C26177  29.640  13.140   7.990
 1091BOLB   C2C26178  29.730  13.300   8.450
 1091BOLB   C3C26179  29.460  13.410   8.830
 1091BOLB   C4C26180  28.990  13.560   9.110
 1091BOLB   C1D26181  28.990  13.150   7.360
 1091BOLB   C2D26182  28.550  13.260   7.280
 1091BOLB   C3D26183  28.200  13.580   7.170
 1091BOLB   C4D26184  27.870  13.550   7.350
 1092BOLB   NC126185  11.090  17.670  15.760
 1092BOLB   PO126186  11.100  18.100  15.730
 1092BOLB   GL126187  10.790  18.290  15.900
 1092BOLB   GL226188  10.720  18.380  16.220
 1092BOLB   C1A26189  10.320  18.450  15.790
 1092BOLB   C2A26190   9.950  18.720  15.640
 1092BOLB   C3A26191   9.650  18.950  15.740
 1092BOLB   C4A26192   9.540  19.330  15.710
 1092BOLB   C1B26193  10.250  18.580  16.280
 1092BOLB   C2B26194   9.860  18.370  16.180
 1092BOLB   C3B26195   9.590  18.160  16.020
 1092BOLB   C4B26196   9.140  18.070  15.920
 1092BOLB   NC226197   8.250  19.800  17.480
 1092BOLB   PO226198   8.610  19.920  17.720
 1092BOLB   GL326199   8.670  19.990  17.250
 1092BOLB   GL426200   8.640  19.790  17.000
 1092BOLB   C1C26201   8.880  20.180  16.810
 1092BOLB   C2C26202   9.230  20.330  16.540
 1092BOLB   C3C26203   9.530  20.080  16.390
 1092BOLB   C4C26204   9.490  19.770  16.010
 1092BOLB   C1D26205   8.850  19.530  16.730
 1092BOLB   C2D26206   8.850  19.100  16.640
 1092BOLB   C3D26207   9.100  18.730  16.430
 1092BOLB   C4D26208   9.420  18.570  16.220
 1093BOLB   NC126209  18.610  27.630  11.950
 1093BOLB   PO126210  18.730  27.430  11.570
 1093BOLB   GL126211  18.540  26.980  11.370
 1093BOLB   GL226212  18.800  26.910  11.140
 1093BOLB   C1A26213  18.340  26.710  11.590
 1093BOLB   C2A26214  18.170  26.430  11.890
 1093BOLB   C3A26215  18.220  26.380  12.290
 1093BOLB   C4A26216  18.560  26.240  12.550
 1093BOLB   C1B26217  19.200  26.740  11.420
 1093BOLB   C2B26218  19.560  26.820  11.570
 1093BOLB   C3B26219  19.960  26.530  11.610
 1093BOLB   C4B26220  20.300  26.230  11.660
 1093BOLB   NC226221  20.860  27.490  12.310
 1093BOLB   PO226222  20.330  27.370  12.200
 1093BOLB   GL326223  20.070  27.080  12.450
 1093BOLB   GL426224  19.780  27.050  12.610
 1093BOLB   C1C26225  19.930  26.550  12.450
 1093BOLB   C2C26226  19.660  26.240  12.460
 1093BOLB   C3C26227  19.340  26.200  12.390
 1093BOLB   C4C26228  18.920  26.090  12.500
 1093BOLB   C1D26229  19.590  26.780  12.830
 1093BOLB   C2D26230  19.440  26.510  12.810
 1093BOLB   C3D26231  19.450  26.070  12.920
 1093BOLB   C4D26232  19.730  25.690  12.950
 1094BOLB   NC126233  13.510  26.650  12.780
 1094BOLB   PO126234  13.360  26.340  12.970
 1094BOLB   GL126235  13.150  25.980  12.940
 1094BOLB   GL226236  13.180  25.840  13.220
 1094BOLB   C1A26237  13.150  25.630  12.730
 1094BOLB   C2A26238  13.030  25.130  12.730
 1094BOLB   C3A26239  12.810  24.810  12.790
 1094BOLB   C4A26240  12.970  24.350  12.680
 1094BOLB   C1B26241  13.360  25.460  13.350
 1094BOLB   C2B26242  13.550  25.140  13.000
 1094BOLB   C3B26243  13.440  24.830  12.650
 1094BOLB   C4B26244  13.200  24.680  12.420
 1094BOLB   NC226245  14.000  22.100  11.920
 1094BOLB   PO226246  14.260  22.230  12.200
 1094BOLB   GL326247  14.000  22.670  12.190
 1094BOLB   GL426248  13.790  22.490  12.000
 1094BOLB   C1C26249  13.980  23.100  12.000
 1094BOLB   C2C26250  13.790  23.570  11.990
 1094BOLB   C3C26251  13.760  23.950  12.280
 1094BOLB   C4C26252  13.380  24.220  12.470
 1094BOLB   C1D26253  13.480  22.890  12.040
 1094BOLB   C2D26254  13.330  23.240  12.130
 1094BOLB   C3D26255  13.300  23.530  11.970
 1094BOLB   C4D26256  13.280  23.930  11.970
 1095BOLB   NC126257  16.150  22.650  13.110
 1095BOLB   PO126258  16.190  23.070  13.410
 1095BOLB   GL126259  15.980  23.460  13.460
 1095BOLB   GL226260  16.040  23.750  13.270
 1095BOLB   C1A26261  15.980  23.810  13.780
 1095BOLB   C2A26262  16.240  24.150  13.980
 1095BOLB   C3A26263  16.280  24.600  14.040
 1095BOLB   C4A26264  16.300  25.000  13.840
 1095BOLB   C1B26265  15.720  24.070  13.340
 1095BOLB   C2B26266  15.480  24.390  13.370
 1095BOLB   C3B26267  15.350  24.660  13.100
 1095BOLB   C4B26268  14.930  24.790  13.040
 1095BOLB   NC226269  16.700  27.580  13.060
 1095BOLB   PO226270  16.950  27.580  13.420
 1095BOLB   GL326271  16.690  27.170  13.450
 1095BOLB   GL426272  16.700  26.950  13.720
 1095BOLB   C1C26273  16.610  26.630  13.360
 1095BOLB   C2C26274  16.660  26.160  13.460
 1095BOLB   C3C26275  16.500  25.710  13.470
 1095BOLB   C4C26276  16.360  25.390  13.780
 1095BOLB   C1D26277  16.350  26.740  13.880
 1095BOLB   C2D26278  16.210  26.310  14.040
 1095BOLB   C3D26279  16.320  25.930  13.960
 1095BOLB   C4D26280  16.710  25.800  14.050
 1096BOLB   NC126281  16.660  20.760   8.790
 1096BOLB   PO126282  17.010  20.510   8.660
 1096BOLB   GL126283  16.850  20.760   8.280
 1096BOLB   GL226284  17.010  20.690   8.050
 1096BOLB   C1A26285  16.430  20.890   8.110
 1096BOLB   C2A26286  16.370  21.170   7.710
 1096BOLB   C3A26287  16.470  21.450   7.450
 1096BOLB   C4A26288  16.470  21.770   7.190
 1096BOLB   C1B26289  16.860  20.950   7.750
 1096BOLB   C2B26290  16.900  21.150   7.390
 1096BOLB   C3B26291  16.810  21.280   6.980
 1096BOLB   C4B26292  16.460  21.390   6.690
 1096BOLB   NC226293  16.160  23.010   4.870
 1096BOLB   PO226294  16.310  22.920   5.300
 1096BOLB   GL326295  16.350  22.760   5.680
 1096BOLB   GL426296  16.430  22.450   5.770
 1096BOLB   C1C26297  16.720  22.800   5.950
 1096BOLB   C2C26298  16.770  22.820   6.420
 1096BOLB   C3C26299  16.630  22.520   6.770
 1096BOLB   C4C26300  16.600  22.140   7.050
 1096BOLB   C1D26301  16.220  22.100   5.990
 1096BOLB   C2D26302  16.250  21.800   6.310
 1096BOLB   C3D26303  16.060  21.540   6.430
 1096BOLB   C4D26304  15.680  21.470   6.500
 1097BOLB   NC126305  15.010  21.260   9.380
 1097BOLB   PO126306  15.340  21.460   9.510
 1097BOLB   GL126307  15.510  21.660   9.200
 1097BOLB   GL226308  15.620  21.500   8.970
 1097BOLB   C1A26309  15.660  22.010   8.850
 1097BOLB   C2A26310  15.590  22.360   8.500
 1097BOLB   C3A26311  15.260  22.730   8.490
 1097BOLB   C4A26312  14.890  23.040   8.390
 1097BOLB   C1B26313  15.340  21.590   8.750
 1097BOLB   C2B26314  15.120  21.780   8.500
 1097BOLB   C3B26315  15.090  22.160   8.280
 1097BOLB   C4B26316  14.900  22.580   8.210
 1097BOLB   NC226317  12.980  23.910   7.430
 1097BOLB   PO226318  12.910  23.480   7.400
 1097BOLB   GL326319  13.210  23.230   7.750
 1097BOLB   GL426320  13.120  22.980   7.800
 1097BOLB   C1C26321  13.610  23.250   7.880
 1097BOLB   C2C26322  14.040  23.470   8.120
 1097BOLB   C3C26323  14.380  23.430   8.190
 1097BOLB   C4C26324  14.620  23.350   8.540
 1097BOLB   C1D26325  13.210  22.750   8.120
 1097BOLB   C2D26326  13.340  22.390   8.310
 1097BOLB   C3D26327  13.010  22.080   8.360
 1097BOLB   C4D26328  12.930  21.660   8.400
 1098BOLB   NC126329  22.850  16.470   7.460
 1098BOLB   PO126330  22.780  16.040   7.600
 1098BOLB   GL126331  22.800  15.960   7.270
 1098BOLB   GL226332  22.780  16.150   6.990
 1098BOLB   C1A26333  23.230  15.830   7.070
 1098BOLB   C2A26334  23.490  15.800   6.650
 1098BOLB   C3A26335  23.810  15.780   6.260
 1098BOLB   C4A26336  24.060  15.820   5.810
 1098BOLB   C1B26337  23.010  16.180   6.710
 1098BOLB   C2B26338  23.240  16.150   6.330
 1098BOLB   C3B26339  23.450  16.450   6.090
 1098BOLB   C4B26340  23.700  16.340   5.770
 1098BOLB   NC226341  24.610  14.800   3.570
 1098BOLB   PO226342  25.020  14.580   3.610
 1098BOLB   GL326343  24.680  14.640   4.050
 1098BOLB   GL426344  24.750  14.290   4.260
 1098BOLB   C1C26345  24.720  14.880   4.430
 1098BOLB   C2C26346  24.640  15.040   4.950
 1098BOLB   C3C26347  24.370  15.280   5.180
 1098BOLB   C4C26348  24.180  15.490   5.540
 1098BOLB   C1D26349  24.730  14.500   4.680
 1098BOLB   C2D26350  24.620  14.560   5.010
 1098BOLB   C3D26351  24.540  14.630   5.420
 1098BOLB   C4D26352  24.350  14.600   5.790
 1099BOLB   NC126353  19.400  23.600  15.040
 1099BOLB   PO126354  19.030  23.370  15.170
 1099BOLB   GL126355  18.920  23.780  15.290
 1099BOLB   GL226356  19.190  23.990  15.120
 1099BOLB   C1A26357  18.900  24.160  15.490
 1099BOLB   C2A26358  19.040  24.530  15.440
 1099BOLB   C3A26359  19.230  24.850  15.590
 1099BOLB   C4A26360  19.430  25.260  15.690
 1099BOLB   C1B26361  19.450  24.270  15.470
 1099BOLB   C2B26362  19.630  24.580  15.530
 1099BOLB   C3B26363  19.850  24.940  15.640
 1099BOLB   C4B26364  20.200  25.370  15.840
 1099BOLB   NC226365  20.350  27.940  14.920
 1099BOLB   PO226366  20.170  27.550  14.790
 1099BOLB   GL326367  19.960  27.180  15.060
 1099BOLB   GL426368  20.140  26.990  15.280
 1099BOLB   C1C26369  19.650  26.940  15.400
 1099BOLB   C2C26370  19.390  26.580  15.550
 1099BOLB   C3C26371  19.290  26.140  15.500
 1099BOLB   C4C26372  19.330  25.680  15.480
 1099BOLB   C1D26373  20.090  26.700  14.860
 1099BOLB   C2D26374  20.260  26.240  14.910
 1099BOLB   C3D26375  20.460  25.810  15.010
 1099BOLB   C4D26376  20.640  25.410  14.870
 1100BOLB   NC126377  21.960  22.670  14.220
 1100BOLB   PO126378  21.760  22.890  14.620
 1100BOLB   GL126379  21.950  23.150  14.430
 1100BOLB   GL226380  21.990  23.320  14.130
 1100BOLB   C1A26381  22.280  23.430  14.540
 1100BOLB   C2A26382  22.220  23.810  14.780
 1100BOLB   C3A26383  22.200  24.290  14.670
 1100BOLB   C4A26384  22.070  24.690  14.710
 1100BOLB   C1B26385  21.980  23.740  14.310
 1100BOLB   C2B26386  22.170  24.090  14.080
 1100BOLB   C3B26387  22.220  24.560  14.260
 1100BOLB   C4B26388  22.480  24.890  14.260
 1100BOLB   NC226389  23.210  26.630  14.250
 1100BOLB   PO226390  22.880  27.010  14.270
 1100BOLB   GL326391  22.710  26.660  14.430
 1100BOLB   GL426392  22.860  26.440  14.660
 1100BOLB   C1C26393  22.480  26.210  14.470
 1100BOLB   C2C26394  22.310  25.750  14.600
 1100BOLB   C3C26395  22.010  25.490  14.950
 1100BOLB   C4C26396  22.090  24.970  15.010
 1100BOLB   C1D26397  22.950  25.980  14.830
 1100BOLB   C2D26398  23.200  25.660  14.830
 1100BOLB   C3D26399  23.700  25.720  14.820
 1100BOLB   C4D26400  24.050  25.440  15.060
 1101BOLB   NC126401  16.650  22.090  16.160
 1101BOLB   PO126402  16.680  22.490  15.980
 1101BOLB   GL126403  16.840  22.860  16.170
 1101BOLB   GL226404  17.110  23.030  16.190
 1101BOLB   C1A26405  16.720  23.260  16.570
 1101BOLB   C2A26406  16.740  23.660  16.760
 1101BOLB   C3A26407  16.810  24.000  16.940
 1101BOLB   C4A26408  16.820  24.420  17.060
 1101BOLB   C1B26409  17.030  23.470  16.200
 1101BOLB   C2B26410  16.940  23.990  16.270
 1101BOLB   C3B26411  17.010  24.350  16.040
 1101BOLB   C4B26412  17.280  24.710  16.170
 1101BOLB   NC226413  16.330  26.410  17.690
 1101BOLB   PO226414  15.910  26.350  17.470
 1101BOLB   GL326415  15.830  25.910  17.280
 1101BOLB   GL426416  16.030  25.660  17.490
 1101BOLB   C1C26417  16.000  25.720  16.850
 1101BOLB   C2C26418  16.340  25.440  16.900
 1101BOLB   C3C26419  16.620  25.150  16.740
 1101BOLB   C4C26420  16.830  24.910  16.980
 1101BOLB   C1D26421  16.170  25.250  17.510
 1101BOLB   C2D26422  16.560  24.990  17.460
 1101BOLB   C3D26423  16.490  24.490  17.470
 1101BOLB   C4D26424  16.450  24.060  17.300
 1102BOLB   NC126425  21.150  23.270  13.240
 1102BOLB   PO126426  20.850  23.630  13.510
 1102BOLB   GL126427  21.090  23.840  13.600
 1102BOLB   GL226428  21.090  23.960  13.890
 1102BOLB   C1A26429  21.060  24.300  13.510
 1102BOLB   C2A26430  20.960  24.720  13.340
 1102BOLB   C3A26431  20.920  25.100  13.060
 1102BOLB   C4A26432  21.000  25.240  12.800
 1102BOLB   C1B26433  21.480  24.240  13.850
 1102BOLB   C2B26434  21.770  24.470  14.080
 1102BOLB   C3B26435  21.870  24.910  14.320
 1102BOLB   C4B26436  21.670  25.170  14.710
 1102BOLB   NC226437  22.400  27.250  11.830
 1102BOLB   PO226438  22.680  26.930  12.080
 1102BOLB   GL326439  22.470  26.730  12.250
 1102BOLB   GL426440  22.630  26.380  12.380
 1102BOLB   C1C26441  22.000  26.660  12.190
 1102BOLB   C2C26442  21.790  26.280  12.410
 1102BOLB   C3C26443  21.430  25.930  12.540
 1102BOLB   C4C26444  21.120  25.660  12.710
 1102BOLB   C1D26445  22.700  25.970  12.140
 1102BOLB   C2D26446  22.560  25.520  12.110
 1102BOLB   C3D26447  22.150  25.310  12.070
 1102BOLB   C4D26448  21.920  25.180  12.330
 1103BOLB   NC126449  28.770  22.120  10.020
 1103BOLB   PO126450  29.100  21.930   9.870
 1103BOLB   GL126451  28.720  21.560   9.970
 1103BOLB   GL226452  28.430  21.640   9.840
 1103BOLB   C1A26453  28.490  21.210  10.060
 1103BOLB   C2A26454  28.180  21.170   9.990
 1103BOLB   C3A26455  28.080  20.960  10.350
 1103BOLB   C4A26456  27.970  21.280  10.670
 1103BOLB   C1B26457  28.070  21.580   9.740
 1103BOLB   C2B26458  27.690  21.320   9.760
 1103BOLB   C3B26459  27.410  21.180  10.050
 1103BOLB   C4B26460  27.610  20.910  10.390
 1103BOLB   NC226461  27.930  23.320  10.530
 1103BOLB   PO226462  28.010  23.390  10.880
 1103BOLB   GL326463  28.050  23.050  10.990
 1103BOLB   GL426464  27.820  22.930  10.790
 1103BOLB   C1C26465  27.830  22.710  11.200
 1103BOLB   C2C26466  27.670  22.270  11.150
 1103BOLB   C3C26467  27.470  21.830  11.040
 1103BOLB   C4C26468  27.570  21.440  10.890
 1103BOLB   C1D26469  27.350  22.730  10.630
 1103BOLB   C2D26470  27.070  22.410  10.690
 1103BOLB   C3D26471  27.050  21.980  10.900
 1103BOLB   C4D26472  27.060  21.570  10.830
 1104BOLB   NC126473  15.160  19.220   9.310
 1104BOLB   PO126474  14.930  19.280   8.900
 1104BOLB   GL126475  14.760  19.170   8.360
 1104BOLB   GL226476  14.800  19.480   8.420
 1104BOLB   C1A26477  14.590  19.350   7.940
 1104BOLB   C2A26478  14.580  19.530   7.540
 1104BOLB   C3A26479  14.500  19.750   7.190
 1104BOLB   C4A26480  14.240  20.080   6.940
 1104BOLB   C1B26481  14.560  19.820   8.150
 1104BOLB   C2B26482  14.430  20.130   7.850
 1104BOLB   C3B26483  14.340  20.240   7.420
 1104BOLB   C4B26484  14.260  20.550   7.070
 1104BOLB   NC226485  12.890  21.290   5.300
 1104BOLB   PO226486  13.270  21.390   5.180
 1104BOLB   GL326487  13.470  21.190   5.480
 1104BOLB   GL426488  13.760  21.140   5.500
 1104BOLB   C1C26489  13.510  20.750   5.690
 1104BOLB   C2C26490  13.840  20.670   5.990
 1104BOLB   C3C26491  14.070  20.480   6.250
 1104BOLB   C4C26492  14.260  20.320   6.580
 1104BOLB   C1D26493  14.160  20.870   5.680
 1104BOLB   C2D26494  14.380  20.560   5.860
 1104BOLB   C3D26495  14.570  20.190   6.130
 1104BOLB   C4D26496  14.860  19.950   6.180
 1105BOLB   NC126497  21.980  21.820  16.480
 1105BOLB   PO126498  22.340  21.910  16.550
 1105BOLB   GL126499  22.640  22.230  16.600
 1105BOLB   GL226500  22.630  22.500  16.780
 1105BOLB   C1A26501  23.130  22.360  16.600
 1105BOLB   C2A26502  23.510  22.590  16.750
 1105BOLB   C3A26503  23.610  23.000  16.720
 1105BOLB   C4A26504  24.000  23.280  16.790
 1105BOLB   C1B26505  22.740  22.810  17.110
 1105BOLB   C2B26506  22.820  23.110  17.360
 1105BOLB   C3B26507  22.890  23.410  17.810
 1105BOLB   C4B26508  22.690  23.340  18.200
 1105BOLB   NC226509  24.720  24.620  18.750
 1105BOLB   PO226510  24.940  24.450  18.500
 1105BOLB   GL326511  24.950  24.110  18.100
 1105BOLB   GL426512  25.160  24.210  17.810
 1105BOLB   C1C26513  25.070  23.660  17.960
 1105BOLB   C2C26514  24.870  23.320  17.680
 1105BOLB   C3C26515  24.640  23.110  17.440
 1105BOLB   C4C26516  24.360  23.340  17.110
 1105BOLB   C1D26517  25.110  23.880  17.530
 1105BOLB   C2D26518  25.140  23.700  17.160
 1105BOLB   C3D26519  25.100  23.380  16.890
 1105BOLB   C4D26520  24.780  23.170  16.900
 1106BOLB   NC126521  26.850  16.040  10.420
 1106BOLB   PO126522  27.080  16.100  10.840
 1106BOLB   GL126523  27.370  15.950  10.500
 1106BOLB   GL226524  27.570  15.670  10.570
 1106BOLB   C1A26525  27.800  16.060  10.350
 1106BOLB   C2A26526  27.990  16.080   9.950
 1106BOLB   C3A26527  28.290  16.270   9.710
 1106BOLB   C4A26528  28.650  16.440   9.930
 1106BOLB   C1B26529  27.930  15.210  10.520
 1106BOLB   C2B26530  28.330  15.220  10.510
 1106BOLB   C3B26531  28.620  15.560  10.600
 1106BOLB   C4B26532  28.510  15.720  11.010
 1106BOLB   NC226533  31.070  18.500   9.900
 1106BOLB   PO226534  30.930  17.980   9.900
 1106BOLB   GL326535  30.430  17.880  10.140
 1106BOLB   GL426536  30.360  17.840  10.470
 1106BOLB   C1C26537  29.960  17.520  10.050
 1106BOLB   C2C26538  29.600  17.160  10.080
 1106BOLB   C3C26539  29.350  16.790  10.040
 1106BOLB   C4C26540  28.940  16.690   9.890
 1106BOLB   C1D26541  30.040  17.660  10.590
 1106BOLB   C2D26542  29.670  17.590  10.400
 1106BOLB   C3D26543  29.350  17.590  10.160
 1106BOLB   C4D26544  28.790  17.500  10.290
 1107BOLB   NC126545  19.800  20.950   8.540
 1107BOLB   PO126546  20.010  21.380   8.330
 1107BOLB   GL126547  20.230  21.790   8.370
 1107BOLB   GL226548  20.050  21.890   8.070
 1107BOLB   C1A26549  20.560  22.190   8.220
 1107BOLB   C2A26550  20.660  22.430   7.910
 1107BOLB   C3A26551  20.840  22.520   7.610
 1107BOLB   C4A26552  20.940  22.390   7.220
 1107BOLB   C1B26553  20.360  22.040   7.710
 1107BOLB   C2B26554  20.460  22.250   7.360
 1107BOLB   C3B26555  20.420  22.500   7.050
 1107BOLB   C4B26556  20.220  22.340   6.680
 1107BOLB   NC226557  21.320  24.040   5.530
 1107BOLB   PO226558  21.410  23.700   5.250
 1107BOLB   GL326559  21.530  23.360   5.610
 1107BOLB   GL426560  21.520  23.020   5.540
 1107BOLB   C1C26561  21.680  23.230   5.980
 1107BOLB   C2C26562  21.570  22.850   6.280
 1107BOLB   C3C26563  21.490  22.650   6.720
 1107BOLB   C4C26564  21.140  22.490   6.880
 1107BOLB   C1D26565  21.360  22.740   5.810
 1107BOLB   C2D26566  21.080  22.460   5.920
 1107BOLB   C3D26567  20.680  22.440   6.080
 1107BOLB   C4D26568  20.350  22.390   6.200
 1108BOLB   NC126569  19.990  19.450   7.630
 1108BOLB   PO126570  20.450  19.330   7.750
 1108BOLB   GL126571  20.410  19.470   7.290
 1108BOLB   GL226572  20.610  19.620   7.150
 1108BOLB   C1A26573  20.300  19.210   6.950
 1108BOLB   C2A26574  20.220  19.460   6.650
 1108BOLB   C3A26575  20.130  19.720   6.370
 1108BOLB   C4A26576  20.260  20.000   6.030
 1108BOLB   C1B26577  20.380  19.860   6.860
 1108BOLB   C2B26578  20.610  19.940   6.480
 1108BOLB   C3B26579  20.780  20.070   6.200
 1108BOLB   C4B26580  20.890  20.320   5.940
 1108BOLB   NC226581  20.910  20.830   4.010
 1108BOLB   PO226582  21.280  21.140   4.080
 1108BOLB   GL326583  21.150  20.870   4.490
 1108BOLB   GL426584  20.820  21.110   4.440
 1108BOLB   C1C26585  20.880  20.640   4.800
 1108BOLB   C2C26586  20.910  20.560   5.200
 1108BOLB   C3C26587  20.590  20.600   5.560
 1108BOLB   C4C26588  20.380  20.350   5.840
 1108BOLB   C1D26589  20.460  21.100   4.740
 1108BOLB   C2D26590  20.230  20.730   5.040
 1108BOLB   C3D26591  20.100  20.720   5.510
 1108BOLB   C4D26592  19.740  20.620   5.760
 1109BOLB   NC126593  19.000   9.040   8.620
 1109BOLB   PO126594  19.430   8.970   8.500
 1109BOLB   GL126595  19.250   8.770   8.240
 1109BOLB   GL226596  18.990   8.610   8.440
 1109BOLB   C1A26597  19.110   8.720   7.910
 1109BOLB   C2A26598  19.110   8.400   7.530
 1109BOLB   C3A26599  19.370   8.270   7.130
 1109BOLB   C4A26600  19.520   8.140   6.770
 1109BOLB   C1B26601  18.740   8.500   8.150
 1109BOLB   C2B26602  18.680   8.360   7.770
 1109BOLB   C3B26603  18.750   8.210   7.170
 1109BOLB   C4B26604  19.010   8.040   6.850
 1109BOLB   NC226605  19.470   8.130   4.280
 1109BOLB   PO226606  19.060   8.280   4.320
 1109BOLB   GL326607  19.030   8.320   4.780
 1109BOLB   GL426608  19.060   8.560   4.880
 1109BOLB   C1C26609  19.300   8.220   5.220
 1109BOLB   C2C26610  19.240   8.430   5.580
 1109BOLB   C3C26611  19.170   8.450   6.060
 1109BOLB   C4C26612  19.230   8.390   6.490
 1109BOLB   C1D26613  19.370   8.720   5.150
 1109BOLB   C2D26614  19.530   8.800   5.520
 1109BOLB   C3D26615  19.620   8.790   6.030
 1109BOLB   C4D26616  19.230   8.860   6.340
 1110BOLB   NC126617  23.500  19.150   8.130
 1110BOLB   PO126618  23.600  18.800   8.110
 1110BOLB   GL126619  23.790  19.010   7.710
 1110BOLB   GL226620  24.120  19.060   7.880
 1110BOLB   C1A26621  23.850  19.330   7.390
 1110BOLB   C2A26622  23.900  19.770   7.480
 1110BOLB   C3A26623  24.260  19.970   7.450
 1110BOLB   C4A26624  24.490  20.240   7.310
 1110BOLB   C1B26625  24.200  19.000   7.440
 1110BOLB   C2B26626  24.260  19.020   7.030
 1110BOLB   C3B26627  24.670  19.320   7.040
 1110BOLB   C4B26628  25.060  19.130   6.950
 1110BOLB   NC226629  25.710  21.220   5.820
 1110BOLB   PO226630  25.690  21.620   5.820
 1110BOLB   GL326631  25.780  21.400   6.280
 1110BOLB   GL426632  25.510  21.130   6.380
 1110BOLB   C1C26633  25.740  21.390   6.720
 1110BOLB   C2C26634  25.340  21.140   7.030
 1110BOLB   C3C26635  25.040  20.890   7.280
 1110BOLB   C4C26636  24.790  20.490   7.260
 1110BOLB   C1D26637  25.490  20.820   6.630
 1110BOLB   C2D26638  25.220  20.640   6.750
 1110BOLB   C3D26639  25.020  20.250   6.880
 1110BOLB   C4D26640  24.550  20.150   6.840
 1111BOLB   NC126641  16.370  13.740   7.640
 1111BOLB   PO126642  16.010  13.320   7.750
 1111BOLB   GL126643  16.090  13.350   7.360
 1111BOLB   GL226644  16.120  13.040   7.280
 1111BOLB   C1A26645  16.250  13.480   6.980
 1111BOLB   C2A26646  16.250  13.430   6.530
 1111BOLB   C3A26647  16.110  13.230   6.170
 1111BOLB   C4A26648  15.920  13.110   5.790
 1111BOLB   C1B26649  16.230  12.590   7.250
 1111BOLB   C2B26650  16.390  12.420   6.830
 1111BOLB   C3B26651  16.570  12.400   6.410
 1111BOLB   C4B26652  16.540  12.320   5.990
 1111BOLB   NC226653  14.460  12.330   4.220
 1111BOLB   PO226654  14.740  12.640   4.160
 1111BOLB   GL326655  14.940  12.550   4.470
 1111BOLB   GL426656  14.850  12.080   4.510
 1111BOLB   C1C26657  15.140  12.560   4.810
 1111BOLB   C2C26658  15.230  12.670   5.180
 1111BOLB   C3C26659  15.250  12.690   5.540
 1111BOLB   C4C26660  15.580  12.830   5.690
 1111BOLB   C1D26661  14.750  12.290   4.890
 1111BOLB   C2D26662  14.770  12.580   5.280
 1111BOLB   C3D26663  14.810  12.960   5.490
 1111BOLB   C4D26664  14.560  13.020   5.920
 1112BOLB   NC126665  20.170  20.190   7.790
 1112BOLB   PO126666  19.900  20.530   8.050
 1112BOLB   GL126667  19.970  20.720   7.710
 1112BOLB   GL226668  20.040  20.660   7.330
 1112BOLB   C1A26669  19.840  21.080   7.510
 1112BOLB   C2A26670  19.630  21.310   7.180
 1112BOLB   C3A26671  19.490  21.400   6.780
 1112BOLB   C4A26672  19.440  21.730   6.640
 1112BOLB   C1B26673  19.960  20.970   7.020
 1112BOLB   C2B26674  19.970  21.320   6.750
 1112BOLB   C3B26675  19.940  21.580   6.480
 1112BOLB   C4B26676  19.930  21.860   6.060
 1112BOLB   NC226677  19.210  22.680   3.910
 1112BOLB   PO226678  19.560  22.810   4.190
 1112BOLB   GL326679  19.610  22.560   4.650
 1112BOLB   GL426680  19.910  22.520   4.820
 1112BOLB   C1C26681  19.440  22.320   5.080
 1112BOLB   C2C26682  19.490  21.990   5.460
 1112BOLB   C3C26683  19.480  22.120   5.920
 1112BOLB   C4C26684  19.330  21.910   6.290
 1112BOLB   C1D26685  19.940  22.120   5.040
 1112BOLB   C2D26686  20.030  21.840   5.360
 1112BOLB   C3D26687  20.240  21.640   5.680
 1112BOLB   C4D26688  20.200  21.430   6.130
 1113BOLB   NC126689  25.250  14.850   8.340
 1113BOLB   PO126690  24.990  15.030   8.040
 1113BOLB   GL126691  24.850  15.000   7.610
 1113BOLB   GL226692  24.920  14.730   7.430
 1113BOLB   C1A26693  24.650  15.080   7.220
 1113BOLB   C2A26694  24.780  15.000   6.820
 1113BOLB   C3A26695  24.740  15.000   6.390
 1113BOLB   C4A26696  24.760  14.760   6.030
 1113BOLB   C1B26697  25.180  15.080   7.150
 1113BOLB   C2B26698  25.590  15.150   7.010
 1113BOLB   C3B26699  25.950  15.280   6.840
 1113BOLB   C4B26700  26.370  15.500   6.840
 1113BOLB   NC226701  26.130  15.200   4.440
 1113BOLB   PO226702  26.100  14.790   4.280
 1113BOLB   GL326703  25.820  14.740   4.600
 1113BOLB   GL426704  25.710  14.960   4.730
 1113BOLB   C1C26705  25.570  14.540   4.940
 1113BOLB   C2C26706  25.530  14.240   5.260
 1113BOLB   C3C26707  25.210  14.250   5.540
 1113BOLB   C4C26708  24.940  14.510   5.710
 1113BOLB   C1D26709  25.550  15.010   5.110
 1113BOLB   C2D26710  25.340  15.200   5.420
 1113BOLB   C3D26711  25.170  15.180   5.830
 1113BOLB   C4D26712  25.120  15.430   6.200
 1114BOLB   NC126713  17.980  14.660   7.530
 1114BOLB   PO126714  18.320  14.550   7.410
 1114BOLB   GL126715  18.400  14.380   6.970
 1114BOLB   GL226716  18.110  14.200   6.830
 1114BOLB   C1A26717  18.540  14.280   6.560
 1114BOLB   C2A26718  18.470  14.460   6.180
 1114BOLB   C3A26719  18.390  14.510   5.850
 1114BOLB   C4A26720  18.350  14.650   5.450
 1114BOLB   C1B26721  18.070  14.160   6.400
 1114BOLB   C2B26722  17.850  14.020   6.030
 1114BOLB   C3B26723  17.940  13.760   5.680
 1114BOLB   C4B26724  18.020  13.580   5.350
 1114BOLB   NC226725  18.450  13.410   3.260
 1114BOLB   PO226726  18.070  13.640   3.410
 1114BOLB   GL326727  18.000  13.360   3.870
 1114BOLB   GL426728  18.260  13.100   3.890
 1114BOLB   C1C26729  18.060  13.470   4.380
 1114BOLB   C2C26730  17.960  13.540   4.820
 1114BOLB   C3C26731  17.880  13.990   5.060
 1114BOLB   C4C26732  18.090  14.300   5.200
 1114BOLB   C1D26733  18.280  13.020   4.330
 1114BOLB   C2D26734  18.360  13.180   4.750
 1114BOLB   C3D26735  18.530  13.390   5.060
 1114BOLB   C4D26736  18.780  13.480   5.310
 1115BOLB   NC126737  20.150  22.120   9.650
 1115BOLB   PO126738  19.970  22.440   9.490
 1115BOLB   GL126739  20.180  22.790   9.220
 1115BOLB   GL226740  20.530  22.750   9.270
 1115BOLB   C1A26741  20.190  23.090   8.970
 1115BOLB   C2A26742  20.330  23.260   8.530
 1115BOLB   C3A26743  20.420  23.510   8.110
 1115BOLB   C4A26744  20.610  23.940   8.060
 1115BOLB   C1B26745  20.480  23.200   9.340
 1115BOLB   C2B26746  20.500  23.550   9.000
 1115BOLB   C3B26747  20.610  23.700   8.550
 1115BOLB   C4B26748  20.810  24.090   8.490
 1115BOLB   NC226749  20.110  25.780   6.760
 1115BOLB   PO226750  20.000  25.300   6.640
 1115BOLB   GL326751  19.960  25.360   7.050
 1115BOLB   GL426752  19.620  25.100   7.110
 1115BOLB   C1C26753  19.990  25.180   7.460
 1115BOLB   C2C26754  20.150  24.930   7.700
 1115BOLB   C3C26755  20.310  24.600   7.710
 1115BOLB   C4C26756  20.550  24.330   8.030
 1115BOLB   C1D26757  19.390  24.770   7.330
 1115BOLB   C2D26758  19.520  24.540   7.610
 1115BOLB   C3D26759  19.580  24.010   7.650
 1115BOLB   C4D26760  19.720  23.500   7.690
 1116BOLB   NC126761  20.460   5.430  12.350
 1116BOLB   PO126762  20.520   5.460  11.970
 1116BOLB   GL126763  20.410   5.180  11.820
 1116BOLB   GL226764  20.460   4.930  12.160
 1116BOLB   C1A26765  20.520   4.920  11.360
 1116BOLB   C2A26766  20.770   4.610  11.220
 1116BOLB   C3A26767  20.900   4.280  11.360
 1116BOLB   C4A26768  21.230   3.950  11.370
 1116BOLB   C1B26769  20.460   4.700  11.820
 1116BOLB   C2B26770  20.530   4.280  11.640
 1116BOLB   C3B26771  20.670   3.910  11.680
 1116BOLB   C4B26772  20.810   3.640  11.370
 1116BOLB   NC226773  22.440   1.900  11.100
 1116BOLB   PO226774  22.190   1.640  11.360
 1116BOLB   GL326775  22.170   2.040  11.620
 1116BOLB   GL426776  22.170   1.960  11.890
 1116BOLB   C1C26777  22.000   2.500  11.660
 1116BOLB   C2C26778  21.670   2.810  11.450
 1116BOLB   C3C26779  21.500   3.200  11.510
 1116BOLB   C4C26780  21.340   3.590  11.440
 1116BOLB   C1D26781  22.170   2.330  12.100
 1116BOLB   C2D26782  21.990   2.670  12.150
 1116BOLB   C3D26783  21.730   3.100  12.290
 1116BOLB   C4D26784  21.520   3.170  12.660
 1117BOLB   NC126785  15.020  22.980   5.070
 1117BOLB   PO126786  14.930  23.160   5.540
 1117BOLB   GL126787  15.060  22.900   5.900
 1117BOLB   GL226788  14.800  22.700   5.890
 1117BOLB   C1A26789  15.320  22.720   6.300
 1117BOLB   C2A26790  15.580  22.430   6.640
 1117BOLB   C3A26791  15.720  22.410   7.160
 1117BOLB   C4A26792  15.710  22.660   7.550
 1117BOLB   C1B26793  14.890  22.500   6.280
 1117BOLB   C2B26794  15.080  22.270   6.540
 1117BOLB   C3B26795  15.120  22.270   6.970
 1117BOLB   C4B26796  14.880  22.190   7.330
 1117BOLB   NC226797  14.520  24.820   7.060
 1117BOLB   PO226798  14.790  24.550   6.840
 1117BOLB   GL326799  15.160  24.370   7.020
 1117BOLB   GL426800  15.130  24.090   6.930
 1117BOLB   C1C26801  15.480  24.100   7.310
 1117BOLB   C2C26802  15.700  23.970   7.650
 1117BOLB   C3C26803  15.550  23.510   7.760
 1117BOLB   C4C26804  15.530  23.040   7.780
 1117BOLB   C1D26805  15.580  24.140   6.840
 1117BOLB   C2D26806  15.970  24.140   7.030
 1117BOLB   C3D26807  16.230  24.020   7.270
 1117BOLB   C4D26808  16.130  23.740   7.600
 1118BOLB   NC126809  23.090  20.500  17.790
 1118BOLB   PO126810  22.950  20.190  18.100
 1118BOLB   GL126811  23.360  20.310  18.430
 1118BOLB   GL226812  23.170  20.410  18.650
 1118BOLB   C1A26813  23.680  20.650  18.740
 1118BOLB   C2A26814  24.000  20.930  18.740
 1118BOLB   C3A26815  24.370  20.960  18.810
 1118BOLB   C4A26816  24.500  21.090  19.310
 1118BOLB   C1B26817  23.050  20.860  18.750
 1118BOLB   C2B26818  23.120  21.080  19.120
 1118BOLB   C3B26819  23.250  21.400  19.160
 1118BOLB   C4B26820  23.220  21.730  19.440
 1118BOLB   NC226821  26.020  22.060  20.860
 1118BOLB   PO226822  26.200  21.960  20.520
 1118BOLB   GL326823  25.820  21.760  20.470
 1118BOLB   GL426824  25.590  22.020  20.530
 1118BOLB   C1C26825  25.680  21.550  20.130
 1118BOLB   C2C26826  25.420  21.300  19.890
 1118BOLB   C3C26827  25.190  20.930  19.710
 1118BOLB   C4C26828  24.740  20.980  19.570
 1118BOLB   C1D26829  25.350  21.850  20.170
 1118BOLB   C2D26830  25.060  21.750  19.860
 1118BOLB   C3D26831  24.960  21.420  19.630
 1118BOLB   C4D26832  24.970  21.250  19.280
 1119BOLB   NC126833  16.830  17.840   7.330
 1119BOLB   PO126834  16.510  18.150   7.370
 1119BOLB   GL126835  16.330  18.330   7.110
 1119BOLB   GL226836  16.290  18.710   7.220
 1119BOLB   C1A26837  16.360  18.430   6.740
 1119BOLB   C2A26838  16.300  18.730   6.350
 1119BOLB   C3A26839  15.940  18.780   6.100
 1119BOLB   C4A26840  15.540  18.730   6.040
 1119BOLB   C1B26841  16.040  18.930   6.900
 1119BOLB   C2B26842  15.680  18.790   6.670
 1119BOLB   C3B26843  15.290  19.040   6.570
 1119BOLB   C4B26844  15.090  19.410   6.560
 1119BOLB   NC226845  14.830  19.580   4.310
 1119BOLB   PO226846  14.770  19.870   4.610
 1119BOLB   GL326847  14.610  19.750   5.010
 1119BOLB   GL426848  14.320  19.700   5.060
 1119BOLB   C1C26849  14.690  19.500   5.370
 1119BOLB   C2C26850  14.920  19.260   5.610
 1119BOLB   C3C26851  14.960  18.910   5.840
 1119BOLB   C4C26852  15.180  18.800   6.090
 1119BOLB   C1D26853  14.230  19.680   5.460
 1119BOLB   C2D26854  14.370  19.420   5.860
 1119BOLB   C3D26855  14.490  19.550   6.230
 1119BOLB   C4D26856  14.600  19.370   6.620
 1120BOLB   NC126857  18.690  11.660   8.620
 1120BOLB   PO126858  18.520  11.410   8.230
 1120BOLB   GL126859  18.270  11.270   7.840
 1120BOLB   GL226860  18.520  11.050   7.770
 1120BOLB   C1A26861  18.100  10.890   7.490
 1120BOLB   C2A26862  18.140  10.600   7.030
 1120BOLB   C3A26863  18.120  10.100   6.910
 1120BOLB   C4A26864  17.900   9.760   6.700
 1120BOLB   C1B26865  18.610  10.910   7.360
 1120BOLB   C2B26866  18.490  10.930   6.890
 1120BOLB   C3B26867  18.370  11.250   6.590
 1120BOLB   C4B26868  18.300  11.710   6.360
 1120BOLB   NC226869  18.290   9.190   4.290
 1120BOLB   PO226870  18.660   9.040   4.490
 1120BOLB   GL326871  18.470   9.290   4.820
 1120BOLB   GL426872  18.300   9.510   4.670
 1120BOLB   C1C26873  18.230   9.520   5.190
 1120BOLB   C2C26874  18.080   9.500   5.560
 1120BOLB   C3C26875  17.980   9.450   5.960
 1120BOLB   C4C26876  17.900   9.690   6.230
 1120BOLB   C1D26877  18.580   9.840   4.750
 1120BOLB   C2D26878  18.700  10.150   5.020
 1120BOLB   C3D26879  18.830  10.260   5.470
 1120BOLB   C4D26880  18.610  10.240   5.890
 1121BOLB   NC126881  18.890   5.440  17.510
 1121BOLB   PO126882  19.140   5.790  17.400
 1121BOLB   GL126883  19.310   5.350  17.740
 1121BOLB   GL226884  19.150   5.120  17.870
 1121BOLB   C1A26885  19.680   5.150  18.020
 1121BOLB   C2A26886  19.820   4.870  18.290
 1121BOLB   C3A26887  19.900   4.690  18.640
 1121BOLB   C4A26888  20.120   4.370  18.840
 1121BOLB   C1B26889  19.340   4.780  18.070
 1121BOLB   C2B26890  19.440   4.410  17.970
 1121BOLB   C3B26891  19.350   3.970  18.010
 1121BOLB   C4B26892  19.290   3.540  18.010
 1121BOLB   NC226893  20.000   2.580  20.320
 1121BOLB   PO226894  19.980   2.190  20.050
 1121BOLB   GL326895  20.040   2.630  19.750
 1121BOLB   GL426896  20.360   2.610  19.660
 1121BOLB   C1C26897  20.160   3.080  19.750
 1121BOLB   C2C26898  20.400   3.410  19.580
 1121BOLB   C3C26899  20.360   3.750  19.340
 1121BOLB   C4C26900  20.310   4.060  18.930
 1121BOLB   C1D26901  20.510   2.870  19.360
 1121BOLB   C2D26902  20.520   3.250  19.170
 1121BOLB   C3D26903  20.510   3.500  18.810
 1121BOLB   C4D26904  20.660   3.500  18.380
 1122BOLB   NC126905  11.440  11.930  12.800
 1122BOLB   PO126906  11.060  11.710  12.660
 1122BOLB   GL126907  10.580  11.530  12.650
 1122BOLB   GL226908  10.500  11.180  12.520
 1122BOLB   C1A26909  10.070  11.490  12.640
 1122BOLB   C2A26910   9.750  11.250  12.510
 1122BOLB   C3A26911   9.440  11.030  12.320
 1122BOLB   C4A26912   9.320  10.640  12.050
 1122BOLB   C1B26913  10.270  11.020  12.380
 1122BOLB   C2B26914   9.950  10.790  12.370
 1122BOLB   C3B26915   9.780  10.400  12.110
 1122BOLB   C4B26916   9.820   9.880  12.050
 1122BOLB   NC226917   7.420  10.340  10.720
 1122BOLB   PO226918   7.240  10.280  11.240
 1122BOLB   GL326919   7.620  10.300  11.640
 1122BOLB   GL426920   7.670  10.540  11.900
 1122BOLB   C1C26921   8.000  10.210  11.480
 1122BOLB   C2C26922   8.370  10.380  11.540
 1122BOLB   C3C26923   8.760  10.610  11.590
 1122BOLB   C4C26924   9.080  10.500  11.760
 1122BOLB   C1D26925   7.920  10.670  12.330
 1122BOLB   C2D26926   8.150  11.040  12.420
 1122BOLB   C3D26927   8.560  11.280  12.350
 1122BOLB   C4D26928   8.780  11.530  12.060
 1123BOLB   NC126929  22.830   5.720  13.700
 1123BOLB   PO126930  22.820   5.510  14.110
 1123BOLB   GL126931  22.870   5.100  13.940
 1123BOLB   GL226932  23.170   5.070  13.770
 1123BOLB   C1A26933  23.030   4.570  14.110
 1123BOLB   C2A26934  22.860   4.220  14.140
 1123BOLB   C3A26935  23.000   3.770  14.150
 1123BOLB   C4A26936  23.170   3.330  14.270
 1123BOLB   C1B26937  23.320   4.700  13.700
 1123BOLB   C2B26938  23.620   4.450  13.560
 1123BOLB   C3B26939  23.910   4.070  13.490
 1123BOLB   C4B26940  24.110   3.660  13.490
 1123BOLB   NC226941  22.330   1.040  12.850
 1123BOLB   PO226942  22.720   1.300  12.880
 1123BOLB   GL326943  22.750   1.610  13.040
 1123BOLB   GL426944  22.580   1.790  12.850
 1123BOLB   C1C26945  22.850   1.870  13.400
 1123BOLB   C2C26946  22.910   2.230  13.530
 1123BOLB   C3C26947  22.980   2.690  13.680
 1123BOLB   C4C26948  23.130   3.090  13.940
 1123BOLB   C1D26949  22.510   2.160  13.130
 1123BOLB   C2D26950  22.470   2.560  12.980
 1123BOLB   C3D26951  22.610   3.000  13.010
 1123BOLB   C4D26952  22.910   3.400  12.910
 1124BOLB   NC126953  20.320   9.770   8.950
 1124BOLB   PO126954  19.950   9.840   8.580
 1124BOLB   GL126955  20.010   9.700   8.090
 1124BOLB   GL226956  19.930   9.410   8.000
 1124BOLB   C1A26957  20.310   9.520   7.580
 1124BOLB   C2A26958  20.410   9.120   7.410
 1124BOLB   C3A26959  20.600   8.800   7.280
 1124BOLB   C4A26960  20.770   8.460   7.060
 1124BOLB   C1B26961  19.950   9.180   7.620
 1124BOLB   C2B26962  19.930   9.000   7.350
 1124BOLB   C3B26963  20.080   8.830   6.990
 1124BOLB   C4B26964  20.060   9.030   6.670
 1124BOLB   NC226965  20.350   7.070   5.310
 1124BOLB   PO226966  20.410   7.360   4.980
 1124BOLB   GL326967  20.340   7.790   5.290
 1124BOLB   GL426968  20.520   7.640   5.490
 1124BOLB   C1C26969  20.130   7.910   5.640
 1124BOLB   C2C26970  20.270   8.110   6.070
 1124BOLB   C3C26971  20.540   8.060   6.430
 1124BOLB   C4C26972  20.860   8.150   6.810
 1124BOLB   C1D26973  20.670   8.040   5.680
 1124BOLB   C2D26974  20.730   8.320   6.010
 1124BOLB   C3D26975  20.610   8.550   6.280
 1124BOLB   C4D26976  20.670   8.740   6.660
 1125BOLB   NC126977  18.950  15.290   7.850
 1125BOLB   PO126978  18.890  15.270   7.380
 1125BOLB   GL126979  18.790  15.370   6.930
 1125BOLB   GL226980  18.490  15.290   6.760
 1125BOLB   C1A26981  18.950  15.150   6.460
 1125BOLB   C2A26982  19.140  15.210   6.000
 1125BOLB   C3A26983  19.250  15.180   5.510
 1125BOLB   C4A26984  19.220  15.110   5.150
 1125BOLB   C1B26985  18.590  15.490   6.480
 1125BOLB   C2B26986  18.700  15.430   6.110
 1125BOLB   C3B26987  18.710  15.370   5.720
 1125BOLB   C4B26988  18.580  15.370   5.330
 1125BOLB   NC226989  19.690  15.140   2.930
 1125BOLB   PO226990  19.120  15.050   2.990
 1125BOLB   GL326991  19.240  15.100   3.400
 1125BOLB   GL426992  19.510  15.410   3.420
 1125BOLB   C1C26993  19.090  15.420   3.660
 1125BOLB   C2C26994  19.110  15.500   4.000
 1125BOLB   C3C26995  19.330  15.440   4.430
 1125BOLB   C4C26996  19.400  15.190   4.760
 1125BOLB   C1D26997  19.530  15.290   3.840
 1125BOLB   C2D26998  19.640  15.100   4.190
 1125BOLB   C3D26999  19.880  15.220   4.650
 1125BOLB   C4D27000  20.160  15.440   4.900
 1126BOLB   NC127001  18.450  20.240   8.270
 1126BOLB   PO127002  18.040  20.530   8.120
 1126BOLB   GL127003  17.790  20.570   7.850
 1126BOLB   GL227004  17.650  20.790   7.750
 1126BOLB   C1A27005  17.970  20.540   7.460
 1126BOLB   C2A27006  17.780  20.610   7.080
 1126BOLB   C3A27007  17.560  20.690   6.770
 1126BOLB   C4A27008  17.430  20.720   6.310
 1126BOLB   C1B27009  17.840  21.050   7.380
 1126BOLB   C2B27010  17.980  21.170   6.910
 1126BOLB   C3B27011  18.140  21.200   6.530
 1126BOLB   C4B27012  18.220  21.220   6.090
 1126BOLB   NC227013  16.900  22.360   4.370
 1126BOLB   PO227014  16.680  22.170   4.770
 1126BOLB   GL327015  16.730  22.010   5.130
 1126BOLB   GL427016  16.910  21.740   5.080
 1126BOLB   C1C27017  16.700  22.030   5.590
 1126BOLB   C2C27018  16.880  21.890   5.960
 1126BOLB   C3C27019  17.150  21.490   6.040
 1126BOLB   C4C27020  17.240  21.120   6.180
 1126BOLB   C1D27021  16.750  21.540   5.470
 1126BOLB   C2D27022  16.700  21.440   5.930
 1126BOLB   C3D27023  16.800  21.380   6.350
 1126BOLB   C4D27024  17.150  21.420   6.580
 1127BOLB   NC127025  17.610   5.200  16.680
 1127BOLB   PO127026  17.980   4.910  16.760
 1127BOLB   GL127027  17.790   4.800  17.090
 1127BOLB   GL227028  17.580   4.950  17.120
 1127BOLB   C1A27029  17.590   4.400  17.140
 1127BOLB   C2A27030  17.340   4.040  17.240
 1127BOLB   C3A27031  17.430   3.640  16.940
 1127BOLB   C4A27032  17.640   3.300  16.760
 1127BOLB   C1B27033  17.220   4.800  17.450
 1127BOLB   C2B27034  17.050   4.360  17.630
 1127BOLB   C3B27035  16.870   3.980  17.460
 1127BOLB   C4B27036  17.030   3.600  17.310
 1127BOLB   NC227037  17.420   1.360  17.030
 1127BOLB   PO227038  17.000   1.100  17.100
 1127BOLB   GL327039  16.950   1.400  16.730
 1127BOLB   GL427040  17.210   1.360  16.450
 1127BOLB   C1C27041  16.950   1.780  16.660
 1127BOLB   C2C27042  17.330   2.050  16.710
 1127BOLB   C3C27043  17.430   2.480  16.730
 1127BOLB   C4C27044  17.500   2.860  16.800
 1127BOLB   C1D27045  17.350   1.700  16.350
 1127BOLB   C2D27046  17.400   1.940  16.020
 1127BOLB   C3D27047  17.440   2.320  15.790
 1127BOLB   C4D27048  17.540   2.730  15.820
 1128BOLB   NC127049  23.460  10.650   8.300
 1128BOLB   PO127050  23.850  10.230   8.350
 1128BOLB   GL127051  24.250  10.210   8.170
 1128BOLB   GL227052  24.390   9.990   8.300
 1128BOLB   C1A27053  24.380  10.330   7.680
 1128BOLB   C2A27054  24.870  10.260   7.500
 1128BOLB   C3A27055  25.120   9.950   7.360
 1128BOLB   C4A27056  25.070   9.480   7.120
 1128BOLB   C1B27057  24.380   9.800   7.930
 1128BOLB   C2B27058  24.470   9.850   7.440
 1128BOLB   C3B27059  24.650   9.910   7.080
 1128BOLB   C4B27060  24.660   9.710   6.730
 1128BOLB   NC227061  24.470   9.520   4.800
 1128BOLB   PO227062  24.710   9.280   4.570
 1128BOLB   GL327063  24.820   9.270   5.060
 1128BOLB   GL427064  24.780   8.900   5.050
 1128BOLB   C1C27065  24.830   9.220   5.470
 1128BOLB   C2C27066  24.760   9.060   5.920
 1128BOLB   C3C27067  24.950   9.150   6.350
 1128BOLB   C4C27068  24.840   9.240   6.790
 1128BOLB   C1D27069  24.460   8.880   5.430
 1128BOLB   C2D27070  24.170   8.870   5.730
 1128BOLB   C3D27071  23.890   8.830   6.070
 1128BOLB   C4D27072  23.510   8.750   6.280
 1129BOLB   NC127073  23.270  21.700  15.750
 1129BOLB   PO127074  22.910  21.610  15.970
 1129BOLB   GL127075  23.120  21.940  16.290
 1129BOLB   GL227076  23.440  21.970  16.280
 1129BOLB   C1A27077  23.400  22.410  16.170
 1129BOLB   C2A27078  23.560  22.710  16.290
 1129BOLB   C3A27079  23.830  23.060  16.190
 1129BOLB   C4A27080  24.190  23.330  16.280
 1129BOLB   C1B27081  23.660  22.170  16.520
 1129BOLB   C2B27082  23.970  22.350  16.660
 1129BOLB   C3B27083  24.050  22.810  16.610
 1129BOLB   C4B27084  24.460  22.870  16.700
 1129BOLB   NC227085  26.030  25.280  17.130
 1129BOLB   PO227086  25.810  24.900  17.270
 1129BOLB   GL327087  25.550  24.550  17.340
 1129BOLB   GL427088  25.770  24.340  17.170
 1129BOLB   C1C27089  25.200  24.280  17.210
 1129BOLB   C2C27090  24.950  24.140  16.990
 1129BOLB   C3C27091  24.760  23.720  16.780
 1129BOLB   C4C27092  24.440  23.520  16.650
 1129BOLB   C1D27093  25.530  24.140  16.900
 1129BOLB   C2D27094  25.450  23.900  16.530
 1129BOLB   C3D27095  25.060  23.520  16.430
 1129BOLB   C4D27096  24.630  23.180  16.370
 1130BOLB   NC127097  17.980   6.540  10.870
 1130BOLB   PO127098  17.970   6.340  11.260
 1130BOLB   GL127099  18.050   5.910  11.070
 1130BOLB   GL227100  18.100   5.930  10.760
 1130BOLB   C1A27101  17.950   5.470  11.090
 1130BOLB   C2A27102  18.000   5.080  10.960
 1130BOLB   C3A27103  17.910   4.730  10.620
 1130BOLB   C4A27104  17.800   4.340  10.610
 1130BOLB   C1B27105  18.100   5.440  10.550
 1130BOLB   C2B27106  18.200   5.500  10.180
 1130BOLB   C3B27107  18.240   5.590   9.750
 1130BOLB   C4B27108  18.130   5.850   9.290
 1130BOLB   NC227109  17.440   2.360  10.090
 1130BOLB   PO227110  16.980   2.300   9.920
 1130BOLB   GL327111  16.910   2.640  10.100
 1130BOLB   GL427112  16.810   2.760  10.470
 1130BOLB   C1C27113  17.250   2.970  10.140
 1130BOLB   C2C27114  17.260   3.380  10.050
 1130BOLB   C3C27115  17.320   3.840  10.200
 1130BOLB   C4C27116  17.470   4.060  10.530
 1130BOLB   C1D27117  16.810   2.920  10.910
 1130BOLB   C2D27118  17.000   3.170  11.130
 1130BOLB   C3D27119  17.050   3.320  11.530
 1130BOLB   C4D27120  17.240   3.340  11.950
 1131BOLB   NC127121  21.580  21.920   9.360
 1131BOLB   PO127122  21.300  21.930   9.070
 1131BOLB   GL127123  21.320  22.350   9.010
 1131BOLB   GL227124  21.610  22.480   9.130
 1131BOLB   C1A27125  21.350  22.550   8.590
 1131BOLB   C2A27126  21.420  22.900   8.320
 1131BOLB   C3A27127  21.470  23.370   8.210
 1131BOLB   C4A27128  21.690  23.770   8.080
 1131BOLB   C1B27129  21.800  22.780   8.770
 1131BOLB   C2B27130  21.870  23.270   8.760
 1131BOLB   C3B27131  22.040  23.690   8.730
 1131BOLB   C4B27132  22.120  23.960   8.370
 1131BOLB   NC227133  22.570  25.190   7.020
 1131BOLB   PO227134  22.330  25.620   7.130
 1131BOLB   GL327135  22.050  25.380   7.510
 1131BOLB   GL427136  21.830  25.240   7.540
 1131BOLB   C1C27137  22.180  25.230   7.940
 1131BOLB   C2C27138  21.850  24.990   8.170
 1131BOLB   C3C27139  21.630  24.660   8.350
 1131BOLB   C4C27140  21.660  24.230   8.200
 1131BOLB   C1D27141  21.660  24.850   7.730
 1131BOLB   C2D27142  21.410  24.610   7.910
 1131BOLB   C3D27143  21.110  24.410   8.160
 1131BOLB   C4D27144  21.190  23.920   8.260
 1132BOLB   NC127145  32.490   9.810  12.170
 1132BOLB   PO127146  32.240   9.500  11.910
 1132BOLB   GL127147  31.960   9.770  11.980
 1132BOLB   GL227148  31.930  10.100  11.680
 1132BOLB   C1A27149  31.530   9.880  11.880
 1132BOLB   C2A27150  31.220  10.120  12.060
 1132BOLB   C3A27151  30.910  10.040  12.240
 1132BOLB   C4A27152  30.810  10.040  12.600
 1132BOLB   C1B27153  31.650  10.270  11.510
 1132BOLB   C2B27154  31.250  10.460  11.580
 1132BOLB   C3B27155  30.970  10.570  11.920
 1132BOLB   C4B27156  30.820  10.870  12.260
 1132BOLB   NC227157  32.740  11.060  14.260
 1132BOLB   PO227158  32.610  11.380  13.930
 1132BOLB   GL327159  32.160  11.210  13.670
 1132BOLB   GL427160  32.070  11.420  13.850
 1132BOLB   C1C27161  31.710  11.090  13.570
 1132BOLB   C2C27162  31.340  10.710  13.480
 1132BOLB   C3C27163  31.080  10.440  13.220
 1132BOLB   C4C27164  30.850  10.220  12.970
 1132BOLB   C1D27165  31.740  11.710  14.060
 1132BOLB   C2D27166  31.390  12.030  14.030
 1132BOLB   C3D27167  31.190  12.110  13.710
 1132BOLB   C4D27168  31.210  12.270  13.340
 1133BOLB   NC127169  21.820   5.180  14.230
 1133BOLB   PO127170  21.390   5.170  14.480
 1133BOLB   GL127171  21.310   4.790  14.480
 1133BOLB   GL227172  21.400   4.640  14.750
 1133BOLB   C1A27173  21.320   4.410  14.340
 1133BOLB   C2A27174  21.390   4.060  14.440
 1133BOLB   C3A27175  21.530   3.720  14.390
 1133BOLB   C4A27176  21.870   3.370  14.420
 1133BOLB   C1B27177  21.510   4.210  14.900
 1133BOLB   C2B27178  21.680   3.740  14.890
 1133BOLB   C3B27179  21.940   3.370  14.990
 1133BOLB   C4B27180  22.020   2.970  14.880
 1133BOLB   NC227181  23.430   1.390  14.060
 1133BOLB   PO227182  22.850   1.390  14.160
 1133BOLB   GL327183  22.550   1.760  14.290
 1133BOLB   GL427184  22.580   1.750  14.700
 1133BOLB   C1C27185  22.310   2.080  14.150
 1133BOLB   C2C27186  22.180   2.440  14.160
 1133BOLB   C3C27187  22.220   2.770  14.440
 1133BOLB   C4C27188  22.180   3.180  14.480
 1133BOLB   C1D27189  22.720   1.990  14.900
 1133BOLB   C2D27190  22.920   2.380  15.090
 1133BOLB   C3D27191  23.050   2.760  15.190
 1133BOLB   C4D27192  23.140   3.170  15.260
 1134BOLB   NC127193  17.060   5.540  16.260
 1134BOLB   PO127194  17.270   5.180  16.100
 1134BOLB   GL127195  17.270   4.890  16.430
 1134BOLB   GL227196  17.050   4.700  16.380
 1134BOLB   C1A27197  17.380   4.450  16.650
 1134BOLB   C2A27198  17.310   3.960  16.610
 1134BOLB   C3A27199  17.430   3.610  16.390
 1134BOLB   C4A27200  17.440   3.270  16.170
 1134BOLB   C1B27201  17.070   4.300  16.310
 1134BOLB   C2B27202  16.880   3.850  16.260
 1134BOLB   C3B27203  16.980   3.550  15.970
 1134BOLB   C4B27204  16.730   3.360  15.790
 1134BOLB   NC227205  16.570   1.160  16.860
 1134BOLB   PO227206  16.420   1.030  16.450
 1134BOLB   GL327207  16.650   1.400  16.330
 1134BOLB   GL427208  16.600   1.260  16.070
 1134BOLB   C1C27209  16.890   1.790  16.190
 1134BOLB   C2C27210  17.020   2.100  16.330
 1134BOLB   C3C27211  17.290   2.480  16.250
 1134BOLB   C4C27212  17.390   2.920  16.270
 1134BOLB   C1D27213  16.620   1.730  15.720
 1134BOLB   C2D27214  16.730   2.240  15.940
 1134BOLB   C3D27215  16.750   2.610  16.120
 1134BOLB   C4D27216  16.580   2.890  15.770
 1135BOLB   NC127217  15.750   5.160  14.170
 1135BOLB   PO127218  15.860   5.270  13.760
 1135BOLB   GL127219  15.670   4.880  13.760
 1135BOLB   GL227220  15.540   4.760  13.930
 1135BOLB   C1A27221  15.850   4.480  13.580
 1135BOLB   C2A27222  15.880   4.130  13.360
 1135BOLB   C3A27223  16.020   3.780  13.150
 1135BOLB   C4A27224  15.780   3.500  13.230
 1135BOLB   C1B27225  15.510   4.300  13.910
 1135BOLB   C2B27226  15.700   4.010  13.860
 1135BOLB   C3B27227  15.880   3.690  13.720
 1135BOLB   C4B27228  16.010   3.200  13.600
 1135BOLB   NC227229  14.780   1.840  13.300
 1135BOLB   PO227230  14.550   2.070  13.570
 1135BOLB   GL327231  14.700   2.380  13.400
 1135BOLB   GL427232  14.330   2.320  13.160
 1135BOLB   C1C27233  15.090   2.610  13.400
 1135BOLB   C2C27234  15.120   3.030  13.370
 1135BOLB   C3C27235  15.100   3.440  13.470
 1135BOLB   C4C27236  15.490   3.600  13.410
 1135BOLB   C1D27237  14.460   2.690  13.090
 1135BOLB   C2D27238  14.790   2.820  12.940
 1135BOLB   C3D27239  15.060   3.050  12.810
 1135BOLB   C4D27240  15.190   3.290  12.370
 1136BOLB   NC127241  17.120  23.260  10.580
 1136BOLB   PO127242  17.370  23.190  10.350
 1136BOLB   GL127243  17.230  23.510  10.120
 1136BOLB   GL227244  17.120  23.850  10.310
 1136BOLB   C1A27245  17.320  23.830   9.860
 1136BOLB   C2A27246  17.250  24.110   9.600
 1136BOLB   C3A27247  17.430  24.570   9.570
 1136BOLB   C4A27248  17.380  25.020   9.550
 1136BOLB   C1B27249  17.240  24.300  10.220
 1136BOLB   C2B27250  17.570  24.620  10.310
 1136BOLB   C3B27251  17.800  24.980  10.220
 1136BOLB   C4B27252  17.890  25.400  10.250
 1136BOLB   NC227253  17.270  26.000   7.360
 1136BOLB   PO227254  17.410  26.350   7.550
 1136BOLB   GL327255  17.570  25.940   7.720
 1136BOLB   GL427256  17.790  25.830   7.500
 1136BOLB   C1C27257  17.710  25.730   8.140
 1136BOLB   C2C27258  17.750  25.470   8.450
 1136BOLB   C3C27259  17.540  25.260   8.780
 1136BOLB   C4C27260  17.580  25.260   9.250
 1136BOLB   C1D27261  17.990  25.550   7.810
 1136BOLB   C2D27262  18.140  25.140   7.670
 1136BOLB   C3D27263  18.500  24.980   7.660
 1136BOLB   C4D27264  18.630  24.630   7.800
 1137BOLB   NC127265  25.370   7.310  11.980
 1137BOLB   PO127266  25.160   7.010  12.220
 1137BOLB   GL127267  25.430   6.730  12.040
 1137BOLB   GL227268  25.650   6.920  12.020
 1137BOLB   C1A27269  25.630   6.350  11.860
 1137BOLB   C2A27270  25.940   6.210  11.710
 1137BOLB   C3A27271  26.070   6.160  11.290
 1137BOLB   C4A27272  26.210   6.480  10.870
 1137BOLB   C1B27273  26.110   6.690  11.770
 1137BOLB   C2B27274  26.430   6.360  11.650
 1137BOLB   C3B27275  26.500   5.950  11.410
 1137BOLB   C4B27276  26.250   5.730  10.990
 1137BOLB   NC227277  28.470   5.300   9.460
 1137BOLB   PO227278  28.070   5.430   9.600
 1137BOLB   GL327279  27.890   5.810   9.660
 1137BOLB   GL427280  27.520   5.870   9.420
 1137BOLB   C1C27281  27.460   6.080   9.900
 1137BOLB   C2C27282  27.130   6.280  10.030
 1137BOLB   C3C27283  26.760   6.410  10.180
 1137BOLB   C4C27284  26.430   6.510  10.420
 1137BOLB   C1D27285  27.580   6.270   9.170
 1137BOLB   C2D27286  27.740   6.740   9.200
 1137BOLB   C3D27287  27.940   7.190   9.220
 1137BOLB   C4D27288  27.930   7.580   8.930
 1138BOLB   NC127289  10.700  18.060  15.040
 1138BOLB   PO127290  10.890  18.370  15.360
 1138BOLB   GL127291  10.700  18.690  15.570
 1138BOLB   GL227292  10.710  18.750  15.870
 1138BOLB   C1A27293  10.440  18.980  15.430
 1138BOLB   C2A27294   9.960  19.220  15.360
 1138BOLB   C3A27295   9.610  19.500  15.260
 1138BOLB   C4A27296   9.240  19.450  15.010
 1138BOLB   C1B27297  10.330  18.900  15.950
 1138BOLB   C2B27298  10.020  19.210  15.900
 1138BOLB   C3B27299  10.010  19.550  15.710
 1138BOLB   C4B27300  10.000  19.930  15.940
 1138BOLB   NC227301   6.890  19.960  14.470
 1138BOLB   PO227302   7.190  20.170  14.290
 1138BOLB   GL327303   7.540  19.920  14.340
 1138BOLB   GL427304   7.790  19.820  14.080
 1138BOLB   C1C27305   7.760  19.700  14.610
 1138BOLB   C2C27306   7.980  19.400  14.850
 1138BOLB   C3C27307   8.430  19.320  14.850
 1138BOLB   C4C27308   8.870  19.340  14.740
 1138BOLB   C1D27309   8.200  19.790  14.270
 1138BOLB   C2D27310   8.570  19.600  14.430
 1138BOLB   C3D27311   9.020  19.720  14.330
 1138BOLB   C4D27312   9.420  19.820  14.430
 1139BOLB   NC127313  20.620   5.900  11.400
 1139BOLB   PO127314  20.840   5.830  11.800
 1139BOLB   GL127315  20.820   5.410  11.430
 1139BOLB   GL227316  20.540   5.410  11.260
 1139BOLB   C1A27317  20.960   5.190  11.160
 1139BOLB   C2A27318  21.040   4.900  10.830
 1139BOLB   C3A27319  21.150   4.610  10.470
 1139BOLB   C4A27320  21.100   4.120  10.470
 1139BOLB   C1B27321  20.540   5.250  10.870
 1139BOLB   C2B27322  20.600   4.890  10.620
 1139BOLB   C3B27323  20.550   4.590  10.330
 1139BOLB   C4B27324  20.700   4.230  10.190
 1139BOLB   NC227325  21.040   1.970   9.050
 1139BOLB   PO227326  21.150   2.270   8.720
 1139BOLB   GL327327  21.240   2.450   9.170
 1139BOLB   GL427328  21.060   2.260   9.450
 1139BOLB   C1C27329  21.030   2.810   9.370
 1139BOLB   C2C27330  20.990   3.110   9.590
 1139BOLB   C3C27331  21.020   3.430   9.800
 1139BOLB   C4C27332  21.040   3.680  10.200
 1139BOLB   C1D27333  20.970   2.600   9.820
 1139BOLB   C2D27334  21.230   2.890   9.960
 1139BOLB   C3D27335  21.480   3.260   9.940
 1139BOLB   C4D27336  21.820   3.410  10.150
 1140BOLB   NC127337  12.340  15.230   8.950
 1140BOLB   PO127338  12.340  14.810   9.300
 1140BOLB   GL127339  12.070  14.700   9.000
 1140BOLB   GL227340  12.200  14.810   8.700
 1140BOLB   C1A27341  11.770  14.570   8.640
 1140BOLB   C2A27342  11.520  14.330   8.460
 1140BOLB   C3A27343  11.140  14.360   8.180
 1140BOLB   C4A27344  10.880  14.400   7.830
 1140BOLB   C1B27345  11.920  14.970   8.370
 1140BOLB   C2B27346  11.930  14.980   7.890
 1140BOLB   C3B27347  12.190  15.080   7.570
 1140BOLB   C4B27348  12.270  15.150   7.180
 1140BOLB   NC227349  10.030  14.180   6.280
 1140BOLB   PO227350  10.190  13.770   6.150
 1140BOLB   GL327351  10.570  13.810   6.360
 1140BOLB   GL427352  10.870  13.770   6.310
 1140BOLB   C1C27353  10.680  13.580   6.740
 1140BOLB   C2C27354  10.400  13.610   7.140
 1140BOLB   C3C27355  10.470  13.820   7.510
 1140BOLB   C4C27356  10.520  14.200   7.630
 1140BOLB   C1D27357  11.140  13.830   6.690
 1140BOLB   C2D27358  11.540  13.860   7.030
 1140BOLB   C3D27359  11.470  13.760   7.470
 1140BOLB   C4D27360  11.280  13.920   7.760
 1141BOLB   NC127361  24.940  12.940   8.230
 1141BOLB   PO127362  25.240  12.870   8.570
 1141BOLB   GL127363  25.420  13.030   8.160
 1141BOLB   GL227364  25.590  12.710   8.150
 1141BOLB   C1A27365  25.720  13.120   7.760
 1141BOLB   C2A27366  25.930  12.850   7.500
 1141BOLB   C3A27367  26.000  12.630   7.110
 1141BOLB   C4A27368  26.000  12.410   6.700
 1141BOLB   C1B27369  25.970  12.760   8.000
 1141BOLB   C2B27370  26.270  12.580   7.720
 1141BOLB   C3B27371  26.640  12.370   7.510
 1141BOLB   C4B27372  27.100  12.200   7.500
 1141BOLB   NC227373  27.580  12.150   5.010
 1141BOLB   PO227374  27.900  11.830   5.240
 1141BOLB   GL327375  27.510  11.910   5.450
 1141BOLB   GL427376  27.640  12.150   5.610
 1141BOLB   C1C27377  27.210  11.970   5.740
 1141BOLB   C2C27378  27.060  12.010   6.240
 1141BOLB   C3C27379  26.790  12.070   6.490
 1141BOLB   C4C27380  26.310  12.220   6.520
 1141BOLB   C1D27381  27.460  12.410   5.790
 1141BOLB   C2D27382  27.190  12.720   5.970
 1141BOLB   C3D27383  26.940  12.450   6.040
 1141BOLB   C4D27384  26.500  12.590   6.120
 1142BOLB   NC127385  22.020   5.130  15.170
 1142BOLB   PO127386  21.610   4.930  15.280
 1142BOLB   GL127387  21.840   4.620  15.100
 1142BOLB   GL227388  21.900   4.430  14.860
 1142BOLB   C1A27389  22.030   4.320  15.370
 1142BOLB   C2A27390  22.100   3.850  15.660
 1142BOLB   C3A27391  22.220   3.510  15.670
 1142BOLB   C4A27392  22.100   3.150  15.940
 1142BOLB   C1B27393  21.820   4.200  14.480
 1142BOLB   C2B27394  21.850   3.960  14.160
 1142BOLB   C3B27395  21.940   3.490  13.950
 1142BOLB   C4B27396  22.300   3.290  13.690
 1142BOLB   NC227397  23.620   1.540  16.510
 1142BOLB   PO227398  23.460   1.860  16.830
 1142BOLB   GL327399  23.280   2.170  17.170
 1142BOLB   GL427400  23.400   2.470  17.250
 1142BOLB   C1C27401  22.840   2.280  17.210
 1142BOLB   C2C27402  22.540   2.430  16.870
 1142BOLB   C3C27403  22.370   2.480  16.410
 1142BOLB   C4C27404  22.160   2.860  16.260
 1142BOLB   C1D27405  23.600   2.850  17.010
 1142BOLB   C2D27406  23.700   3.110  16.730
 1142BOLB   C3D27407  24.040   3.330  16.490
 1142BOLB   C4D27408  24.000   3.560  16.140
 1143BOLB   NC127409  15.740  23.060  13.210
 1143BOLB   PO127410  15.970  23.020  12.860
 1143BOLB   GL127411  15.850  23.380  12.650
 1143BOLB   GL227412  15.740  23.550  12.950
 1143BOLB   C1A27413  15.520  23.720  12.420
 1143BOLB   C2A27414  15.310  24.100  12.470
 1143BOLB   C3A27415  15.110  24.380  12.210
 1143BOLB   C4A27416  14.900  24.700  12.030
 1143BOLB   C1B27417  15.610  23.910  12.910
 1143BOLB   C2B27418  15.200  24.190  12.940
 1143BOLB   C3B27419  14.810  24.230  12.660
 1143BOLB   C4B27420  14.620  24.360  12.300
 1143BOLB   NC227421  12.810  26.300  12.750
 1143BOLB   PO227422  13.170  26.370  12.520
 1143BOLB   GL327423  13.610  26.350  12.470
 1143BOLB   GL427424  13.720  26.200  12.150
 1143BOLB   C1C27425  13.940  26.070  12.660
 1143BOLB   C2C27426  14.210  25.690  12.730
 1143BOLB   C3C27427  14.360  25.290  12.430
 1143BOLB   C4C27428  14.560  24.890  12.260
 1143BOLB   C1D27429  13.490  25.870  12.390
 1143BOLB   C2D27430  13.630  25.640  12.680
 1143BOLB   C3D27431  13.920  25.200  12.740
 1143BOLB   C4D27432  13.970  24.780  13.040
 1144BOLB   NC127433  11.050  13.220  11.730
 1144BOLB   PO127434  10.770  13.670  11.680
 1144BOLB   GL127435  10.620  13.300  11.500
 1144BOLB   GL227436  10.810  13.350  11.280
 1144BOLB   C1A27437  10.270  12.990  11.360
 1144BOLB   C2A27438  10.070  12.690  11.230
 1144BOLB   C3A27439   9.710  12.440  11.050
 1144BOLB   C4A27440   9.410  12.150  10.960
 1144BOLB   C1B27441  10.380  13.450  11.100
 1144BOLB   C2B27442  10.030  13.660  11.000
 1144BOLB   C3B27443   9.630  13.800  10.900
 1144BOLB   C4B27444   9.180  13.750  10.780
 1144BOLB   NC227445   7.720  11.320   9.080
 1144BOLB   PO227446   7.720  11.120   9.520
 1144BOLB   GL327447   8.070  11.290   9.900
 1144BOLB   GL427448   8.070  11.650  10.070
 1144BOLB   C1C27449   8.510  11.480   9.810
 1144BOLB   C2C27450   8.940  11.550   9.940
 1144BOLB   C3C27451   9.090  11.560  10.270
 1144BOLB   C4C27452   9.270  11.860  10.560
 1144BOLB   C1D27453   8.470  11.870  10.100
 1144BOLB   C2D27454   8.820  11.990  10.300
 1144BOLB   C3D27455   8.880  12.220  10.780
 1144BOLB   C4D27456   8.830  12.450  11.120
 1145BOLB   NC127457  18.880  22.660   9.510
 1145BOLB   PO127458  18.790  23.010   9.780
 1145BOLB   GL127459  18.480  23.390   9.770
 1145BOLB   GL227460  18.130  23.380   9.660
 1145BOLB   C1A27461  18.410  23.840   9.550
 1145BOLB   C2A27462  18.200  24.320   9.690
 1145BOLB   C3A27463  18.280  24.670   9.440
 1145BOLB   C4A27464  18.040  24.930   9.140
 1145BOLB   C1B27465  18.030  23.570   9.180
 1145BOLB   C2B27466  18.200  23.770   8.860
 1145BOLB   C3B27467  18.080  24.170   8.570
 1145BOLB   C4B27468  18.030  24.340   8.240
 1145BOLB   NC227469  17.730  26.730   7.560
 1145BOLB   PO227470  17.950  26.360   7.470
 1145BOLB   GL327471  18.190  26.110   7.820
 1145BOLB   GL427472  18.530  26.010   7.960
 1145BOLB   C1C27473  17.990  26.140   8.270
 1145BOLB   C2C27474  17.960  26.060   8.690
 1145BOLB   C3C27475  18.130  25.680   8.800
 1145BOLB   C4C27476  18.050  25.220   8.840
 1145BOLB   C1D27477  18.640  25.590   8.060
 1145BOLB   C2D27478  18.740  25.190   8.160
 1145BOLB   C3D27479  18.810  24.790   8.280
 1145BOLB   C4D27480  18.930  24.420   8.190
 1146BOLB   NC127481  14.930  14.310   8.590
 1146BOLB   PO127482  14.730  14.150   8.160
 1146BOLB   GL127483  14.710  13.930   7.830
 1146BOLB   GL227484  14.480  14.290   7.720
 1146BOLB   C1A27485  14.660  13.760   7.300
 1146BOLB   C2A27486  14.740  13.720   6.900
 1146BOLB   C3A27487  14.660  13.520   6.560
 1146BOLB   C4A27488  14.770  13.360   6.180
 1146BOLB   C1B27489  14.420  14.210   7.170
 1146BOLB   C2B27490  14.180  14.030   6.920
 1146BOLB   C3B27491  14.070  13.810   6.630
 1146BOLB   C4B27492  13.800  13.770   6.380
 1146BOLB   NC227493  14.670  13.060   3.850
 1146BOLB   PO227494  14.560  13.390   4.030
 1146BOLB   GL327495  14.830  13.250   4.310
 1146BOLB   GL427496  15.030  13.030   4.190
 1146BOLB   C1C27497  14.820  13.150   4.740
 1146BOLB   C2C27498  15.100  13.110   5.020
 1146BOLB   C3C27499  15.210  13.280   5.350
 1146BOLB   C4C27500  14.970  13.350   5.770
 1146BOLB   C1D27501  15.240  12.920   4.500
 1146BOLB   C2D27502  15.580  13.010   4.760
 1146BOLB   C3D27503  15.670  12.990   5.190
 1146BOLB   C4D27504  16.000  12.800   5.420
 1147BOLB   NC127505  12.330  13.640   9.810
 1147BOLB   PO127506  12.550  13.380   9.500
 1147BOLB   GL127507  12.420  13.080   9.260
 1147BOLB   GL227508  12.640  12.790   9.060
 1147BOLB   C1A27509  12.190  12.940   8.870
 1147BOLB   C2A27510  11.990  12.890   8.520
 1147BOLB   C3A27511  11.570  12.930   8.450
 1147BOLB   C4A27512  11.360  13.310   8.210
 1147BOLB   C1B27513  12.360  12.460   8.950
 1147BOLB   C2B27514  12.050  12.410   8.700
 1147BOLB   C3B27515  11.720  12.230   8.490
 1147BOLB   C4B27516  11.270  12.370   8.430
 1147BOLB   NC227517   9.030  13.100   7.040
 1147BOLB   PO227518   9.010  13.340   7.510
 1147BOLB   GL327519   9.350  13.500   7.700
 1147BOLB   GL427520   9.140  13.630   7.940
 1147BOLB   C1C27521   9.760  13.390   7.680
 1147BOLB   C2C27522  10.190  13.430   7.820
 1147BOLB   C3C27523  10.710  13.340   7.870
 1147BOLB   C4C27524  11.080  13.480   7.890
 1147BOLB   C1D27525   9.480  14.050   7.960
 1147BOLB   C2D27526   9.780  14.080   8.350
 1147BOLB   C3D27527  10.180  14.100   8.510
 1147BOLB   C4D27528  10.430  14.150   8.750
 1148BOLB   NC127529  23.300  13.390   7.750
 1148BOLB   PO127530  22.930  13.220   7.630
 1148BOLB   GL127531  23.000  13.390   7.230
 1148BOLB   GL227532  23.360  13.360   7.200
 1148BOLB   C1A27533  23.000  13.300   6.800
 1148BOLB   C2A27534  23.080  13.460   6.440
 1148BOLB   C3A27535  23.370  13.660   6.100
 1148BOLB   C4A27536  23.460  13.710   5.680
 1148BOLB   C1B27537  23.500  13.290   6.800
 1148BOLB   C2B27538  23.660  13.320   6.380
 1148BOLB   C3B27539  23.600  13.130   6.010
 1148BOLB   C4B27540  23.490  13.210   5.660
 1148BOLB   NC227541  25.060  13.500   3.530
 1148BOLB   PO227542  24.910  13.840   3.930
 1148BOLB   GL327543  25.070  13.850   4.380
 1148BOLB   GL427544  25.030  13.580   4.580
 1148BOLB   C1C27545  24.790  13.970   4.720
 1148BOLB   C2C27546  24.450  13.900   4.910
 1148BOLB   C3C27547  24.210  13.860   5.330
 1148BOLB   C4C27548  23.820  13.630   5.480
 1148BOLB   C1D27549  24.970  13.490   5.070
 1148BOLB   C2D27550  24.580  13.470   5.380
 1148BOLB   C3D27551  24.460  12.990   5.680
 1148BOLB   C4D27552  24.470  12.760   6.000
 1149BOLB   NC127553  10.540  14.560  11.660
 1149BOLB   PO127554  10.700  14.470  11.240
 1149BOLB   GL127555  10.460  14.150  11.040
 1149BOLB   GL227556  10.450  13.880  11.300
 1149BOLB   C1A27557  10.420  13.930  10.590
 1149BOLB   C2A27558  10.380  13.880  10.230
 1149BOLB   C3A27559  10.150  14.120   9.930
 1149BOLB   C4A27560  10.060  14.190   9.440
 1149BOLB   C1B27561   9.950  14.100  11.320
 1149BOLB   C2B27562   9.590  13.970  11.390
 1149BOLB   C3B27563   9.350  13.640  11.290
 1149BOLB   C4B27564   9.160  13.260  11.250
 1149BOLB   NC227565   8.980  13.980   7.460
 1149BOLB   PO227566   9.090  14.330   7.220
 1149BOLB   GL327567   9.210  14.420   7.640
 1149BOLB   GL427568   9.090  14.640   7.770
 1149BOLB   C1C27569   9.470  14.540   8.020
 1149BOLB   C2C27570   9.570  14.560   8.370
 1149BOLB   C3C27571   9.990  14.580   8.540
 1149BOLB   C4C27572   9.980  14.300   8.990
 1149BOLB   C1D27573   9.170  14.910   8.140
 1149BOLB   C2D27574   9.410  15.030   8.500
 1149BOLB   C3D27575   9.570  15.010   8.880
 1149BOLB   C4D27576  10.040  14.830   9.020
 1150BOLB   NC127577  25.780   8.150  15.480
 1150BOLB   PO127578  25.920   7.700  15.550
 1150BOLB   GL127579  26.140   7.280  15.660
 1150BOLB   GL227580  25.930   6.960  15.610
 1150BOLB   C1A27581  26.400   7.020  16.020
 1150BOLB   C2A27582  26.740   6.650  16.100
 1150BOLB   C3A27583  26.860   6.270  16.110
 1150BOLB   C4A27584  27.090   5.920  16.180
 1150BOLB   C1B27585  26.300   6.830  15.560
 1150BOLB   C2B27586  26.650   6.620  15.620
 1150BOLB   C3B27587  27.010   6.290  15.620
 1150BOLB   C4B27588  27.050   5.990  15.340
 1150BOLB   NC227589  27.780   3.660  17.040
 1150BOLB   PO227590  27.690   3.890  17.390
 1150BOLB   GL327591  27.420   4.180  17.040
 1150BOLB   GL427592  27.390   4.000  16.730
 1150BOLB   C1C27593  27.330   4.540  16.860
 1150BOLB   C2C27594  27.310   4.800  16.480
 1150BOLB   C3C27595  27.210   5.260  16.400
 1150BOLB   C4C27596  27.030   5.510  16.200
 1150BOLB   C1D27597  27.250   4.280  16.400
 1150BOLB   C2D27598  27.000   4.560  16.160
 1150BOLB   C3D27599  26.560   4.700  16.120
 1150BOLB   C4D27600  26.150   4.760  16.170
 1151BOLB   NC127601  23.340  17.660   7.750
 1151BOLB   PO127602  23.780  17.610   7.840
 1151BOLB   GL127603  24.140  17.640   7.510
 1151BOLB   GL227604  24.150  17.280   7.410
 1151BOLB   C1A27605  24.550  17.630   7.410
 1151BOLB   C2A27606  24.810  17.570   7.090
 1151BOLB   C3A27607  25.250  17.560   6.800
 1151BOLB   C4A27608  25.520  17.630   6.490
 1151BOLB   C1B27609  24.370  17.350   7.040
 1151BOLB   C2B27610  24.530  17.330   6.590
 1151BOLB   C3B27611  24.590  17.660   6.260
 1151BOLB   C4B27612  24.820  17.980   6.110
 1151BOLB   NC227613  27.110  17.970   5.130
 1151BOLB   PO227614  27.370  17.590   5.210
 1151BOLB   GL327615  27.160  17.720   5.630
 1151BOLB   GL427616  26.900  17.410   5.740
 1151BOLB   C1C27617  27.130  17.550   6.160
 1151BOLB   C2C27618  26.760  17.670   6.400
 1151BOLB   C3C27619  26.400  17.480   6.540
 1151BOLB   C4C27620  25.940  17.680   6.410
 1151BOLB   C1D27621  26.650  17.270   6.010
 1151BOLB   C2D27622  26.410  17.000   6.310
 1151BOLB   C3D27623  26.040  17.070   6.490
 1151BOLB   C4D27624  25.700  16.830   6.310
 1152BOLB   NC127625  14.820  21.980  11.930
 1152BOLB   PO127626  14.480  21.890  11.690
 1152BOLB   GL127627  14.500  22.260  11.440
 1152BOLB   GL227628  14.470  22.410  11.680
 1152BOLB   C1A27629  14.260  22.510  11.190
 1152BOLB   C2A27630  14.010  22.930  11.170
 1152BOLB   C3A27631  14.010  23.260  10.810
 1152BOLB   C4A27632  13.970  23.690  10.620
 1152BOLB   C1B27633  14.080  22.640  11.650
 1152BOLB   C2B27634  13.780  22.780  11.620
 1152BOLB   C3B27635  13.560  23.200  11.640
 1152BOLB   C4B27636  13.530  23.670  11.610
 1152BOLB   NC227637  13.020  25.460   9.910
 1152BOLB   PO227638  12.670  25.230   9.750
 1152BOLB   GL327639  12.730  24.800   9.920
 1152BOLB   GL427640  12.660  24.580  10.170
 1152BOLB   C1C27641  13.070  24.400   9.860
 1152BOLB   C2C27642  13.430  24.220  10.050
 1152BOLB   C3C27643  13.810  24.320  10.410
 1152BOLB   C4C27644  13.990  24.090  10.570
 1152BOLB   C1D27645  12.830  24.310  10.510
 1152BOLB   C2D27646  12.890  23.860  10.650
 1152BOLB   C3D27647  12.940  23.510  10.930
 1152BOLB   C4D27648  13.090  23.160  11.290
 1153BOLB   NC127649  26.900  10.900  10.890
 1153BOLB   PO127650  27.370  11.010  10.910
 1153BOLB   GL127651  27.800  10.950  10.780
 1153BOLB   GL227652  27.760  10.900  10.540
 1153BOLB   C1A27653  28.150  10.950  10.780
 1153BOLB   C2A27654  28.500  10.850  10.550
 1153BOLB   C3A27655  28.710  10.970  10.160
 1153BOLB   C4A27656  29.030  11.030   9.830
 1153BOLB   C1B27657  28.090  10.750  10.250
 1153BOLB   C2B27658  28.370  10.600   9.950
 1153BOLB   C3B27659  28.660  10.230  10.000
 1153BOLB   C4B27660  29.090  10.010  10.020
 1153BOLB   NC227661  30.500  11.480   7.980
 1153BOLB   PO227662  30.450  11.040   7.970
 1153BOLB   GL327663  30.150  11.160   8.220
 1153BOLB   GL427664  30.050  10.880   8.360
 1153BOLB   C1C27665  30.050  11.340   8.540
 1153BOLB   C2C27666  29.860  11.540   8.830
 1153BOLB   C3C27667  29.510  11.530   9.130
 1153BOLB   C4C27668  29.230  11.350   9.510
 1153BOLB   C1D27669  29.600  10.770   8.350
 1153BOLB   C2D27670  29.210  10.650   8.410
 1153BOLB   C3D27671  28.930  10.750   8.730
 1153BOLB   C4D27672  28.590  10.780   9.130
 1154BOLB   NC127673  25.080  20.030  14.470
 1154BOLB   PO127674  25.320  20.230  14.830
 1154BOLB   GL127675  25.770  20.390  15.050
 1154BOLB   GL227676  26.100  20.320  15.120
 1154BOLB   C1A27677  25.840  20.790  15.300
 1154BOLB   C2A27678  26.040  21.180  15.440
 1154BOLB   C3A27679  26.100  21.640  15.520
 1154BOLB   C4A27680  26.330  21.920  15.450
 1154BOLB   C1B27681  26.310  20.450  15.370
 1154BOLB   C2B27682  26.680  20.390  15.400
 1154BOLB   C3B27683  27.080  20.520  15.310
 1154BOLB   C4B27684  27.430  20.660  15.040
 1154BOLB   NC227685  27.520  24.290  14.730
 1154BOLB   PO227686  27.480  24.360  15.150
 1154BOLB   GL327687  27.200  24.020  15.280
 1154BOLB   GL427688  26.950  24.000  15.160
 1154BOLB   C1C27689  26.990  23.730  15.590
 1154BOLB   C2C27690  26.630  23.330  15.470
 1154BOLB   C3C27691  26.570  22.790  15.520
 1154BOLB   C4C27692  26.600  22.340  15.630
 1154BOLB   C1D27693  26.960  23.640  15.070
 1154BOLB   C2D27694  27.130  23.510  14.730
 1154BOLB   C3D27695  27.090  23.230  14.330
 1154BOLB   C4D27696  27.190  23.420  13.860
 1155BOLB   NC127697  17.700  20.110   8.060
 1155BOLB   PO127698  17.260  20.000   8.060
 1155BOLB   GL127699  17.380  20.190   7.600
 1155BOLB   GL227700  17.310  20.450   7.640
 1155BOLB   C1A27701  17.400  20.290   7.140
 1155BOLB   C2A27702  17.390  20.260   6.670
 1155BOLB   C3A27703  17.570  20.240   6.320
 1155BOLB   C4A27704  17.360  20.250   5.900
 1155BOLB   C1B27705  17.340  20.870   7.380
 1155BOLB   C2B27706  17.370  21.120   6.970
 1155BOLB   C3B27707  17.530  21.140   6.600
 1155BOLB   C4B27708  17.710  21.300   6.270
 1155BOLB   NC227709  16.340  20.200   3.790
 1155BOLB   PO227710  16.000  20.020   4.030
 1155BOLB   GL327711  16.180  20.120   4.350
 1155BOLB   GL427712  15.960  20.190   4.660
 1155BOLB   C1C27713  16.620  20.250   4.480
 1155BOLB   C2C27714  16.850  20.140   4.850
 1155BOLB   C3C27715  17.010  20.100   5.240
 1155BOLB   C4C27716  17.150  20.430   5.540
 1155BOLB   C1D27717  16.370  19.910   4.760
 1155BOLB   C2D27718  16.790  19.750   4.540
 1155BOLB   C3D27719  17.160  19.820   4.280
 1155BOLB   C4D27720  17.530  20.010   4.140
 1156BOLB   NC127721  20.130   5.110  16.330
 1156BOLB   PO127722  20.550   5.230  16.230
 1156BOLB   GL127723  20.530   4.880  16.550
 1156BOLB   GL227724  20.480   4.720  16.450
 1156BOLB   C1A27725  20.580   4.760  16.980
 1156BOLB   C2A27726  20.860   4.560  17.010
 1156BOLB   C3A27727  21.120   4.190  17.240
 1156BOLB   C4A27728  21.210   3.850  17.460
 1156BOLB   C1B27729  20.560   4.280  16.480
 1156BOLB   C2B27730  20.540   3.880  16.480
 1156BOLB   C3B27731  20.350   3.540  16.500
 1156BOLB   C4B27732  20.260   3.180  16.300
 1156BOLB   NC227733  23.180   1.940  18.650
 1156BOLB   PO227734  22.790   2.260  18.660
 1156BOLB   GL327735  22.570   2.600  18.390
 1156BOLB   GL427736  22.200   2.390  18.400
 1156BOLB   C1C27737  22.200   2.950  18.290
 1156BOLB   C2C27738  21.800   3.030  18.130
 1156BOLB   C3C27739  21.730   3.420  18.080
 1156BOLB   C4C27740  21.500   3.560  17.710
 1156BOLB   C1D27741  21.840   2.540  18.250
 1156BOLB   C2D27742  21.390   2.730  18.260
 1156BOLB   C3D27743  20.950   2.680  18.390
 1156BOLB   C4D27744  20.590   2.950  18.360
 1157BOLB   NC127745  25.870  17.340   9.280
 1157BOLB   PO127746  25.550  17.550   9.050
 1157BOLB   GL127747  25.810  17.600   8.790
 1157BOLB   GL227748  25.900  17.870   8.690
 1157BOLB   C1A27749  26.020  17.410   8.370
 1157BOLB   C2A27750  26.200  17.480   8.010
 1157BOLB   C3A27751  26.480  17.330   7.590
 1157BOLB   C4A27752  26.710  17.340   7.290
 1157BOLB   C1B27753  26.220  17.890   8.400
 1157BOLB   C2B27754  26.310  18.100   8.020
 1157BOLB   C3B27755  26.460  18.170   7.530
 1157BOLB   C4B27756  26.450  18.450   7.110
 1157BOLB   NC227757  29.290  17.280   6.710
 1157BOLB   PO227758  28.980  17.540   6.630
 1157BOLB   GL327759  28.610  17.600   6.780
 1157BOLB   GL427760  28.660  17.720   7.110
 1157BOLB   C1C27761  28.250  17.870   6.730
 1157BOLB   C2C27762  27.820  17.920   6.920
 1157BOLB   C3C27763  27.480  17.700   6.950
 1157BOLB   C4C27764  27.150  17.570   7.180
 1157BOLB   C1D27765  28.250  17.670   7.220
 1157BOLB   C2D27766  27.830  17.660   7.320
 1157BOLB   C3D27767  27.590  17.650   7.670
 1157BOLB   C4D27768  27.210  17.700   7.840
 1158BOLB   NC127769  13.740   7.790  12.090
 1158BOLB   PO127770  14.140   7.500  11.950
 1158BOLB   GL127771  13.920   7.150  11.740
 1158BOLB   GL227772  14.090   6.790  11.810
 1158BOLB   C1A27773  13.690   6.930  11.440
 1158BOLB   C2A27774  13.240   6.930  11.250
 1158BOLB   C3A27775  12.770   7.040  11.080
 1158BOLB   C4A27776  12.340   7.050  11.280
 1158BOLB   C1B27777  14.150   6.520  11.410
 1158BOLB   C2B27778  13.800   6.460  11.140
 1158BOLB   C3B27779  13.780   6.500  10.690
 1158BOLB   C4B27780  13.640   6.360  10.360
 1158BOLB   NC227781  11.590   5.550   9.760
 1158BOLB   PO227782  11.280   5.800   9.830
 1158BOLB   GL327783  11.530   5.980  10.120
 1158BOLB   GL427784  11.490   6.340  10.130
 1158BOLB   C1C27785  11.670   5.910  10.440
 1158BOLB   C2C27786  11.580   6.260  10.710
 1158BOLB   C3C27787  11.810   6.440  11.070
 1158BOLB   C4C27788  12.040   6.710  11.330
 1158BOLB   C1D27789  11.660   6.650  10.350
 1158BOLB   C2D27790  11.730   7.070  10.550
 1158BOLB   C3D27791  11.820   7.430  10.840
 1158BOLB   C4D27792  11.930   7.810  10.990
 1159BOLB   NC127793  14.470  10.040   9.440
 1159BOLB   PO127794  14.690  10.560   9.330
 1159BOLB   GL127795  14.350  10.480   9.100
 1159BOLB   GL227796  14.100  10.360   9.210
 1159BOLB   C1A27797  14.070  10.380   8.690
 1159BOLB   C2A27798  13.820  10.490   8.350
 1159BOLB   C3A27799  13.650  10.660   8.000
 1159BOLB   C4A27800  13.630  10.360   7.640
 1159BOLB   C1B27801  14.200   9.940   8.850
 1159BOLB   C2B27802  13.990   9.510   8.780
 1159BOLB   C3B27803  13.600   9.220   8.730
 1159BOLB   C4B27804  13.300   8.890   8.640
 1159BOLB   NC227805  13.030   9.200   5.720
 1159BOLB   PO227806  12.610   9.270   5.760
 1159BOLB   GL327807  12.680   9.190   6.240
 1159BOLB   GL427808  12.930   8.990   6.180
 1159BOLB   C1C27809  12.940   9.380   6.520
 1159BOLB   C2C27810  13.050   9.390   6.970
 1159BOLB   C3C27811  12.990   9.670   7.270
 1159BOLB   C4C27812  13.240  10.010   7.510
 1159BOLB   C1D27813  13.260   8.950   6.370
 1159BOLB   C2D27814  13.510   8.970   6.730
 1159BOLB   C3D27815  13.860   9.100   6.980
 1159BOLB   C4D27816  14.080   9.360   7.280
 1160BOLB   NC127817  15.840   5.030  15.090
 1160BOLB   PO127818  15.980   5.050  15.450
 1160BOLB   GL127819  16.040   4.810  15.770
 1160BOLB   GL227820  16.400   4.790  15.660
 1160BOLB   C1A27821  15.960   4.390  15.690
 1160BOLB   C2A27822  15.740   4.030  15.430
 1160BOLB   C3A27823  15.610   3.830  15.110
 1160BOLB   C4A27824  15.560   3.430  14.880
 1160BOLB   C1B27825  16.450   4.710  16.050
 1160BOLB   C2B27826  16.200   4.510  16.440
 1160BOLB   C3B27827  16.130   4.370  16.860
 1160BOLB   C4B27828  15.950   4.060  17.230
 1160BOLB   NC227829  14.760   1.750  13.930
 1160BOLB   PO227830  15.210   1.740  13.970
 1160BOLB   GL327831  15.560   2.060  13.880
 1160BOLB   GL427832  15.700   2.000  14.200
 1160BOLB   C1C27833  15.850   2.340  13.870
 1160BOLB   C2C27834  15.910   2.790  13.940
 1160BOLB   C3C27835  15.720   3.110  14.100
 1160BOLB   C4C27836  15.680   3.440  14.500
 1160BOLB   C1D27837  15.270   2.290  14.280
 1160BOLB   C2D27838  15.260   2.690  14.450
 1160BOLB   C3D27839  15.100   3.010  14.790
 1160BOLB   C4D27840  14.760   3.290  14.920
 1161BOLB   NC127841  13.530  15.730  18.360
 1161BOLB   PO127842  13.610  15.400  18.480
 1161BOLB   GL127843  13.450  15.430  18.870
 1161BOLB   GL227844  13.340  15.120  18.990
 1161BOLB   C1A27845  13.240  15.700  19.040
 1161BOLB   C2A27846  13.090  16.070  19.390
 1161BOLB   C3A27847  12.900  16.120  19.830
 1161BOLB   C4A27848  12.720  16.040  20.220
 1161BOLB   C1B27849  13.020  15.230  19.060
 1161BOLB   C2B27850  12.630  15.360  19.270
 1161BOLB   C3B27851  12.290  15.490  19.440
 1161BOLB   C4B27852  12.030  15.730  19.620
 1161BOLB   NC227853  10.700  16.090  21.420
 1161BOLB   PO227854  11.010  16.330  21.490
 1161BOLB   GL327855  11.160  16.160  21.200
 1161BOLB   GL427856  10.980  15.920  21.050
 1161BOLB   C1C27857  11.530  15.850  21.280
 1161BOLB   C2C27858  11.860  15.700  21.090
 1161BOLB   C3C27859  12.070  15.820  20.670
 1161BOLB   C4C27860  12.320  15.900  20.370
 1161BOLB   C1D27861  11.280  15.570  20.920
 1161BOLB   C2D27862  11.540  15.480  20.630
 1161BOLB   C3D27863  11.860  15.340  20.460
 1161BOLB   C4D27864  11.920  14.890  20.270
 1162BOLB   NC127865  10.860  18.270  12.960
 1162BOLB   PO127866  10.660  17.940  13.080
 1162BOLB   GL127867  10.340  18.270  13.050
 1162BOLB   GL227868  10.430  18.460  13.250
 1162BOLB   C1A27869  10.010  18.210  12.930
 1162BOLB   C2A27870   9.640  18.140  12.790
 1162BOLB   C3A27871   9.380  18.320  12.480
 1162BOLB   C4A27872   9.090  18.450  12.050
 1162BOLB   C1B27873  10.000  18.550  13.430
 1162BOLB   C2B27874   9.590  18.780  13.210
 1162BOLB   C3B27875   9.210  18.610  13.070
 1162BOLB   C4B27876   8.780  18.690  13.010
 1162BOLB   NC227877   7.380  19.490  10.760
 1162BOLB   PO227878   7.450  19.040  10.740
 1162BOLB   GL327879   7.780  18.890  10.980
 1162BOLB   GL427880   7.850  19.250  11.110
 1162BOLB   C1C27881   8.250  18.760  10.920
 1162BOLB   C2C27882   8.630  18.530  10.950
 1162BOLB   C3C27883   8.820  18.620  11.320
 1162BOLB   C4C27884   8.890  18.470  11.740
 1162BOLB   C1D27885   8.210  19.160  11.350
 1162BOLB   C2D27886   8.170  19.320  11.750
 1162BOLB   C3D27887   8.410  19.730  11.850
 1162BOLB   C4D27888   8.180  19.950  12.090
 1163BOLB   NC127889  19.000  19.660   7.580
 1163BOLB   PO127890  18.900  20.080   7.830
 1163BOLB   GL127891  18.900  20.250   7.460
 1163BOLB   GL227892  19.220  20.410   7.400
 1163BOLB   C1A27893  18.790  20.460   7.200
 1163BOLB   C2A27894  19.020  20.760   6.850
 1163BOLB   C3A27895  19.090  21.100   6.630
 1163BOLB   C4A27896  19.000  21.540   6.270
 1163BOLB   C1B27897  19.260  20.340   6.950
 1163BOLB   C2B27898  19.280  20.480   6.530
 1163BOLB   C3B27899  19.200  20.320   6.210
 1163BOLB   C4B27900  18.780  20.280   5.970
 1163BOLB   NC227901  19.530  23.250   4.530
 1163BOLB   PO227902  19.130  22.960   4.470
 1163BOLB   GL327903  19.140  22.980   4.910
 1163BOLB   GL427904  19.210  23.200   5.000
 1163BOLB   C1C27905  19.460  22.790   5.210
 1163BOLB   C2C27906  19.330  22.430   5.570
 1163BOLB   C3C27907  19.040  21.990   5.680
 1163BOLB   C4C27908  19.170  21.690   5.910
 1163BOLB   C1D27909  19.170  23.420   5.490
 1163BOLB   C2D27910  19.400  23.480   5.880
 1163BOLB   C3D27911  19.510  23.960   6.020
 1163BOLB   C4D27912  19.760  24.320   6.310
 1164BOLB   NC127913  13.130  10.490  11.220
 1164BOLB   PO127914  12.930  10.060  11.320
 1164BOLB   GL127915  12.510   9.940  11.170
 1164BOLB   GL227916  12.270   9.680  11.390
 1164BOLB   C1A27917  12.170   9.690  10.900
 1164BOLB   C2A27918  11.740   9.480  10.810
 1164BOLB   C3A27919  11.440   9.180  10.830
 1164BOLB   C4A27920  11.110   8.940  10.850
 1164BOLB   C1B27921  11.850   9.640  11.250
 1164BOLB   C2B27922  11.420   9.570  11.240
 1164BOLB   C3B27923  10.980   9.480  11.220
 1164BOLB   C4B27924  10.700   9.050  11.310
 1164BOLB   NC227925   9.280   8.620   9.490
 1164BOLB   PO227926   9.430   8.800   9.250
 1164BOLB   GL327927   9.720   8.960   9.510
 1164BOLB   GL427928   9.740   9.260   9.570
 1164BOLB   C1C27929   9.950   8.840   9.850
 1164BOLB   C2C27930   9.980   8.780  10.230
 1164BOLB   C3C27931  10.270   8.970  10.530
 1164BOLB   C4C27932  10.710   8.980  10.760
 1164BOLB   C1D27933  10.060   9.680   9.720
 1164BOLB   C2D27934  10.300  10.050   9.620
 1164BOLB   C3D27935  10.540  10.600   9.810
 1164BOLB   C4D27936  10.940  10.630  10.160
 1165BOLB   NC127937  22.110   9.050   4.090
 1165BOLB   PO127938  22.500   9.090   4.230
 1165BOLB   GL127939  22.340   9.440   4.570
 1165BOLB   GL227940  22.480   9.330   4.830
 1165BOLB   C1A27941  22.000   9.610   4.930
 1165BOLB   C2A27942  21.640   9.450   5.240
 1165BOLB   C3A27943  21.440   9.610   5.550
 1165BOLB   C4A27944  21.370   9.440   5.940
 1165BOLB   C1B27945  22.310   9.430   5.270
 1165BOLB   C2B27946  21.980   9.640   5.500
 1165BOLB   C3B27947  21.770   9.880   5.840
 1165BOLB   C4B27948  21.810  10.140   6.130
 1165BOLB   NC227949  21.480   9.440   8.400
 1165BOLB   PO227950  21.080   9.580   8.400
 1165BOLB   GL327951  21.120   9.470   8.020
 1165BOLB   GL427952  21.410   9.190   7.970
 1165BOLB   C1C27953  21.190   9.510   7.640
 1165BOLB   C2C27954  21.340   9.420   7.140
 1165BOLB   C3C27955  21.360   9.520   6.720
 1165BOLB   C4C27956  21.320   9.390   6.330
 1165BOLB   C1D27957  21.460   9.070   7.550
 1165BOLB   C2D27958  21.470   8.960   7.040
 1165BOLB   C3D27959  21.560   8.660   6.630
 1165BOLB   C4D27960  21.580   8.410   6.340
 1166BOLB   NC127961  12.510  16.950   8.930
 1166BOLB   PO127962  12.190  17.140   9.180
 1166BOLB   GL127963  12.040  17.180   8.750
 1166BOLB   GL227964  12.040  17.540   8.790
 1166BOLB   C1A27965  11.880  17.110   8.390
 1166BOLB   C2A27966  11.820  16.890   8.090
 1166BOLB   C3A27967  11.860  16.670   7.620
 1166BOLB   C4A27968  11.770  16.480   7.280
 1166BOLB   C1B27969  11.820  17.980   8.680
 1166BOLB   C2B27970  11.650  18.030   8.290
 1166BOLB   C3B27971  11.640  17.950   7.840
 1166BOLB   C4B27972  11.490  18.190   7.520
 1166BOLB   NC227973  10.140  16.220   5.690
 1166BOLB   PO227974   9.950  16.670   5.860
 1166BOLB   GL327975  10.320  16.710   6.120
 1166BOLB   GL427976  10.510  17.010   6.070
 1166BOLB   C1C27977  10.470  16.420   6.480
 1166BOLB   C2C27978  10.920  16.320   6.810
 1166BOLB   C3C27979  11.230  16.180   7.020
 1166BOLB   C4C27980  11.430  16.470   7.230
 1166BOLB   C1D27981  10.860  17.110   6.350
 1166BOLB   C2D27982  11.190  16.970   6.400
 1166BOLB   C3D27983  11.320  16.680   6.820
 1166BOLB   C4D27984  11.630  16.390   6.830
 1167BOLB   NC127985  23.340  20.790  16.890
 1167BOLB   PO127986  23.190  20.640  17.350
 1167BOLB   GL127987  23.490  20.910  17.570
 1167BOLB   GL227988  23.370  21.290  17.530
 1167BOLB   C1A27989  23.860  20.930  17.670
 1167BOLB   C2A27990  24.160  21.040  17.930
 1167BOLB   C3A27991  24.390  21.230  18.290
 1167BOLB   C4A27992  24.500  21.680  18.340
 1167BOLB   C1B27993  23.170  21.570  17.710
 1167BOLB   C2B27994  23.160  21.920  18.020
 1167BOLB   C3B27995  22.800  22.150  18.140
 1167BOLB   C4B27996  22.540  22.330  18.350
 1167BOLB   NC227997  25.570  24.070  19.460
 1167BOLB   PO227998  25.400  23.600  19.460
 1167BOLB   GL327999  25.220  23.270  19.190
 1167BOLB   GL428000  25.150  23.360  18.850
 1167BOLB   C1C28001  24.990  22.930  19.020
 1167BOLB   C2C28002  24.640  22.740  18.900
 1167BOLB   C3C28003  24.610  22.340  18.670
 1167BOLB   C4C28004  24.720  22.030  18.440
 1167BOLB   C1D28005  25.220  23.060  18.590
 1167BOLB   C2D28006  25.000  22.730  18.490
 1167BOLB   C3D28007  25.060  22.410  18.850
 1167BOLB   C4D28008  24.960  22.050  18.910
 1168BOLB   NC128009  24.080  15.800   8.300
 1168BOLB   PO128010  24.540  15.710   8.140
 1168BOLB   GL128011  24.730  16.010   7.770
 1168BOLB   GL228012  24.920  16.290   7.650
 1168BOLB   C1A28013  24.850  15.920   7.250
 1168BOLB   C2A28014  24.950  15.560   6.930
 1168BOLB   C3A28015  25.170  15.270   6.650
 1168BOLB   C4A28016  25.460  14.840   6.660
 1168BOLB   C1B28017  25.060  16.570   7.280
 1168BOLB   C2B28018  25.330  16.770   6.920
 1168BOLB   C3B28019  25.490  17.110   6.620
 1168BOLB   C4B28020  25.630  17.280   6.180
 1168BOLB   NC228021  25.900  14.280   4.390
 1168BOLB   PO228022  26.110  13.900   4.620
 1168BOLB   GL328023  26.090  13.970   5.120
 1168BOLB   GL428024  26.270  13.690   5.290
 1168BOLB   C1C28025  25.920  14.010   5.540
 1168BOLB   C2C28026  25.610  13.880   5.900
 1168BOLB   C3C28027  25.460  14.200   6.140
 1168BOLB   C4C28028  25.590  14.400   6.470
 1168BOLB   C1D28029  26.270  13.770   5.720
 1168BOLB   C2D28030  26.140  14.080   5.970
 1168BOLB   C3D28031  26.100  14.360   6.240
 1168BOLB   C4D28032  26.080  14.730   6.010
 1169BOLB   NC128033  28.040  10.120  12.280
 1169BOLB   PO128034  28.250  10.300  12.650
 1169BOLB   GL128035  28.480   9.900  12.460
 1169BOLB   GL228036  28.550   9.740  12.640
 1169BOLB   C1A28037  28.830   9.810  12.230
 1169BOLB   C2A28038  29.240   9.700  12.300
 1169BOLB   C3A28039  29.640   9.640  12.340
 1169BOLB   C4A28040  29.950   9.320  12.540
 1169BOLB   C1B28041  28.770   9.420  12.710
 1169BOLB   C2B28042  29.180   9.180  12.780
 1169BOLB   C3B28043  29.430   9.040  12.520
 1169BOLB   C4B28044  29.610   9.170  12.120
 1169BOLB   NC228045  30.540   7.400  11.170
 1169BOLB   PO228046  30.470   7.310  11.550
 1169BOLB   GL328047  30.240   7.470  11.900
 1169BOLB   GL428048  30.080   7.560  12.230
 1169BOLB   C1C28049  30.370   7.890  11.980
 1169BOLB   C2C28050  30.370   8.230  12.190
 1169BOLB   C3C28051  30.170   8.700  12.210
 1169BOLB   C4C28052  29.910   8.910  12.510
 1169BOLB   C1D28053  29.590   7.670  12.320
 1169BOLB   C2D28054  29.190   7.940  12.370
 1169BOLB   C3D28055  28.960   8.010  12.800
 1169BOLB   C4D28056  28.910   8.380  13.100
 1170BOLB   NC128057  19.830   5.120  12.720
 1170BOLB   PO128058  20.110   5.070  12.480
 1170BOLB   GL128059  20.060   4.630  12.400
 1170BOLB   GL228060  20.150   4.490  12.090
 1170BOLB   C1A28061  19.780   4.280  12.290
 1170BOLB   C2A28062  19.850   3.890  12.080
 1170BOLB   C3A28063  20.210   3.740  11.790
 1170BOLB   C4A28064  20.210   3.710  11.410
 1170BOLB   C1B28065  19.990   4.230  11.850
 1170BOLB   C2B28066  20.090   4.190  11.430
 1170BOLB   C3B28067  20.430   4.070  11.160
 1170BOLB   C4B28068  20.540   3.880  10.810
 1170BOLB   NC228069  20.880   1.100  10.950
 1170BOLB   PO228070  21.210   1.320  10.750
 1170BOLB   GL328071  20.970   1.690  10.750
 1170BOLB   GL428072  21.050   2.000  10.570
 1170BOLB   C1C28073  20.730   2.050  10.980
 1170BOLB   C2C28074  20.370   2.420  11.120
 1170BOLB   C3C28075  20.280   2.900  11.070
 1170BOLB   C4C28076  20.190   3.350  11.140
 1170BOLB   C1D28077  20.790   2.350  10.620
 1170BOLB   C2D28078  20.330   2.360  10.610
 1170BOLB   C3D28079  20.070   2.620  10.300
 1170BOLB   C4D28080  19.710   2.580   9.940
 1171BOLB   NC128081  25.270  13.690   8.930
 1171BOLB   PO128082  25.680  13.720   8.710
 1171BOLB   GL128083  25.920  13.340   8.610
 1171BOLB   GL228084  26.140  13.260   8.750
 1171BOLB   C1A28085  25.960  13.250   8.210
 1171BOLB   C2A28086  26.240  13.120   7.800
 1171BOLB   C3A28087  26.470  12.970   7.420
 1171BOLB   C4A28088  26.630  12.600   7.090
 1171BOLB   C1B28089  26.440  13.380   8.500
 1171BOLB   C2B28090  26.760  13.370   8.100
 1171BOLB   C3B28091  26.990  13.570   7.760
 1171BOLB   C4B28092  27.100  13.940   7.420
 1171BOLB   NC228093  28.590  12.400   5.320
 1171BOLB   PO228094  28.170  12.240   5.430
 1171BOLB   GL328095  27.990  12.430   5.790
 1171BOLB   GL428096  28.260  12.330   5.920
 1171BOLB   C1C28097  27.780  12.180   6.090
 1171BOLB   C2C28098  27.690  12.000   6.470
 1171BOLB   C3C28099  27.260  12.080   6.670
 1171BOLB   C4C28100  26.870  12.210   7.030
 1171BOLB   C1D28101  28.270  12.130   6.330
 1171BOLB   C2D28102  28.100  12.300   6.610
 1171BOLB   C3D28103  27.700  12.260   6.920
 1171BOLB   C4D28104  27.340  12.470   7.000
 1172BOLB   NC128105  22.550   8.780   9.040
 1172BOLB   PO128106  22.160   8.880   8.870
 1172BOLB   GL128107  22.030   8.700   8.490
 1172BOLB   GL228108  21.870   8.330   8.490
 1172BOLB   C1A28109  21.800   8.930   8.210
 1172BOLB   C2A28110  21.850   8.830   7.750
 1172BOLB   C3A28111  21.930   8.900   7.260
 1172BOLB   C4A28112  21.980   8.790   6.800
 1172BOLB   C1B28113  22.000   8.300   7.950
 1172BOLB   C2B28114  22.090   8.380   7.530
 1172BOLB   C3B28115  22.250   8.400   7.110
 1172BOLB   C4B28116  22.480   8.150   6.780
 1172BOLB   NC228117  22.380   7.220   4.600
 1172BOLB   PO228118  22.580   7.140   4.990
 1172BOLB   GL328119  22.620   7.380   5.320
 1172BOLB   GL428120  22.650   7.220   5.610
 1172BOLB   C1C28121  22.290   7.700   5.560
 1172BOLB   C2C28122  22.220   7.800   6.030
 1172BOLB   C3C28123  22.160   8.060   6.300
 1172BOLB   C4C28124  22.060   8.420   6.650
 1172BOLB   C1D28125  22.630   7.080   6.040
 1172BOLB   C2D28126  22.500   7.070   6.560
 1172BOLB   C3D28127  22.320   7.270   6.840
 1172BOLB   C4D28128  22.010   7.410   7.260
 1173BOLB   NC128129  15.240   7.110  18.630
 1173BOLB   PO128130  15.570   7.170  18.390
 1173BOLB   GL128131  15.660   7.010  18.860
 1173BOLB   GL228132  15.670   7.330  19.090
 1173BOLB   C1A28133  15.470   6.880  19.220
 1173BOLB   C2A28134  15.150   6.540  19.410
 1173BOLB   C3A28135  14.860   6.450  19.870
 1173BOLB   C4A28136  14.570   6.380  20.220
 1173BOLB   C1B28137  15.440   7.290  19.450
 1173BOLB   C2B28138  15.340   7.050  19.790
 1173BOLB   C3B28139  15.170   6.860  20.230
 1173BOLB   C4B28140  15.090   6.430  20.330
 1173BOLB   NC228141  13.220   4.840  20.880
 1173BOLB   PO228142  13.490   4.670  20.630
 1173BOLB   GL328143  13.600   4.990  20.500
 1173BOLB   GL428144  13.290   5.120  20.480
 1173BOLB   C1C28145  14.020   5.140  20.660
 1173BOLB   C2C28146  14.260   5.510  20.810
 1173BOLB   C3C28147  14.430   5.910  20.790
 1173BOLB   C4C28148  14.560   6.240  20.600
 1173BOLB   C1D28149  13.540   5.450  20.260
 1173BOLB   C2D28150  13.840   5.460  20.170
 1173BOLB   C3D28151  14.250   5.530  19.850
 1173BOLB   C4D28152  14.170   5.470  19.470
 1174BOLB   NC128153  11.660  19.000  12.860
 1174BOLB   PO128154  11.440  18.720  12.560
 1174BOLB   GL128155  11.160  19.010  12.840
 1174BOLB   GL228156  11.120  19.360  12.880
 1174BOLB   C1A28157  10.690  19.160  12.670
 1174BOLB   C2A28158  10.250  19.450  12.660
 1174BOLB   C3A28159   9.820  19.520  12.710
 1174BOLB   C4A28160   9.330  19.650  12.720
 1174BOLB   C1B28161  10.690  19.560  12.910
 1174BOLB   C2B28162  10.360  19.880  12.980
 1174BOLB   C3B28163  10.020  20.250  13.120
 1174BOLB   C4B28164   9.830  20.560  13.420
 1174BOLB   NC228165   7.870  21.320  13.270
 1174BOLB   PO228166   7.730  20.920  13.320
 1174BOLB   GL328167   7.940  20.510  13.460
 1174BOLB   GL428168   8.070  20.360  13.190
 1174BOLB   C1C28169   8.370  20.500  13.600
 1174BOLB   C2C28170   8.710  20.280  13.750
 1174BOLB   C3C28171   9.060  20.040  13.500
 1174BOLB   C4C28172   9.140  19.740  13.100
 1174BOLB   C1D28173   8.340  19.990  13.450
 1174BOLB   C2D28174   8.630  19.680  13.370
 1174BOLB   C3D28175   8.770  19.340  13.170
 1174BOLB   C4D28176   9.080  19.130  12.850
 1175BOLB   NC128177  18.690  11.950   8.180
 1175BOLB   PO128178  18.190  11.770   8.010
 1175BOLB   GL128179  18.090  11.660   7.590
 1175BOLB   GL228180  18.300  11.520   7.440
 1175BOLB   C1A28181  17.790  11.510   7.290
 1175BOLB   C2A28182  17.520  11.510   6.980
 1175BOLB   C3A28183  17.510  11.290   6.670
 1175BOLB   C4A28184  17.560  11.000   6.310
 1175BOLB   C1B28185  18.200  11.320   7.090
 1175BOLB   C2B28186  17.950  11.100   6.710
 1175BOLB   C3B28187  18.070  10.890   6.290
 1175BOLB   C4B28188  18.150  10.520   6.080
 1175BOLB   NC228189  18.300  10.460   3.650
 1175BOLB   PO228190  18.030  10.780   3.890
 1175BOLB   GL328191  18.050  10.820   4.280
 1175BOLB   GL428192  17.940  10.630   4.450
 1175BOLB   C1C28193  18.110  10.970   4.790
 1175BOLB   C2C28194  18.000  10.760   5.180
 1175BOLB   C3C28195  18.000  10.930   5.580
 1175BOLB   C4C28196  17.800  10.810   5.910
 1175BOLB   C1D28197  17.610  10.890   4.600
 1175BOLB   C2D28198  17.410  10.920   5.000
 1175BOLB   C3D28199  17.540  11.140   5.460
 1175BOLB   C4D28200  17.670  11.360   5.860
 1176BOLB   NC128201  18.910  20.900   8.390
 1176BOLB   PO128202  18.920  20.530   8.120
 1176BOLB   GL128203  18.910  20.730   7.780
 1176BOLB   GL228204  18.740  20.950   7.830
 1176BOLB   C1A28205  18.940  20.880   7.360
 1176BOLB   C2A28206  19.140  21.230   7.140
 1176BOLB   C3A28207  19.030  21.560   6.860
 1176BOLB   C4A28208  18.890  21.960   6.690
 1176BOLB   C1B28209  18.450  21.360   7.650
 1176BOLB   C2B28210  18.290  21.760   7.530
 1176BOLB   C3B28211  18.140  21.970   7.240
 1176BOLB   C4B28212  18.070  22.420   7.090
 1176BOLB   NC228213  18.490  23.890   5.560
 1176BOLB   PO228214  18.050  24.070   5.620
 1176BOLB   GL328215  18.220  23.850   6.020
 1176BOLB   GL428216  18.020  23.670   6.050
 1176BOLB   C1C28217  18.600  23.570   6.050
 1176BOLB   C2C28218  18.690  23.200   6.270
 1176BOLB   C3C28219  18.860  22.770   6.320
 1176BOLB   C4C28220  18.720  22.430   6.570
 1176BOLB   C1D28221  18.180  23.250   6.210
 1176BOLB   C2D28222  18.290  22.830   6.280
 1176BOLB   C3D28223  18.180  22.640   6.630
 1176BOLB   C4D28224  17.990  22.230   6.680
 1177BOLB   NC128225  21.940  19.070   7.670
 1177BOLB   PO128226  22.080  18.650   7.650
 1177BOLB   GL128227  21.870  18.760   7.220
 1177BOLB   GL228228  21.610  18.580   7.130
 1177BOLB   C1A28229  21.820  19.130   6.960
 1177BOLB   C2A28230  21.860  19.240   6.500
 1177BOLB   C3A28231  22.100  19.460   6.170
 1177BOLB   C4A28232  22.240  19.640   5.860
 1177BOLB   C1B28233  21.400  18.750   6.750
 1177BOLB   C2B28234  21.330  18.800   6.350
 1177BOLB   C3B28235  21.440  18.810   5.920
 1177BOLB   C4B28236  21.270  18.830   5.400
 1177BOLB   NC228237  22.970  21.320   4.620
 1177BOLB   PO228238  22.960  20.940   4.410
 1177BOLB   GL328239  23.140  20.590   4.730
 1177BOLB   GL428240  23.420  20.600   4.900
 1177BOLB   C1C28241  23.230  20.140   4.910
 1177BOLB   C2C28242  23.030  19.820   5.120
 1177BOLB   C3C28243  23.020  19.820   5.550
 1177BOLB   C4C28244  22.610  19.840   5.760
 1177BOLB   C1D28245  23.230  20.450   5.350
 1177BOLB   C2D28246  23.100  20.690   5.720
 1177BOLB   C3D28247  22.800  21.050   5.820
 1177BOLB   C4D28248  22.670  21.570   5.680
 1178BOLB   NC128249  13.440  19.290  10.040
 1178BOLB   PO128250  13.070  19.120   9.950
 1178BOLB   GL128251  12.740  19.360   9.800
 1178BOLB   GL228252  12.650  19.360   9.450
 1178BOLB   C1A28253  12.270  19.400   9.860
 1178BOLB   C2A28254  12.110  19.680   9.380
 1178BOLB   C3A28255  11.990  20.090   9.220
 1178BOLB   C4A28256  11.790  20.190   8.860
 1178BOLB   C1B28257  12.520  19.440   9.070
 1178BOLB   C2B28258  12.230  19.370   8.810
 1178BOLB   C3B28259  11.740  19.350   8.800
 1178BOLB   C4B28260  11.280  19.330   8.790
 1178BOLB   NC228261  10.220  21.340   7.860
 1178BOLB   PO228262  10.650  21.580   7.710
 1178BOLB   GL328263  11.000  21.540   7.670
 1178BOLB   GL428264  11.320  21.640   7.540
 1178BOLB   C1C28265  11.310  21.290   7.960
 1178BOLB   C2C28266  11.460  21.060   8.250
 1178BOLB   C3C28267  11.410  20.660   8.400
 1178BOLB   C4C28268  11.590  20.350   8.570
 1178BOLB   C1D28269  11.720  21.720   7.730
 1178BOLB   C2D28270  11.930  21.310   7.720
 1178BOLB   C3D28271  12.100  20.970   7.970
 1178BOLB   C4D28272  12.480  20.870   8.130
 1179BOLB   NC128273  14.690  21.470  10.940
 1179BOLB   PO128274  14.580  21.670  11.240
 1179BOLB   GL128275  14.290  21.890  11.170
 1179BOLB   GL228276  14.050  22.090  11.410
 1179BOLB   C1A28277  14.130  22.150  10.840
 1179BOLB   C2A28278  13.730  22.420  10.620
 1179BOLB   C3A28279  13.350  22.720  10.510
 1179BOLB   C4A28280  12.910  22.860  10.330
 1179BOLB   C1B28281  13.800  22.420  11.220
 1179BOLB   C2B28282  13.450  22.500  11.040
 1179BOLB   C3B28283  13.190  22.830  10.950
 1179BOLB   C4B28284  12.830  23.030  10.790
 1179BOLB   NC228285  11.390  24.340   9.700
 1179BOLB   PO228286  11.810  24.470   9.780
 1179BOLB   GL328287  12.050  24.200   9.870
 1179BOLB   GL428288  12.150  23.920   9.730
 1179BOLB   C1C28289  12.290  24.090  10.210
 1179BOLB   C2C28290  12.430  23.810  10.470
 1179BOLB   C3C28291  12.550  23.430  10.500
 1179BOLB   C4C28292  12.480  23.020  10.420
 1179BOLB   C1D28293  12.210  23.640  10.020
 1179BOLB   C2D28294  12.050  23.330  10.270
 1179BOLB   C3D28295  11.880  22.940  10.270
 1179BOLB   C4D28296  11.650  22.600  10.130
 1180BOLB   NC128297  19.270  10.320   8.150
 1180BOLB   PO128298  19.500  10.590   8.030
 1180BOLB   GL128299  19.550  10.380   7.700
 1180BOLB   GL228300  19.570  10.550   7.450
 1180BOLB   C1A28301  19.900  10.210   7.410
 1180BOLB   C2A28302  19.840   9.990   7.050
 1180BOLB   C3A28303  19.970   9.790   6.770
 1180BOLB   C4A28304  19.880   9.620   6.460
 1180BOLB   C1B28305  19.540  10.430   7.050
 1180BOLB   C2B28306  19.690  10.220   6.620
 1180BOLB   C3B28307  19.470   9.980   6.240
 1180BOLB   C4B28308  19.360   9.750   5.900
 1180BOLB   NC228309  19.790   8.900   4.280
 1180BOLB   PO228310  19.410   9.080   4.180
 1180BOLB   GL328311  19.130   9.230   4.630
 1180BOLB   GL428312  18.930   9.490   4.700
 1180BOLB   C1C28313  19.030   9.140   5.100
 1180BOLB   C2C28314  19.200   9.390   5.430
 1180BOLB   C3C28315  19.550   9.280   5.730
 1180BOLB   C4C28316  19.860   9.490   6.020
 1180BOLB   C1D28317  19.370   9.510   4.970
 1180BOLB   C2D28318  19.600   9.290   5.190
 1180BOLB   C3D28319  20.010   9.420   5.450
 1180BOLB   C4D28320  20.190   9.770   5.650
 1181BOLB   NC128321  19.440  20.720   8.270
 1181BOLB   PO128322  19.470  20.550   7.790
 1181BOLB   GL128323  19.440  20.880   7.600
 1181BOLB   GL228324  19.320  21.050   7.730
 1181BOLB   C1A28325  19.450  20.770   7.120
 1181BOLB   C2A28326  19.560  20.870   6.730
 1181BOLB   C3A28327  19.450  20.940   6.270
 1181BOLB   C4A28328  19.230  20.840   6.020
 1181BOLB   C1B28329  18.940  21.360   7.570
 1181BOLB   C2B28330  18.790  21.660   7.360
 1181BOLB   C3B28331  18.800  21.930   7.140
 1181BOLB   C4B28332  18.440  22.140   6.880
 1181BOLB   NC228333  17.560  20.790   3.840
 1181BOLB   PO228334  18.040  20.850   3.830
 1181BOLB   GL328335  18.060  20.850   4.260
 1181BOLB   GL428336  17.690  20.690   4.300
 1181BOLB   C1C28337  18.090  20.880   4.690
 1181BOLB   C2C28338  18.420  20.760   5.070
 1181BOLB   C3C28339  18.620  20.890   5.410
 1181BOLB   C4C28340  18.850  20.710   5.710
 1181BOLB   C1D28341  17.750  20.450   4.640
 1181BOLB   C2D28342  18.010  20.360   5.070
 1181BOLB   C3D28343  18.340  20.260   5.370
 1181BOLB   C4D28344  18.270  19.840   5.420
 1182BOLB   NC128345  20.400   2.330  21.090
 1182BOLB   PO128346  20.390   2.610  20.720
 1182BOLB   GL128347  20.360   2.980  20.280
 1182BOLB   GL228348  20.130   3.170  20.220
 1182BOLB   C1A28349  20.640   3.000  19.880
 1182BOLB   C2A28350  20.870   3.300  19.650
 1182BOLB   C3A28351  21.180   3.560  19.620
 1182BOLB   C4A28352  21.420   3.590  19.200
 1182BOLB   C1B28353  20.240   3.640  20.050
 1182BOLB   C2B28354  20.020   3.900  19.800
 1182BOLB   C3B28355  20.050   4.280  19.650
 1182BOLB   C4B28356  20.270   4.400  19.360
 1182BOLB   NC228357  21.380   1.550  19.360
 1182BOLB   PO228358  21.710   1.820  19.170
 1182BOLB   GL328359  21.770   2.010  18.860
 1182BOLB   GL428360  21.830   2.420  18.970
 1182BOLB   C1C28361  21.600   2.170  18.520
 1182BOLB   C2C28362  21.370   2.440  18.670
 1182BOLB   C3C28363  21.360   2.810  18.780
 1182BOLB   C4C28364  21.450   3.210  18.980
 1182BOLB   C1D28365  21.860   2.800  18.690
 1182BOLB   C2D28366  21.990   3.200  18.670
 1182BOLB   C3D28367  21.730   3.490  18.590
 1182BOLB   C4D28368  21.360   3.620  18.440
 1183BOLB   NC128369  23.890   7.620  17.830
 1183BOLB   PO128370  24.270   7.510  17.940
 1183BOLB   GL128371  24.440   7.180  18.150
 1183BOLB   GL228372  24.680   6.900  17.970
 1183BOLB   C1A28373  24.720   7.020  18.440
 1183BOLB   C2A28374  25.060   6.780  18.760
 1183BOLB   C3A28375  25.510   6.810  18.900
 1183BOLB   C4A28376  25.920   6.590  19.090
 1183BOLB   C1B28377  24.930   6.530  18.240
 1183BOLB   C2B28378  25.320   6.470  18.500
 1183BOLB   C3B28379  25.430   6.330  18.930
 1183BOLB   C4B28380  25.550   5.940  19.130
 1183BOLB   NC228381  27.160   6.190  21.320
 1183BOLB   PO228382  27.040   5.860  21.140
 1183BOLB   GL328383  26.740   6.150  20.990
 1183BOLB   GL428384  26.850   6.400  20.990
 1183BOLB   C1C28385  26.660   6.120  20.580
 1183BOLB   C2C28386  26.630   6.020  20.170
 1183BOLB   C3C28387  26.330   6.080  19.780
 1183BOLB   C4C28388  26.200   6.420  19.380
 1183BOLB   C1D28389  26.870   6.680  20.590
 1183BOLB   C2D28390  27.120   6.790  20.220
 1183BOLB   C3D28391  26.960   7.090  19.890
 1183BOLB   C4D28392  26.660   7.130  19.620
 1184BOLB   NC128393  18.840  16.840   6.930
 1184BOLB   PO128394  19.280  16.780   6.870
 1184BOLB   GL128395  19.240  16.560   6.600
 1184BOLB   GL228396  19.030  16.390   6.500
 1184BOLB   C1A28397  19.440  16.720   6.180
 1184BOLB   C2A28398  19.300  16.860   5.800
 1184BOLB   C3A28399  19.460  16.990   5.450
 1184BOLB   C4A28400  19.360  16.900   5.070
 1184BOLB   C1B28401  18.970  16.440   6.110
 1184BOLB   C2B28402  19.100  16.230   5.770
 1184BOLB   C3B28403  18.920  16.110   5.370
 1184BOLB   C4B28404  19.050  16.080   4.930
 1184BOLB   NC228405  20.120  16.870   2.370
 1184BOLB   PO228406  20.190  17.260   2.620
 1184BOLB   GL328407  20.070  16.990   2.890
 1184BOLB   GL428408  20.190  16.760   3.030
 1184BOLB   C1C28409  19.800  17.020   3.260
 1184BOLB   C2C28410  19.800  16.880   3.690
 1184BOLB   C3C28411  19.640  16.970   4.190
 1184BOLB   C4C28412  19.400  16.970   4.570
 1184BOLB   C1D28413  20.270  16.670   3.440
 1184BOLB   C2D28414  20.200  16.800   3.900
 1184BOLB   C3D28415  20.010  16.630   4.180
 1184BOLB   C4D28416  19.620  16.520   4.390
 1185BOLB   NC128417  15.160   7.590  10.930
 1185BOLB   PO128418  15.550   7.750  10.910
 1185BOLB   GL128419  15.430   7.690  10.450
 1185BOLB   GL228420  15.690   7.730  10.240
 1185BOLB   C1A28421  15.150   7.450  10.210
 1185BOLB   C2A28422  14.860   7.360   9.860
 1185BOLB   C3A28423  14.490   7.300   9.580
 1185BOLB   C4A28424  14.020   7.450   9.360
 1185BOLB   C1B28425  15.700   7.280  10.230
 1185BOLB   C2B28426  15.360   6.940  10.310
 1185BOLB   C3B28427  15.110   6.940   9.860
 1185BOLB   C4B28428  14.820   6.750   9.620
 1185BOLB   NC228429  12.040   6.890   7.450
 1185BOLB   PO228430  12.000   6.850   7.940
 1185BOLB   GL328431  12.210   6.550   8.210
 1185BOLB   GL428432  11.950   6.700   8.450
 1185BOLB   C1C28433  12.660   6.560   8.480
 1185BOLB   C2C28434  13.090   6.690   8.610
 1185BOLB   C3C28435  13.280   6.960   9.000
 1185BOLB   C4C28436  13.600   7.360   9.140
 1185BOLB   C1D28437  12.090   6.930   8.810
 1185BOLB   C2D28438  12.190   6.910   9.210
 1185BOLB   C3D28439  12.070   6.920   9.610
 1185BOLB   C4D28440  12.060   6.880  10.090
 1186BOLB   NC128441  10.940  17.510  11.420
 1186BOLB   PO128442  10.730  17.510  11.770
 1186BOLB   GL128443  10.330  17.660  11.890
 1186BOLB   GL228444  10.340  18.030  11.990
 1186BOLB   C1A28445   9.990  17.890  11.750
 1186BOLB   C2A28446   9.800  18.090  11.440
 1186BOLB   C3A28447   9.690  18.040  10.950
 1186BOLB   C4A28448   9.260  17.920  10.960
 1186BOLB   C1B28449  10.010  18.340  11.960
 1186BOLB   C2B28450   9.640  18.720  12.140
 1186BOLB   C3B28451   9.310  18.870  11.980
 1186BOLB   C4B28452   9.170  18.840  11.610
 1186BOLB   NC228453   7.270  18.100  10.250
 1186BOLB   PO228454   7.490  18.210  10.040
 1186BOLB   GL328455   7.710  18.030  10.540
 1186BOLB   GL428456   7.500  17.810  10.730
 1186BOLB   C1C28457   8.040  17.890  10.830
 1186BOLB   C2C28458   8.210  17.850  11.190
 1186BOLB   C3C28459   8.480  17.480  11.320
 1186BOLB   C4C28460   8.800  17.710  11.180
 1186BOLB   C1D28461   7.740  17.440  10.710
 1186BOLB   C2D28462   8.110  17.410  11.000
 1186BOLB   C3D28463   8.540  17.640  10.760
 1186BOLB   C4D28464   8.920  17.640  10.560
 1187BOLB   NC128465  15.310  22.520  14.570
 1187BOLB   PO128466  15.710  22.870  14.580
 1187BOLB   GL128467  15.770  23.210  14.650
 1187BOLB   GL228468  16.030  23.290  14.920
 1187BOLB   C1A28469  15.610  23.620  14.620
 1187BOLB   C2A28470  15.390  24.010  14.410
 1187BOLB   C3A28471  15.370  24.420  14.340
 1187BOLB   C4A28472  15.270  24.730  14.210
 1187BOLB   C1B28473  16.050  23.570  15.270
 1187BOLB   C2B28474  15.900  23.740  15.790
 1187BOLB   C3B28475  15.530  23.810  16.120
 1187BOLB   C4B28476  15.160  23.900  16.300
 1187BOLB   NC228477  13.970  27.180  14.620
 1187BOLB   PO228478  13.970  26.810  14.910
 1187BOLB   GL328479  14.240  26.440  14.940
 1187BOLB   GL428480  14.070  26.250  15.230
 1187BOLB   C1C28481  14.280  26.010  14.790
 1187BOLB   C2C28482  14.630  25.830  14.630
 1187BOLB   C3C28483  15.000  25.640  14.530
 1187BOLB   C4C28484  15.130  25.210  14.310
 1187BOLB   C1D28485  14.200  25.850  15.330
 1187BOLB   C2D28486  14.420  25.550  15.070
 1187BOLB   C3D28487  14.560  25.240  14.730
 1187BOLB   C4D28488  14.620  24.990  14.290
 1188BOLB   NC128489  14.770  17.580   8.900
 1188BOLB   PO128490  14.660  17.600   8.490
 1188BOLB   GL128491  14.430  17.880   8.230
 1188BOLB   GL228492  14.180  18.070   8.260
 1188BOLB   C1A28493  14.510  18.080   7.730
 1188BOLB   C2A28494  14.490  18.130   7.290
 1188BOLB   C3A28495  14.540  18.140   6.850
 1188BOLB   C4A28496  14.490  18.080   6.470
 1188BOLB   C1B28497  14.050  18.150   7.850
 1188BOLB   C2B28498  13.850  18.330   7.410
 1188BOLB   C3B28499  13.460  18.620   7.230
 1188BOLB   C4B28500  13.100  18.690   7.280
 1188BOLB   NC228501  13.300  17.930   4.310
 1188BOLB   PO228502  13.670  18.200   4.110
 1188BOLB   GL328503  13.800  18.100   4.470
 1188BOLB   GL428504  14.090  18.070   4.470
 1188BOLB   C1C28505  13.840  18.120   4.940
 1188BOLB   C2C28506  13.990  18.320   5.340
 1188BOLB   C3C28507  14.310  18.270   5.710
 1188BOLB   C4C28508  14.290  18.130   6.120
 1188BOLB   C1D28509  14.260  17.900   4.900
 1188BOLB   C2D28510  14.350  17.890   5.340
 1188BOLB   C3D28511  14.480  17.810   5.830
 1188BOLB   C4D28512  14.890  17.920   6.140
 1189BOLB   NC128513  14.530  11.950   8.690
 1189BOLB   PO128514  14.050  12.060   8.720
 1189BOLB   GL128515  13.840  12.140   8.400
 1189BOLB   GL228516  13.900  11.730   8.360
 1189BOLB   C1A28517  13.670  12.010   7.910
 1189BOLB   C2A28518  13.380  12.140   7.570
 1189BOLB   C3A28519  13.130  12.140   7.160
 1189BOLB   C4A28520  13.200  11.820   6.830
 1189BOLB   C1B28521  13.660  11.340   8.300
 1189BOLB   C2B28522  13.560  11.160   7.950
 1189BOLB   C3B28523  13.360  10.890   7.650
 1189BOLB   C4B28524  13.160  10.480   7.690
 1189BOLB   NC228525  13.480  11.150   4.500
 1189BOLB   PO228526  13.360  10.810   4.730
 1189BOLB   GL328527  13.300  10.920   5.080
 1189BOLB   GL428528  13.520  11.190   5.020
 1189BOLB   C1C28529  13.360  10.970   5.510
 1189BOLB   C2C28530  13.190  11.100   5.730
 1189BOLB   C3C28531  13.310  11.390   6.090
 1189BOLB   C4C28532  13.130  11.470   6.510
 1189BOLB   C1D28533  13.830  10.970   5.340
 1189BOLB   C2D28534  13.820  11.070   5.770
 1189BOLB   C3D28535  13.590  10.990   6.140
 1189BOLB   C4D28536  13.630  11.260   6.450
 1190BOLB   NC128537  18.610  17.610   6.940
 1190BOLB   PO128538  18.850  17.280   7.010
 1190BOLB   GL128539  18.900  17.150   6.570
 1190BOLB   GL228540  18.830  17.390   6.310
 1190BOLB   C1A28541  18.960  16.960   6.160
 1190BOLB   C2A28542  18.810  16.970   5.710
 1190BOLB   C3A28543  18.530  17.230   5.430
 1190BOLB   C4A28544  18.120  17.340   5.210
 1190BOLB   C1B28545  18.980  17.400   5.950
 1190BOLB   C2B28546  19.080  17.350   5.530
 1190BOLB   C3B28547  18.900  17.390   5.200
 1190BOLB   C4B28548  18.530  17.450   4.870
 1190BOLB   NC228549  17.540  17.760   3.150
 1190BOLB   PO228550  17.330  17.410   3.410
 1190BOLB   GL328551  17.530  17.480   3.810
 1190BOLB   GL428552  17.860  17.550   3.920
 1190BOLB   C1C28553  17.470  17.460   4.240
 1190BOLB   C2C28554  17.500  17.750   4.480
 1190BOLB   C3C28555  17.590  17.640   4.910
 1190BOLB   C4C28556  18.000  17.540   4.830
 1190BOLB   C1D28557  17.970  17.420   4.330
 1190BOLB   C2D28558  18.140  17.130   4.660
 1190BOLB   C3D28559  18.470  16.980   4.930
 1190BOLB   C4D28560  18.820  16.870   5.210
 1191BOLB   NC128561  15.130  21.730  10.340
 1191BOLB   PO128562  14.780  21.460  10.430
 1191BOLB   GL128563  14.570  21.640  10.200
 1191BOLB   GL228564  14.510  21.920  10.250
 1191BOLB   C1A28565  14.430  21.730   9.720
 1191BOLB   C2A28566  14.400  22.050   9.640
 1191BOLB   C3A28567  14.710  22.370   9.620
 1191BOLB   C4A28568  14.780  22.830   9.630
 1191BOLB   C1B28569  14.310  22.290  10.330
 1191BOLB   C2B28570  14.070  22.560  10.190
 1191BOLB   C3B28571  13.700  22.540   9.930
 1191BOLB   C4B28572  13.460  22.710   9.590
 1191BOLB   NC228573  13.840  24.230   7.510
 1191BOLB   PO228574  13.880  24.600   7.580
 1191BOLB   GL328575  13.870  24.320   8.040
 1191BOLB   GL428576  13.710  24.370   8.310
 1191BOLB   C1C28577  14.160  23.940   8.260
 1191BOLB   C2C28578  14.300  23.680   8.630
 1191BOLB   C3C28579  14.480  23.400   9.000
 1191BOLB   C4C28580  14.660  23.140   9.350
 1191BOLB   C1D28581  13.870  24.150   8.650
 1191BOLB   C2D28582  14.020  23.980   9.020
 1191BOLB   C3D28583  14.200  23.790   9.220
 1191BOLB   C4D28584  14.520  23.670   9.430
 1192BOLB   NC128585  23.550   7.560  18.380
 1192BOLB   PO128586  23.900   7.400  18.270
 1192BOLB   GL128587  23.950   6.950  18.290
 1192BOLB   GL228588  24.150   6.770  18.090
 1192BOLB   C1A28589  23.980   6.570  18.550
 1192BOLB   C2A28590  24.210   6.170  18.620
 1192BOLB   C3A28591  24.140   5.760  18.580
 1192BOLB   C4A28592  24.060   5.320  18.670
 1192BOLB   C1B28593  24.450   6.600  18.340
 1192BOLB   C2B28594  24.610   6.540  18.690
 1192BOLB   C3B28595  24.830   6.280  18.890
 1192BOLB   C4B28596  25.100   5.950  18.820
 1192BOLB   NC228597  25.190   3.730  19.540
 1192BOLB   PO228598  24.900   3.420  19.530
 1192BOLB   GL328599  24.800   3.730  19.210
 1192BOLB   GL428600  25.020   3.690  18.990
 1192BOLB   C1C28601  24.440   3.880  19.010
 1192BOLB   C2C28602  24.120   4.220  18.930
 1192BOLB   C3C28603  24.100   4.440  18.530
 1192BOLB   C4C28604  24.070   4.960  18.420
 1192BOLB   C1D28605  24.890   4.070  18.790
 1192BOLB   C2D28606  24.630   4.370  18.590
 1192BOLB   C3D28607  24.850   4.720  18.470
 1192BOLB   C4D28608  24.900   5.120  18.200
 1193BOLB   NC128609  22.680  16.840   7.790
 1193BOLB   PO128610  22.540  16.980   7.430
 1193BOLB   GL128611  22.830  16.900   7.150
 1193BOLB   GL228612  23.000  16.640   6.930
 1193BOLB   C1A28613  22.800  17.070   6.800
 1193BOLB   C2A28614  23.010  17.200   6.470
 1193BOLB   C3A28615  23.150  17.350   6.170
 1193BOLB   C4A28616  23.200  17.500   5.800
 1193BOLB   C1B28617  23.320  16.600   6.580
 1193BOLB   C2B28618  23.340  16.900   6.230
 1193BOLB   C3B28619  23.490  17.120   5.890
 1193BOLB   C4B28620  23.480  17.200   5.430
 1193BOLB   NC228621  22.960  17.970   3.190
 1193BOLB   PO228622  22.980  17.580   3.150
 1193BOLB   GL328623  23.010  17.740   3.640
 1193BOLB   GL428624  22.890  17.430   3.780
 1193BOLB   C1C28625  23.010  17.840   4.040
 1193BOLB   C2C28626  23.010  17.700   4.500
 1193BOLB   C3C28627  22.920  17.680   4.900
 1193BOLB   C4C28628  23.150  17.590   5.300
 1193BOLB   C1D28629  23.200  17.370   4.090
 1193BOLB   C2D28630  23.280  17.240   4.500
 1193BOLB   C3D28631  23.280  17.190   4.860
 1193BOLB   C4D28632  23.250  16.850   5.150
 1194BOLB   NC128633  14.060  16.470   7.780
 1194BOLB   PO128634  13.950  16.130   8.030
 1194BOLB   GL128635  13.750  16.000   7.640
 1194BOLB   GL228636  13.620  16.270   7.520
 1194BOLB   C1A28637  13.730  15.880   7.250
 1194BOLB   C2A28638  13.760  15.540   7.040
 1194BOLB   C3A28639  13.920  15.450   6.590
 1194BOLB   C4A28640  13.630  15.330   6.290
 1194BOLB   C1B28641  13.840  16.430   7.170
 1194BOLB   C2B28642  13.740  16.470   6.750
 1194BOLB   C3B28643  13.370  16.310   6.400
 1194BOLB   C4B28644  12.880  16.500   6.260
 1194BOLB   NC228645  12.440  15.660   4.300
 1194BOLB   PO228646  12.390  16.060   4.540
 1194BOLB   GL328647  12.800  16.120   4.670
 1194BOLB   GL428648  12.740  16.410   4.850
 1194BOLB   C1C28649  13.050  15.870   4.930
 1194BOLB   C2C28650  13.250  15.720   5.220
 1194BOLB   C3C28651  13.600  15.380   5.450
 1194BOLB   C4C28652  13.680  15.290   5.820
 1194BOLB   C1D28653  12.680  16.680   5.160
 1194BOLB   C2D28654  12.380  16.750   5.500
 1194BOLB   C3D28655  12.690  16.880   5.970
 1194BOLB   C4D28656  12.600  17.220   6.320
 1195BOLB   NC128657  27.260  15.190  10.670
 1195BOLB   PO128658  27.020  15.530  10.410
 1195BOLB   GL128659  27.380  15.440  10.180
 1195BOLB   GL228660  27.530  15.250  10.210
 1195BOLB   C1A28661  27.910  15.560  10.170
 1195BOLB   C2A28662  28.280  15.490  10.090
 1195BOLB   C3A28663  28.580  15.450   9.780
 1195BOLB   C4A28664  28.500  15.760   9.370
 1195BOLB   C1B28665  27.930  15.050   9.990
 1195BOLB   C2B28666  28.200  14.860   9.680
 1195BOLB   C3B28667  28.710  14.930   9.660
 1195BOLB   C4B28668  29.150  15.120   9.680
 1195BOLB   NC228669  30.160  16.060   8.190
 1195BOLB   PO228670  30.270  15.760   7.930
 1195BOLB   GL328671  29.910  15.690   7.920
 1195BOLB   GL428672  29.770  15.630   7.680
 1195BOLB   C1C28673  29.560  15.680   8.200
 1195BOLB   C2C28674  29.280  15.800   8.520
 1195BOLB   C3C28675  29.070  15.610   8.860
 1195BOLB   C4C28676  28.810  15.860   9.060
 1195BOLB   C1D28677  29.280  15.600   7.830
 1195BOLB   C2D28678  28.900  15.570   7.880
 1195BOLB   C3D28679  28.530  15.480   7.970
 1195BOLB   C4D28680  28.320  15.340   8.330
 1196BOLB   NC128681  20.620  17.870   7.770
 1196BOLB   PO128682  20.670  18.320   7.720
 1196BOLB   GL128683  20.590  18.620   7.400
 1196BOLB   GL228684  20.500  18.530   7.130
 1196BOLB   C1A28685  20.750  18.980   7.010
 1196BOLB   C2A28686  20.500  18.970   6.550
 1196BOLB   C3A28687  20.800  18.890   6.200
 1196BOLB   C4A28688  21.050  19.110   5.920
 1196BOLB   C1B28689  20.540  18.300   6.740
 1196BOLB   C2B28690  20.540  18.350   6.350
 1196BOLB   C3B28691  20.510  18.150   5.950
 1196BOLB   C4B28692  20.580  18.280   5.380
 1196BOLB   NC228693  22.100  19.490   3.660
 1196BOLB   PO228694  21.760  19.350   3.520
 1196BOLB   GL328695  21.760  19.080   3.830
 1196BOLB   GL428696  21.860  18.750   3.760
 1196BOLB   C1C28697  21.620  19.170   4.270
 1196BOLB   C2C28698  21.540  19.170   4.800
 1196BOLB   C3C28699  21.550  19.300   5.230
 1196BOLB   C4C28700  21.410  19.240   5.670
 1196BOLB   C1D28701  21.700  18.650   4.190
 1196BOLB   C2D28702  21.740  18.760   4.670
 1196BOLB   C3D28703  21.830  18.850   5.110
 1196BOLB   C4D28704  21.730  18.810   5.530
 1197BOLB   NC128705  24.240   9.470   9.460
 1197BOLB   PO128706  23.890   9.260   9.290
 1197BOLB   GL128707  23.890   9.070   8.980
 1197BOLB   GL228708  24.010   8.800   9.080
 1197BOLB   C1A28709  23.900   8.930   8.590
 1197BOLB   C2A28710  24.110   8.920   8.210
 1197BOLB   C3A28711  24.200   8.890   7.800
 1197BOLB   C4A28712  24.350   8.890   7.330
 1197BOLB   C1B28713  24.350   8.590   8.750
 1197BOLB   C2B28714  24.700   8.300   8.890
 1197BOLB   C3B28715  25.020   8.170   8.730
 1197BOLB   C4B28716  25.340   8.300   8.430
 1197BOLB   NC228717  24.990   8.270   4.960
 1197BOLB   PO228718  24.630   8.310   4.840
 1197BOLB   GL328719  24.610   8.450   5.310
 1197BOLB   GL428720  24.620   8.140   5.470
 1197BOLB   C1C28721  24.530   8.540   5.790
 1197BOLB   C2C28722  24.610   8.600   6.150
 1197BOLB   C3C28723  24.570   8.760   6.610
 1197BOLB   C4C28724  24.550   8.870   6.960
 1197BOLB   C1D28725  24.510   8.080   5.910
 1197BOLB   C2D28726  24.370   8.190   6.270
 1197BOLB   C3D28727  24.330   8.260   6.640
 1197BOLB   C4D28728  24.100   8.550   6.970
 1198BOLB   NC128729  20.030  23.330  11.130
 1198BOLB   PO128730  20.210  23.070  10.760
 1198BOLB   GL128731  20.500  23.290  10.360
 1198BOLB   GL228732  20.480  23.560  10.200
 1198BOLB   C1A28733  20.930  23.340  10.220
 1198BOLB   C2A28734  21.250  23.650  10.220
 1198BOLB   C3A28735  21.180  24.180  10.050
 1198BOLB   C4A28736  21.250  24.570   9.900
 1198BOLB   C1B28737  20.800  23.840   9.910
 1198BOLB   C2B28738  21.240  23.680   9.750
 1198BOLB   C3B28739  21.590  23.720   9.630
 1198BOLB   C4B28740  22.010  23.930   9.810
 1198BOLB   NC228741  21.350  27.050  10.290
 1198BOLB   PO228742  20.990  26.890  10.050
 1198BOLB   GL328743  21.070  26.450   9.890
 1198BOLB   GL428744  20.880  26.250  10.220
 1198BOLB   C1C28745  21.250  26.010   9.710
 1198BOLB   C2C28746  21.190  25.670   9.660
 1198BOLB   C3C28747  21.370  25.370   9.590
 1198BOLB   C4C28748  21.360  25.000   9.700
 1198BOLB   C1D28749  20.790  25.930   9.920
 1198BOLB   C2D28750  20.700  25.430  10.010
 1198BOLB   C3D28751  20.460  25.030  10.030
 1198BOLB   C4D28752  20.200  24.580   9.950
 1199BOLB   NC128753  17.000  15.930   7.310
 1199BOLB   PO128754  16.570  15.890   7.520
 1199BOLB   GL128755  16.590  15.700   6.960
 1199BOLB   GL228756  16.340  15.830   6.760
 1199BOLB   C1A28757  16.850  15.880   6.620
 1199BOLB   C2A28758  16.890  15.940   6.230
 1199BOLB   C3A28759  17.020  15.650   5.860
 1199BOLB   C4A28760  17.100  15.460   5.430
 1199BOLB   C1B28761  16.050  15.880   6.400
 1199BOLB   C2B28762  16.000  15.950   6.000
 1199BOLB   C3B28763  16.030  15.730   5.620
 1199BOLB   C4B28764  16.010  15.640   5.300
 1199BOLB   NC228765  17.590  15.580   3.270
 1199BOLB   PO228766  17.440  15.210   3.400
 1199BOLB   GL328767  17.620  15.320   3.750
 1199BOLB   GL428768  17.910  15.540   3.690
 1199BOLB   C1C28769  17.530  15.480   4.080
 1199BOLB   C2C28770  17.330  15.490   4.460
 1199BOLB   C3C28771  17.050  15.640   4.630
 1199BOLB   C4C28772  16.950  15.690   5.030
 1199BOLB   C1D28773  18.030  15.340   4.030
 1199BOLB   C2D28774  18.250  15.160   4.410
 1199BOLB   C3D28775  18.190  15.010   4.740
 1199BOLB   C4D28776  18.360  15.060   5.070
 1200BOLB   NC128777  24.520  12.190   8.510
 1200BOLB   PO128778  24.580  12.580   8.240
 1200BOLB   GL128779  24.830  12.480   7.850
 1200BOLB   GL228780  25.070  12.750   7.770
 1200BOLB   C1A28781  25.030  12.320   7.460
 1200BOLB   C2A28782  25.200  12.090   7.170
 1200BOLB   C3A28783  25.140  11.930   6.720
 1200BOLB   C4A28784  25.280  11.830   6.210
 1200BOLB   C1B28785  25.490  12.710   7.670
 1200BOLB   C2B28786  25.560  12.510   7.330
 1200BOLB   C3B28787  25.540  12.590   6.850
 1200BOLB   C4B28788  25.700  12.730   6.440
 1200BOLB   NC228789  25.410  11.630   3.800
 1200BOLB   PO228790  25.060  11.970   3.860
 1200BOLB   GL328791  25.110  12.040   4.220
 1200BOLB   GL428792  25.430  11.880   4.290
 1200BOLB   C1C28793  25.240  12.230   4.580
 1200BOLB   C2C28794  25.390  12.220   5.040
 1200BOLB   C3C28795  25.640  12.090   5.380
 1200BOLB   C4C28796  25.490  11.910   5.810
 1200BOLB   C1D28797  25.420  11.670   4.650
 1200BOLB   C2D28798  25.340  11.620   5.010
 1200BOLB   C3D28799  25.180  11.830   5.320
 1200BOLB   C4D28800  25.030  12.020   5.820
 1201BOLB   NC128801  13.550  12.680   9.060
 1201BOLB   PO128802  13.110  12.580   9.240
 1201BOLB   GL128803  12.860  12.320   8.870
 1201BOLB   GL228804  12.670  12.090   9.020
 1201BOLB   C1A28805  12.640  12.260   8.510
 1201BOLB   C2A28806  12.590  12.280   8.120
 1201BOLB   C3A28807  12.740  12.180   7.680
 1201BOLB   C4A28808  12.740  11.930   7.370
 1201BOLB   C1B28809  12.290  11.970   9.020
 1201BOLB   C2B28810  11.940  11.900   8.800
 1201BOLB   C3B28811  11.640  11.710   8.440
 1201BOLB   C4B28812  11.370  11.350   8.350
 1201BOLB   NC228813  12.310  11.000   5.320
 1201BOLB   PO228814  12.330  11.270   4.940
 1201BOLB   GL328815  12.560  11.420   5.260
 1201BOLB   GL428816  12.250  11.570   5.420
 1201BOLB   C1C28817  12.650  11.380   5.670
 1201BOLB   C2C28818  12.770  11.430   6.040
 1201BOLB   C3C28819  12.640  11.700   6.510
 1201BOLB   C4C28820  12.630  11.940   6.900
 1201BOLB   C1D28821  12.410  11.880   5.790
 1201BOLB   C2D28822  12.380  12.010   6.150
 1201BOLB   C3D28823  12.270  12.130   6.570
 1201BOLB   C4D28824  12.500  12.540   6.760
 1202BOLB   NC128825  21.380  15.730   7.460
 1202BOLB   PO128826  21.840  15.890   7.270
 1202BOLB   GL128827  22.170  16.070   6.980
 1202BOLB   GL228828  22.390  15.890   6.940
 1202BOLB   C1A28829  22.240  16.320   6.760
 1202BOLB   C2A28830  22.290  16.500   6.290
 1202BOLB   C3A28831  22.480  16.480   5.860
 1202BOLB   C4A28832  22.590  16.720   5.550
 1202BOLB   C1B28833  22.520  15.970   6.490
 1202BOLB   C2B28834  22.690  16.220   6.240
 1202BOLB   C3B28835  22.960  16.170   5.830
 1202BOLB   C4B28836  23.300  16.130   5.480
 1202BOLB   NC228837  23.650  17.050   3.060
 1202BOLB   PO228838  23.310  16.790   3.420
 1202BOLB   GL328839  22.990  16.940   3.780
 1202BOLB   GL428840  22.680  16.870   3.860
 1202BOLB   C1C28841  22.870  17.000   4.280
 1202BOLB   C2C28842  22.790  17.140   4.680
 1202BOLB   C3C28843  22.700  17.300   5.100
 1202BOLB   C4C28844  22.460  17.250   5.410
 1202BOLB   C1D28845  22.440  16.850   4.160
 1202BOLB   C2D28846  22.260  16.950   4.530
 1202BOLB   C3D28847  22.360  16.850   4.890
 1202BOLB   C4D28848  22.750  16.790   5.070
 1203BOLB   NC128849  19.020  21.320   8.670
 1203BOLB   PO128850  18.550  21.350   8.590
 1203BOLB   GL128851  18.630  21.320   8.120
 1203BOLB   GL228852  19.030  21.280   8.030
 1203BOLB   C1A28853  18.610  21.770   7.910
 1203BOLB   C2A28854  18.630  22.110   7.580
 1203BOLB   C3A28855  18.640  22.370   7.360
 1203BOLB   C4A28856  18.570  22.690   7.060
 1203BOLB   C1B28857  19.080  21.770   7.830
 1203BOLB   C2B28858  19.160  22.110   7.550
 1203BOLB   C3B28859  19.120  22.310   7.170
 1203BOLB   C4B28860  19.240  22.730   6.880
 1203BOLB   NC228861  17.990  25.070   5.840
 1203BOLB   PO228862  18.140  24.820   6.250
 1203BOLB   GL328863  18.070  24.340   6.310
 1203BOLB   GL428864  17.840  24.370   6.610
 1203BOLB   C1C28865  18.120  23.970   6.510
 1203BOLB   C2C28866  18.330  23.660   6.460
 1203BOLB   C3C28867  18.290  23.330   6.650
 1203BOLB   C4C28868  18.520  23.000   6.750
 1203BOLB   C1D28869  17.850  24.040   7.000
 1203BOLB   C2D28870  18.010  23.950   7.400
 1203BOLB   C3D28871  18.330  23.660   7.600
 1203BOLB   C4D28872  18.430  23.490   8.050
 1204BOLB   NC128873  25.020   7.990  11.020
 1204BOLB   PO128874  25.110   7.660  10.680
 1204BOLB   GL128875  25.100   7.380  10.300
 1204BOLB   GL228876  25.150   7.650  10.130
 1204BOLB   C1A28877  25.240   7.040  10.060
 1204BOLB   C2A28878  25.710   7.040   9.860
 1204BOLB   C3A28879  25.900   6.660   9.720
 1204BOLB   C4A28880  26.230   6.600   9.400
 1204BOLB   C1B28881  25.530   7.610  10.070
 1204BOLB   C2B28882  25.910   7.520   9.780
 1204BOLB   C3B28883  26.200   7.160   9.840
 1204BOLB   C4B28884  26.350   6.700   9.970
 1204BOLB   NC228885  28.190   5.010   8.700
 1204BOLB   PO228886  28.020   5.490   8.670
 1204BOLB   GL328887  27.690   5.710   8.620
 1204BOLB   GL428888  27.350   5.610   8.470
 1204BOLB   C1C28889  27.410   6.110   8.690
 1204BOLB   C2C28890  26.980   6.360   8.690
 1204BOLB   C3C28891  26.720   6.440   8.950
 1204BOLB   C4C28892  26.350   6.510   9.070
 1204BOLB   C1D28893  27.010   5.800   8.660
 1204BOLB   C2D28894  26.610   5.800   8.840
 1204BOLB   C3D28895  26.410   5.830   9.210
 1204BOLB   C4D28896  26.350   5.490   9.460
 1205BOLB   NC128897  20.930  14.530   7.690
 1205BOLB   PO128898  20.950  14.710   7.280
 1205BOLB   GL128899  20.980  15.010   6.910
 1205BOLB   GL228900  21.290  14.970   6.800
 1205BOLB   C1A28901  20.910  15.000   6.500
 1205BOLB   C2A28902  20.600  15.160   6.170
 1205BOLB   C3A28903  20.270  15.270   5.800
 1205BOLB   C4A28904  20.150  15.170   5.360
 1205BOLB   C1B28905  21.390  15.050   6.340
 1205BOLB   C2B28906  21.230  15.100   5.990
 1205BOLB   C3B28907  20.930  15.180   5.630
 1205BOLB   C4B28908  20.920  15.510   5.430
 1205BOLB   NC228909  20.190  15.690   2.930
 1205BOLB   PO228910  20.170  15.220   3.100
 1205BOLB   GL328911  20.140  14.930   3.350
 1205BOLB   GL428912  20.410  14.970   3.490
 1205BOLB   C1C28913  20.030  14.940   3.820
 1205BOLB   C2C28914  20.280  14.960   4.200
 1205BOLB   C3C28915  20.320  15.030   4.570
 1205BOLB   C4C28916  20.210  14.960   4.970
 1205BOLB   C1D28917  20.550  15.250   3.810
 1205BOLB   C2D28918  20.500  15.430   4.220
 1205BOLB   C3D28919  20.660  15.350   4.690
 1205BOLB   C4D28920  20.660  15.150   5.120
 1206BOLB   NC128921  11.400  15.590  10.580
 1206BOLB   PO128922  11.150  15.190  10.730
 1206BOLB   GL128923  10.830  15.140  10.650
 1206BOLB   GL228924  10.570  15.360  10.800
 1206BOLB   C1A28925  10.520  15.090  10.340
 1206BOLB   C2A28926  10.210  14.920  10.280
 1206BOLB   C3A28927   9.800  14.820  10.510
 1206BOLB   C4A28928   9.330  14.730  10.270
 1206BOLB   C1B28929  10.280  15.690  11.020
 1206BOLB   C2B28930  10.230  16.190  11.110
 1206BOLB   C3B28931   9.950  16.540  11.030
 1206BOLB   C4B28932   9.800  17.040  11.030
 1206BOLB   NC228933   6.920  15.190   9.560
 1206BOLB   PO228934   7.200  14.890   9.540
 1206BOLB   GL328935   7.710  14.870   9.560
 1206BOLB   GL428936   7.860  15.150   9.530
 1206BOLB   C1C28937   8.050  14.720   9.900
 1206BOLB   C2C28938   8.300  14.520  10.150
 1206BOLB   C3C28939   8.670  14.390  10.320
 1206BOLB   C4C28940   8.960  14.730  10.450
 1206BOLB   C1D28941   8.180  15.070   9.530
 1206BOLB   C2D28942   8.690  15.090   9.650
 1206BOLB   C3D28943   9.010  15.300   9.560
 1206BOLB   C4D28944   9.380  15.450   9.830
 1207BOLB   NC128945  15.260  15.850   7.280
 1207BOLB   PO128946  15.270  16.200   7.390
 1207BOLB   GL128947  15.010  16.320   7.020
 1207BOLB   GL228948  14.690  16.320   7.170
 1207BOLB   C1A28949  15.050  16.510   6.660
 1207BOLB   C2A28950  14.780  16.470   6.360
 1207BOLB   C3A28951  14.610  16.780   6.080
 1207BOLB   C4A28952  14.500  17.180   6.130
 1207BOLB   C1B28953  14.460  16.360   6.760
 1207BOLB   C2B28954  14.380  16.130   6.440
 1207BOLB   C3B28955  14.320  16.260   6.020
 1207BOLB   C4B28956  14.480  15.960   5.730
 1207BOLB   NC228957  13.940  16.860   3.490
 1207BOLB   PO228958  13.800  16.790   3.900
 1207BOLB   GL328959  13.920  16.690   4.270
 1207BOLB   GL428960  14.230  16.500   4.400
 1207BOLB   C1C28961  14.010  16.910   4.600
 1207BOLB   C2C28962  14.160  17.250   4.900
 1207BOLB   C3C28963  14.280  17.350   5.340
 1207BOLB   C4C28964  14.290  17.330   5.760
 1207BOLB   C1D28965  14.360  16.340   4.790
 1207BOLB   C2D28966  14.610  16.110   5.160
 1207BOLB   C3D28967  14.970  15.820   5.120
 1207BOLB   C4D28968  15.170  15.500   5.220
 1208BOLB   NC128969  12.000  18.350  10.320
 1208BOLB   PO128970  12.480  18.510  10.140
 1208BOLB   GL128971  12.160  18.470   9.740
 1208BOLB   GL228972  11.880  18.450   9.830
 1208BOLB   C1A28973  12.010  18.660   9.450
 1208BOLB   C2A28974  11.720  18.460   9.080
 1208BOLB   C3A28975  11.330  18.360   8.870
 1208BOLB   C4A28976  10.910  18.530   8.780
 1208BOLB   C1B28977  11.550  18.520   9.640
 1208BOLB   C2B28978  11.200  18.740   9.770
 1208BOLB   C3B28979  10.990  19.120   9.600
 1208BOLB   C4B28980  10.590  19.310   9.590
 1208BOLB   NC228981   9.660  19.820   7.430
 1208BOLB   PO228982   9.590  19.910   7.810
 1208BOLB   GL328983   9.710  19.660   8.060
 1208BOLB   GL428984   9.780  19.490   8.400
 1208BOLB   C1C28985   9.920  19.220   7.940
 1208BOLB   C2C28986  10.310  19.100   8.030
 1208BOLB   C3C28987  10.400  18.850   8.250
 1208BOLB   C4C28988  10.660  18.680   8.570
 1208BOLB   C1D28989   9.980  19.630   8.720
 1208BOLB   C2D28990  10.220  19.970   8.880
 1208BOLB   C3D28991  10.360  19.860   9.360
 1208BOLB   C4D28992  10.730  20.070   9.510
 1209BOLB   NC128993  15.560  15.050   7.730
 1209BOLB   PO128994  15.160  14.880   7.990
 1209BOLB   GL128995  14.970  14.990   7.540
 1209BOLB   GL228996  14.770  15.220   7.540
 1209BOLB   C1A28997  14.780  14.620   7.220
 1209BOLB   C2A28998  14.500  14.570   6.880
 1209BOLB   C3A28999  14.500  14.620   6.450
 1209BOLB   C4A29000  14.620  14.400   6.110
 1209BOLB   C1B29001  14.640  15.190   7.140
 1209BOLB   C2B29002  14.470  15.050   6.800
 1209BOLB   C3B29003  14.290  15.160   6.420
 1209BOLB   C4B29004  14.150  14.940   6.080
 1209BOLB   NC229005  13.430  14.520   4.120
 1209BOLB   PO229006  13.880  14.510   4.040
 1209BOLB   GL329007  14.270  14.320   4.290
 1209BOLB   GL429008  14.670  14.330   4.110
 1209BOLB   C1C29009  14.540  14.410   4.600
 1209BOLB   C2C29010  14.600  14.710   4.900
 1209BOLB   C3C29011  14.640  14.470   5.310
 1209BOLB   C4C29012  14.590  14.270   5.700
 1209BOLB   C1D29013  14.660  13.960   4.440
 1209BOLB   C2D29014  14.600  13.610   4.780
 1209BOLB   C3D29015  14.270  13.660   5.120
 1209BOLB   C4D29016  14.180  13.950   5.420
 1210BOLB   NC129017  18.620  22.150   9.260
 1210BOLB   PO129018  19.000  22.310   9.070
 1210BOLB   GL129019  19.080  22.640   8.680
 1210BOLB   GL229020  18.970  22.880   8.760
 1210BOLB   C1A29021  19.180  22.670   8.220
 1210BOLB   C2A29022  19.070  22.950   7.860
 1210BOLB   C3A29023  18.740  23.210   7.670
 1210BOLB   C4A29024  18.470  23.370   7.290
 1210BOLB   C1B29025  19.180  23.170   8.510
 1210BOLB   C2B29026  19.410  23.230   8.100
 1210BOLB   C3B29027  19.210  23.450   7.740
 1210BOLB   C4B29028  19.370  23.510   7.360
 1210BOLB   NC229029  17.040  24.760   5.730
 1210BOLB   PO229030  17.180  24.310   5.760
 1210BOLB   GL329031  17.170  24.010   5.980
 1210BOLB   GL429032  16.980  23.810   5.900
 1210BOLB   C1C29033  17.460  23.630   6.090
 1210BOLB   C2C29034  17.720  23.550   6.390
 1210BOLB   C3C29035  17.830  23.590   6.780
 1210BOLB   C4C29036  18.120  23.580   7.090
 1210BOLB   C1D29037  16.980  23.770   6.340
 1210BOLB   C2D29038  17.120  23.510   6.630
 1210BOLB   C3D29039  17.410  23.300   6.900
 1210BOLB   C4D29040  17.280  23.270   7.310
 1211BOLB   NC129041  14.940  21.670  15.490
 1211BOLB   PO129042  14.560  22.000  15.670
 1211BOLB   GL129043  14.200  22.140  15.740
 1211BOLB   GL229044  14.210  22.340  15.930
 1211BOLB   C1A29045  13.740  22.130  15.700
 1211BOLB   C2A29046  13.330  22.190  15.920
 1211BOLB   C3A29047  12.870  22.080  15.970
 1211BOLB   C4A29048  12.530  22.320  16.150
 1211BOLB   C1B29049  13.910  22.570  15.960
 1211BOLB   C2B29050  13.580  22.480  16.300
 1211BOLB   C3B29051  13.550  22.520  16.700
 1211BOLB   C4B29052  13.760  22.180  16.860
 1211BOLB   NC229053  10.240  24.030  16.140
 1211BOLB   PO229054  10.450  23.780  16.400
 1211BOLB   GL329055  10.740  23.420  16.250
 1211BOLB   GL429056  10.730  23.170  16.470
 1211BOLB   C1C29057  11.120  23.430  16.220
 1211BOLB   C2C29058  11.480  23.240  16.180
 1211BOLB   C3C29059  11.850  22.930  16.090
 1211BOLB   C4C29060  12.120  22.570  16.090
 1211BOLB   C1D29061  10.900  22.740  16.340
 1211BOLB   C2D29062  10.980  22.340  16.130
 1211BOLB   C3D29063  10.960  21.890  16.100
 1211BOLB   C4D29064  11.130  21.510  16.190
 1212BOLB   NC129065  19.310  10.920   7.730
 1212BOLB   PO129066  19.070  11.270   7.790
 1212BOLB   GL129067  19.140  11.260   7.360
 1212BOLB   GL229068  19.460  11.170   7.260
 1212BOLB   C1A29069  19.230  11.430   6.890
 1212BOLB   C2A29070  19.340  11.210   6.450
 1212BOLB   C3A29071  19.160  11.020   6.030
 1212BOLB   C4A29072  19.240  10.620   5.830
 1212BOLB   C1B29073  19.370  10.880   6.850
 1212BOLB   C2B29074  19.310  10.650   6.650
 1212BOLB   C3B29075  19.090  10.280   6.340
 1212BOLB   C4B29076  19.120  10.150   5.870
 1212BOLB   NC229077  19.320  10.270   3.520
 1212BOLB   PO229078  19.380  10.060   3.970
 1212BOLB   GL329079  19.640  10.060   4.210
 1212BOLB   GL429080  19.750  10.340   4.370
 1212BOLB   C1C29081  19.980   9.960   4.500
 1212BOLB   C2C29082  19.980  10.180   4.920
 1212BOLB   C3C29083  19.610  10.120   5.100
 1212BOLB   C4C29084  19.340  10.360   5.420
 1212BOLB   C1D29085  19.530  10.410   4.670
 1212BOLB   C2D29086  19.530  10.650   5.010
 1212BOLB   C3D29087  19.520  10.830   5.410
 1212BOLB   C4D29088  19.310  11.160   5.590
 1213BOLB   NC129089  21.180   5.100  14.940
 1213BOLB   PO129090  20.790   5.010  14.660
 1213BOLB   GL129091  20.900   4.640  14.950
 1213BOLB   GL229092  21.170   4.640  15.210
 1213BOLB   C1A29093  21.000   4.180  15.100
 1213BOLB   C2A29094  21.170   3.800  14.980
 1213BOLB   C3A29095  21.120   3.360  14.870
 1213BOLB   C4A29096  21.020   2.850  15.010
 1213BOLB   C1B29097  21.450   4.340  15.440
 1213BOLB   C2B29098  21.690   3.970  15.350
 1213BOLB   C3B29099  21.790   3.590  15.390
 1213BOLB   C4B29100  21.780   3.210  15.480
 1213BOLB   NC229101  20.780   1.350  16.420
 1213BOLB   PO229102  21.140   1.160  16.280
 1213BOLB   GL329103  21.130   1.530  16.110
 1213BOLB   GL429104  21.280   1.730  16.170
 1213BOLB   C1C29105  21.270   1.780  15.700
 1213BOLB   C2C29106  21.420   2.110  15.390
 1213BOLB   C3C29107  21.730   2.440  15.250
 1213BOLB   C4C29108  21.530   2.800  15.080
 1213BOLB   C1D29109  21.630   1.770  16.030
 1213BOLB   C2D29110  21.750   1.660  15.590
 1213BOLB   C3D29111  21.480   1.660  15.230
 1213BOLB   C4D29112  21.550   1.930  14.880
 1214BOLB   NC129113  19.890   5.530  17.060
 1214BOLB   PO129114  20.130   5.500  16.660
 1214BOLB   GL129115  20.150   5.130  16.810
 1214BOLB   GL229116  20.110   5.010  17.130
 1214BOLB   C1A29117  20.130   4.630  16.820
 1214BOLB   C2A29118  20.290   4.270  16.880
 1214BOLB   C3A29119  20.530   3.940  16.940
 1214BOLB   C4A29120  20.660   3.480  16.880
 1214BOLB   C1B29121  20.250   4.710  17.370
 1214BOLB   C2B29122  20.560   4.350  17.360
 1214BOLB   C3B29123  20.700   3.820  17.410
 1214BOLB   C4B29124  20.920   3.500  17.610
 1214BOLB   NC229125  19.360   1.570  17.130
 1214BOLB   PO229126  19.770   1.350  17.130
 1214BOLB   GL329127  19.880   1.750  17.140
 1214BOLB   GL429128  19.880   1.920  17.360
 1214BOLB   C1C29129  20.170   2.090  17.040
 1214BOLB   C2C29130  20.460   2.420  16.700
 1214BOLB   C3C29131  20.660   2.710  16.560
 1214BOLB   C4C29132  20.730   3.050  16.740
 1214BOLB   C1D29133  19.730   2.200  17.030
 1214BOLB   C2D29134  19.870   2.470  16.800
 1214BOLB   C3D29135  20.010   2.690  16.500
 1214BOLB   C4D29136  19.960   2.900  16.060
 1215BOLB   NC129137  22.610  22.590  11.800
 1215BOLB   PO129138  23.020  22.600  12.010
 1215BOLB   GL129139  22.990  22.840  11.690
 1215BOLB   GL229140  23.000  22.590  11.450
 1215BOLB   C1A29141  23.090  23.300  11.510
 1215BOLB   C2A29142  23.230  23.660  11.300
 1215BOLB   C3A29143  23.470  24.000  11.340
 1215BOLB   C4A29144  23.870  24.100  11.290
 1215BOLB   C1B29145  23.360  22.770  11.200
 1215BOLB   C2B29146  23.500  23.190  11.210
 1215BOLB   C3B29147  23.770  23.480  11.180
 1215BOLB   C4B29148  24.200  23.590  11.250
 1215BOLB   NC229149  25.940  25.670  12.000
 1215BOLB   PO229150  25.520  25.530  11.840
 1215BOLB   GL329151  25.300  25.230  11.930
 1215BOLB   GL429152  25.040  25.140  11.770
 1215BOLB   C1C29153  25.370  24.780  11.770
 1215BOLB   C2C29154  25.030  24.410  11.590
 1215BOLB   C3C29155  24.690  24.060  11.420
 1215BOLB   C4C29156  24.300  24.070  11.210
 1215BOLB   C1D29157  24.570  25.170  11.760
 1215BOLB   C2D29158  24.210  24.950  11.860
 1215BOLB   C3D29159  23.910  25.140  12.140
 1215BOLB   C4D29160  23.570  25.190  12.530
 1216BOLB   NC129161  15.860  23.220  11.330
 1216BOLB   PO129162  15.600  22.870  11.220
 1216BOLB   GL129163  15.350  23.290  11.310
 1216BOLB   GL229164  15.250  23.270  11.690
 1216BOLB   C1A29165  14.910  23.380  11.320
 1216BOLB   C2A29166  14.510  23.600  11.230
 1216BOLB   C3A29167  14.260  23.870  10.940
 1216BOLB   C4A29168  14.470  24.240  10.720
 1216BOLB   C1B29169  15.300  23.580  11.990
 1216BOLB   C2B29170  15.380  23.980  11.970
 1216BOLB   C3B29171  15.550  24.290  12.090
 1216BOLB   C4B29172  15.610  24.720  12.150
 1216BOLB   NC229173  13.580  25.840   9.640
 1216BOLB   PO229174  13.950  26.060   9.870
 1216BOLB   GL329175  14.020  25.700   9.570
 1216BOLB   GL429176  14.170  25.870   9.380
 1216BOLB   C1C29177  14.170  25.310   9.660
 1216BOLB   C2C29178  14.350  25.060   9.980
 1216BOLB   C3C29179  14.550  24.940  10.370
 1216BOLB   C4C29180  14.690  24.590  10.500
 1216BOLB   C1D29181  14.520  25.630   9.500
 1216BOLB   C2D29182  14.690  25.360   9.710
 1216BOLB   C3D29183  14.930  25.040   9.780
 1216BOLB   C4D29184  15.330  24.820   9.830
 1217BOLB   NC129185  18.920   8.720   9.580
 1217BOLB   PO129186  18.770   8.490   9.240
 1217BOLB   GL129187  18.740   8.230   8.980
 1217BOLB   GL229188  18.990   8.180   8.750
 1217BOLB   C1A29189  18.450   7.920   8.820
 1217BOLB   C2A29190  18.230   7.750   8.480
 1217BOLB   C3A29191  18.310   7.470   8.230
 1217BOLB   C4A29192  18.400   7.240   7.870
 1217BOLB   C1B29193  18.810   8.040   8.390
 1217BOLB   C2B29194  18.430   8.010   8.130
 1217BOLB   C3B29195  18.110   7.880   8.030
 1217BOLB   C4B29196  17.910   7.720   7.690
 1217BOLB   NC229197  18.260   6.010   5.550
 1217BOLB   PO229198  18.390   5.750   5.780
 1217BOLB   GL329199  18.480   5.960   6.260
 1217BOLB   GL429200  18.560   5.730   6.510
 1217BOLB   C1C29201  18.600   6.310   6.510
 1217BOLB   C2C29202  18.630   6.700   6.700
 1217BOLB   C3C29203  18.600   6.910   7.120
 1217BOLB   C4C29204  18.490   6.970   7.480
 1217BOLB   C1D29205  18.660   5.940   6.850
 1217BOLB   C2D29206  18.710   6.330   7.050
 1217BOLB   C3D29207  18.550   6.440   7.320
 1217BOLB   C4D29208  18.620   6.310   7.780
 1218BOLB   NC129209  24.440  19.140   9.130
 1218BOLB   PO129210  24.240  19.470   9.490
 1218BOLB   GL129211  24.570  19.810   9.340
 1218BOLB   GL229212  24.470  20.070   9.050
 1218BOLB   C1A29213  24.900  20.210   9.250
 1218BOLB   C2A29214  25.260  20.450   9.230
 1218BOLB   C3A29215  25.360  20.740   8.820
 1218BOLB   C4A29216  25.570  21.000   8.530
 1218BOLB   C1B29217  24.510  20.460   9.040
 1218BOLB   C2B29218  24.650  20.680   8.620
 1218BOLB   C3B29219  24.770  20.940   8.270
 1218BOLB   C4B29220  25.060  21.130   8.080
 1218BOLB   NC229221  26.230  22.940   6.990
 1218BOLB   PO229222  25.930  22.680   7.060
 1218BOLB   GL329223  25.990  22.420   7.500
 1218BOLB   GL429224  25.680  22.610   7.650
 1218BOLB   C1C29225  26.060  22.380   7.940
 1218BOLB   C2C29226  25.900  22.210   8.300
 1218BOLB   C3C29227  25.750  21.840   8.430
 1218BOLB   C4C29228  25.520  21.440   8.420
 1218BOLB   C1D29229  25.520  22.360   8.030
 1218BOLB   C2D29230  25.260  22.140   8.390
 1218BOLB   C3D29231  24.870  22.120   8.480
 1218BOLB   C4D29232  24.580  22.110   8.820
 1219BOLB   NC129233  19.990  27.700  10.920
 1219BOLB   PO129234  19.770  27.420  10.640
 1219BOLB   GL129235  19.980  27.100  10.870
 1219BOLB   GL229236  19.920  26.780  10.620
 1219BOLB   C1A29237  20.130  26.740  11.100
 1219BOLB   C2A29238  20.160  26.300  11.120
 1219BOLB   C3A29239  20.260  25.850  11.220
 1219BOLB   C4A29240  20.610  25.700  11.390
 1219BOLB   C1B29241  19.810  26.350  10.660
 1219BOLB   C2B29242  19.640  25.950  10.580
 1219BOLB   C3B29243  19.610  25.380  10.430
 1219BOLB   C4B29244  19.680  25.010  10.160
 1219BOLB   NC229245  21.970  27.260  10.910
 1219BOLB   PO229246  22.250  26.910  10.720
 1219BOLB   GL329247  22.230  26.500  10.670
 1219BOLB   GL429248  22.420  26.350  10.600
 1219BOLB   C1C29249  22.090  26.090  10.880
 1219BOLB   C2C29250  21.870  25.870  11.100
 1219BOLB   C3C29251  21.480  25.720  11.140
 1219BOLB   C4C29252  21.070  25.750  11.320
 1219BOLB   C1D29253  22.480  25.900  10.610
 1219BOLB   C2D29254  22.290  25.630  10.920
 1219BOLB   C3D29255  22.240  25.650  11.350
 1219BOLB   C4D29256  22.290  25.690  11.750
 1220BOLB   NC129257  12.780  15.430   8.770
 1220BOLB   PO129258  12.420  15.690   8.980
 1220BOLB   GL129259  12.300  15.540   8.530
 1220BOLB   GL229260  12.490  15.190   8.440
 1220BOLB   C1A29261  12.140  15.460   8.070
 1220BOLB   C2A29262  11.870  15.470   7.730
 1220BOLB   C3A29263  11.810  15.410   7.260
 1220BOLB   C4A29264  11.730  15.490   6.790
 1220BOLB   C1B29265  12.470  14.960   8.090
 1220BOLB   C2B29266  12.430  14.620   7.690
 1220BOLB   C3B29267  12.150  14.280   7.750
 1220BOLB   C4B29268  11.850  14.040   7.840
 1220BOLB   NC229269  10.390  13.640   5.340
 1220BOLB   PO229270  10.570  14.070   5.430
 1220BOLB   GL329271  10.960  14.330   5.470
 1220BOLB   GL429272  10.930  14.440   5.790
 1220BOLB   C1C29273  11.260  14.740   5.560
 1220BOLB   C2C29274  11.380  15.060   5.800
 1220BOLB   C3C29275  11.440  15.330   6.030
 1220BOLB   C4C29276  11.470  15.550   6.450
 1220BOLB   C1D29277  11.060  14.290   6.190
 1220BOLB   C2D29278  11.370  14.520   6.560
 1220BOLB   C3D29279  11.630  14.600   6.880
 1220BOLB   C4D29280  11.770  14.860   7.210
 1221BOLB   NC129281  24.630   7.770  11.390
 1221BOLB   PO129282  25.000   7.810  11.530
 1221BOLB   GL129283  25.430   7.730  11.350
 1221BOLB   GL229284  25.520   7.470  11.510
 1221BOLB   C1A29285  25.780   7.660  11.100
 1221BOLB   C2A29286  26.100   7.440  10.990
 1221BOLB   C3A29287  26.480   7.410  10.810
 1221BOLB   C4A29288  26.760   7.190  10.660
 1221BOLB   C1B29289  25.610   7.110  11.240
 1221BOLB   C2B29290  25.690   7.040  10.880
 1221BOLB   C3B29291  26.150   7.010  10.710
 1221BOLB   C4B29292  26.390   7.170  10.330
 1221BOLB   NC229293  28.640   6.310   8.650
 1221BOLB   PO229294  28.230   6.400   8.930
 1221BOLB   GL329295  28.030   6.270   9.310
 1221BOLB   GL429296  28.350   6.200   9.510
 1221BOLB   C1C29297  27.820   6.380   9.680
 1221BOLB   C2C29298  27.540   6.730   9.970
 1221BOLB   C3C29299  27.090   6.750  10.010
 1221BOLB   C4C29300  26.800   6.870  10.330
 1221BOLB   C1D29301  28.130   6.720   9.560
 1221BOLB   C2D29302  27.820   6.970   9.650
 1221BOLB   C3D29303  27.470   6.960   9.580
 1221BOLB   C4D29304  27.200   7.020   9.380
 1222BOLB   NC129305  20.730  13.590   8.160
 1222BOLB   PO129306  20.710  13.470   7.680
 1222BOLB   GL129307  20.780  13.290   7.210
 1222BOLB   GL229308  20.660  13.470   6.840
 1222BOLB   C1A29309  20.750  12.980   6.880
 1222BOLB   C2A29310  20.760  12.740   6.420
 1222BOLB   C3A29311  20.870  12.690   6.050
 1222BOLB   C4A29312  21.000  12.760   5.600
 1222BOLB   C1B29313  20.820  13.300   6.480
 1222BOLB   C2B29314  21.150  13.450   6.190
 1222BOLB   C3B29315  21.370  13.250   5.840
 1222BOLB   C4B29316  21.310  13.300   5.470
 1222BOLB   NC229317  21.740  11.990   3.560
 1222BOLB   PO229318  21.410  11.700   3.620
 1222BOLB   GL329319  21.450  11.770   4.020
 1222BOLB   GL429320  21.140  11.610   4.180
 1222BOLB   C1C29321  21.520  11.760   4.450
 1222BOLB   C2C29322  21.550  11.890   4.860
 1222BOLB   C3C29323  21.390  12.060   5.190
 1222BOLB   C4C29324  21.240  12.500   5.260
 1222BOLB   C1D29325  21.070  11.630   4.590
 1222BOLB   C2D29326  20.840  11.700   4.970
 1222BOLB   C3D29327  20.720  11.830   5.420
 1222BOLB   C4D29328  20.650  11.560   5.720
 1223BOLB   NC129329  17.640   9.740   8.650
 1223BOLB   PO129330  17.920   9.650   8.340
 1223BOLB   GL129331  18.150   9.380   8.250
 1223BOLB   GL229332  18.380   9.470   8.170
 1223BOLB   C1A29333  18.090   9.000   7.920
 1223BOLB   C2A29334  17.980   8.900   7.480
 1223BOLB   C3A29335  17.900   8.540   7.240
 1223BOLB   C4A29336  17.740   8.260   6.990
 1223BOLB   C1B29337  18.400   9.400   7.770
 1223BOLB   C2B29338  18.360   9.260   7.300
 1223BOLB   C3B29339  18.140   9.050   7.030
 1223BOLB   C4B29340  18.140   8.770   6.690
 1223BOLB   NC229341  19.090   7.770   4.760
 1223BOLB   PO229342  18.720   7.800   5.030
 1223BOLB   GL329343  18.560   8.120   5.340
 1223BOLB   GL429344  18.840   8.240   5.290
 1223BOLB   C1C29345  18.270   8.270   5.640
 1223BOLB   C2C29346  18.260   8.330   6.040
 1223BOLB   C3C29347  18.130   8.470   6.310
 1223BOLB   C4C29348  17.930   8.320   6.580
 1223BOLB   C1D29349  18.900   8.680   5.360
 1223BOLB   C2D29350  19.040   8.910   5.770
 1223BOLB   C3D29351  18.770   9.000   6.180
 1223BOLB   C4D29352  18.810   9.380   6.490
 1224BOLB   NC129353  23.530   5.980  13.150
 1224BOLB   PO129354  23.200   5.760  13.290
 1224BOLB   GL129355  23.030   5.300  13.190
 1224BOLB   GL229356  22.890   5.080  12.930
 1224BOLB   C1A29357  23.160   4.890  13.290
 1224BOLB   C2A29358  23.380   4.540  13.160
 1224BOLB   C3A29359  23.610   4.140  13.080
 1224BOLB   C4A29360  23.510   3.730  12.890
 1224BOLB   C1B29361  23.000   4.680  12.710
 1224BOLB   C2B29362  23.200   4.430  12.300
 1224BOLB   C3B29363  23.040   4.020  12.160
 1224BOLB   C4B29364  22.740   3.790  12.000
 1224BOLB   NC229365  23.740   2.030  11.730
 1224BOLB   PO229366  23.300   1.890  11.740
 1224BOLB   GL329367  23.100   2.140  11.920
 1224BOLB   GL429368  22.790   2.050  11.840
 1224BOLB   C1C29369  22.990   2.480  12.220
 1224BOLB   C2C29370  23.000   2.650  12.680
 1224BOLB   C3C29371  23.170   3.010  12.720
 1224BOLB   C4C29372  23.380   3.430  12.700
 1224BOLB   C1D29373  22.640   2.360  11.750
 1224BOLB   C2D29374  22.360   2.750  11.790
 1224BOLB   C3D29375  22.040   3.100  11.820
 1224BOLB   C4D29376  21.950   3.460  11.570
 1225BOLB   NC129377  11.670  15.560   9.590
 1225BOLB   PO129378  11.980  15.820   9.360
 1225BOLB   GL129379  11.630  15.810   9.040
 1225BOLB   GL229380  11.290  15.690   9.090
 1225BOLB   C1A29381  11.480  15.950   8.680
 1225BOLB   C2A29382  10.970  15.940   8.750
 1225BOLB   C3A29383  10.750  15.550   8.690
 1225BOLB   C4A29384  10.550  15.290   8.280
 1225BOLB   C1B29385  10.890  15.530   9.190
 1225BOLB   C2B29386  10.570  15.730   9.110
 1225BOLB   C3B29387  10.400  15.990   8.820
 1225BOLB   C4B29388  10.470  15.820   8.380
 1225BOLB   NC229389  10.170  14.950   6.000
 1225BOLB   PO229390  10.050  14.650   6.220
 1225BOLB   GL329391  10.410  14.610   6.440
 1225BOLB   GL429392  10.650  14.340   6.390
 1225BOLB   C1C29393  10.520  14.520   6.870
 1225BOLB   C2C29394  10.720  14.530   7.290
 1225BOLB   C3C29395  10.880  14.890   7.590
 1225BOLB   C4C29396  10.680  15.180   7.820
 1225BOLB   C1D29397  10.960  14.280   6.670
 1225BOLB   C2D29398  11.240  14.240   7.040
 1225BOLB   C3D29399  11.650  14.260   7.280
 1225BOLB   C4D29400  12.150  14.300   7.240
 1226BOLB   NC129401  12.370  16.400  10.040
 1226BOLB   PO129402  12.010  16.660  10.040
 1226BOLB   GL129403  11.590  16.650   9.800
 1226BOLB   GL229404  11.480  16.490   9.660
 1226BOLB   C1A29405  11.330  17.030   9.530
 1226BOLB   C2A29406  11.190  17.030   9.070
 1226BOLB   C3A29407  11.130  17.210   8.720
 1226BOLB   C4A29408  11.050  17.580   8.600
 1226BOLB   C1B29409  11.170  16.500   9.260
 1226BOLB   C2B29410  10.960  16.640   8.810
 1226BOLB   C3B29411  11.000  16.780   8.380
 1226BOLB   C4B29412  10.810  17.140   8.250
 1226BOLB   NC229413   9.090  18.610   6.990
 1226BOLB   PO229414   9.100  18.590   7.560
 1226BOLB   GL329415   9.460  18.580   7.790
 1226BOLB   GL429416   9.660  18.840   7.760
 1226BOLB   C1C29417   9.700  18.470   8.260
 1226BOLB   C2C29418  10.060  18.480   8.430
 1226BOLB   C3C29419  10.440  18.160   8.430
 1226BOLB   C4C29420  10.710  17.820   8.380
 1226BOLB   C1D29421  10.020  18.640   7.860
 1226BOLB   C2D29422  10.320  18.390   7.990
 1226BOLB   C3D29423  10.660  18.070   7.910
 1226BOLB   C4D29424  11.140  18.080   8.020
 1227BOLB   NC129425  26.000  14.080   8.880
 1227BOLB   PO129426  26.170  13.670   9.010
 1227BOLB   GL129427  26.180  13.780   8.490
 1227BOLB   GL229428  26.170  14.120   8.380
 1227BOLB   C1A29429  26.570  13.880   8.340
 1227BOLB   C2A29430  26.880  13.950   8.000
 1227BOLB   C3A29431  27.170  14.240   7.850
 1227BOLB   C4A29432  27.560  14.380   8.090
 1227BOLB   C1B29433  26.330  14.140   7.960
 1227BOLB   C2B29434  26.400  14.160   7.510
 1227BOLB   C3B29435  26.440  14.110   7.030
 1227BOLB   C4B29436  26.830  14.170   6.760
 1227BOLB   NC229437  29.850  14.390   7.030
 1227BOLB   PO229438  29.850  14.740   6.840
 1227BOLB   GL329439  29.550  14.830   7.080
 1227BOLB   GL429440  29.320  15.030   7.000
 1227BOLB   C1C29441  29.150  14.800   7.490
 1227BOLB   C2C29442  28.750  14.600   7.670
 1227BOLB   C3C29443  28.320  14.500   7.840
 1227BOLB   C4C29444  27.930  14.590   8.030
 1227BOLB   C1D29445  29.150  14.510   6.980
 1227BOLB   C2D29446  28.840  14.460   7.190
 1227BOLB   C3D29447  28.430  14.670   7.230
 1227BOLB   C4D29448  28.090  14.550   7.440
 1228BOLB   NC129449  17.160  16.730   7.290
 1228BOLB   PO129450  17.270  17.100   7.030
 1228BOLB   GL129451  17.110  17.070   6.670
 1228BOLB   GL229452  16.820  17.220   6.570
 1228BOLB   C1A29453  17.230  17.260   6.220
 1228BOLB   C2A29454  17.260  17.110   5.790
 1228BOLB   C3A29455  17.520  16.980   5.420
 1228BOLB   C4A29456  17.880  16.740   5.280
 1228BOLB   C1B29457  16.720  17.360   6.150
 1228BOLB   C2B29458  16.390  17.640   5.930
 1228BOLB   C3B29459  16.130  17.850   5.840
 1228BOLB   C4B29460  15.730  17.750   5.650
 1228BOLB   NC229461  17.850  16.320   2.850
 1228BOLB   PO229462  17.530  16.100   3.060
 1228BOLB   GL329463  17.690  16.010   3.470
 1228BOLB   GL429464  17.930  16.130   3.360
 1228BOLB   C1C29465  17.720  15.930   3.940
 1228BOLB   C2C29466  17.930  15.880   4.360
 1228BOLB   C3C29467  18.040  16.170   4.750
 1228BOLB   C4C29468  18.130  16.430   5.050
 1228BOLB   C1D29469  18.240  15.940   3.560
 1228BOLB   C2D29470  18.360  15.700   3.810
 1228BOLB   C3D29471  18.430  15.660   4.270
 1228BOLB   C4D29472  18.400  15.540   4.780
 1229BOLB   NC129473  12.100  19.120  10.890
 1229BOLB   PO129474  12.370  19.420  10.700
 1229BOLB   GL129475  12.150  19.210  10.430
 1229BOLB   GL229476  12.310  19.020  10.180
 1229BOLB   C1A29477  11.810  19.270  10.120
 1229BOLB   C2A29478  11.800  19.500   9.760
 1229BOLB   C3A29479  11.590  19.580   9.400
 1229BOLB   C4A29480  11.650  19.750   9.020
 1229BOLB   C1B29481  12.080  18.930   9.840
 1229BOLB   C2B29482  12.140  19.130   9.390
 1229BOLB   C3B29483  11.810  19.020   9.160
 1229BOLB   C4B29484  11.540  18.840   8.850
 1229BOLB   NC229485  10.250  20.390   7.050
 1229BOLB   PO229486   9.990  20.070   7.190
 1229BOLB   GL329487  10.120  19.940   7.570
 1229BOLB   GL429488  10.060  19.640   7.770
 1229BOLB   C1C29489  10.480  20.040   7.890
 1229BOLB   C2C29490  10.880  19.790   7.900
 1229BOLB   C3C29491  11.250  19.920   8.230
 1229BOLB   C4C29492  11.510  19.810   8.620
 1229BOLB   C1D29493  10.210  19.680   8.170
 1229BOLB   C2D29494  10.420  19.400   8.380
 1229BOLB   C3D29495  10.780  19.220   8.600
 1229BOLB   C4D29496  11.190  18.890   8.540
 1230BOLB   NC129497  14.960  13.450   7.960
 1230BOLB   PO129498  14.830  13.030   7.980
 1230BOLB   GL129499  14.910  12.970   7.590
 1230BOLB   GL229500  15.080  12.710   7.570
 1230BOLB   C1A29501  14.780  12.820   7.220
 1230BOLB   C2A29502  14.530  12.870   6.830
 1230BOLB   C3A29503  14.420  12.910   6.400
 1230BOLB   C4A29504  14.650  12.470   6.240
 1230BOLB   C1B29505  15.270  12.800   7.270
 1230BOLB   C2B29506  15.330  12.830   6.820
 1230BOLB   C3B29507  15.500  12.710   6.430
 1230BOLB   C4B29508  15.680  12.830   6.170
 1230BOLB   NC229509  12.690  11.600   4.820
 1230BOLB   PO229510  13.090  11.290   4.770
 1230BOLB   GL329511  13.160  11.530   5.090
 1230BOLB   GL429512  13.160  11.400   5.350
 1230BOLB   C1C29513  13.620  11.740   5.230
 1230BOLB   C2C29514  13.810  11.820   5.570
 1230BOLB   C3C29515  14.200  11.940   5.720
 1230BOLB   C4C29516  14.490  12.120   6.120
 1230BOLB   C1D29517  13.470  11.480   5.630
 1230BOLB   C2D29518  13.740  11.550   5.980
 1230BOLB   C3D29519  14.040  11.270   6.190
 1230BOLB   C4D29520  14.490  11.290   6.390
 1231BOLB   NC129521  12.240   8.330  14.730
 1231BOLB   PO129522  12.100   8.690  14.930
 1231BOLB   GL129523  11.830   8.510  14.640
 1231BOLB   GL229524  11.700   8.720  14.400
 1231BOLB   C1A29525  11.520   8.210  14.770
 1231BOLB   C2A29526  11.550   7.740  14.630
 1231BOLB   C3A29527  11.190   7.490  14.420
 1231BOLB   C4A29528  10.830   7.290  14.090
 1231BOLB   C1B29529  11.340   8.670  14.630
 1231BOLB   C2B29530  10.950   8.430  14.720
 1231BOLB   C3B29531  10.600   8.140  14.910
 1231BOLB   C4B29532  10.300   8.000  15.190
 1231BOLB   NC229533   9.070   6.460  12.930
 1231BOLB   PO229534   8.790   6.840  13.180
 1231BOLB   GL329535   8.900   7.150  13.440
 1231BOLB   GL429536   8.810   7.250  13.770
 1231BOLB   C1C29537   9.300   7.180  13.580
 1231BOLB   C2C29538   9.620   7.180  13.860
 1231BOLB   C3C29539  10.020   7.150  13.900
 1231BOLB   C4C29540  10.470   7.230  13.900
 1231BOLB   C1D29541   8.840   7.750  13.850
 1231BOLB   C2D29542   9.130   8.080  13.840
 1231BOLB   C3D29543   9.360   8.520  13.910
 1231BOLB   C4D29544   9.610   8.780  14.170
 1232BOLB   NC129545  15.090  11.070   8.750
 1232BOLB   PO129546  14.790  11.330   8.740
 1232BOLB   GL129547  14.550  11.100   8.380
 1232BOLB   GL229548  14.680  10.960   8.100
 1232BOLB   C1A29549  14.290  10.620   8.120
 1232BOLB   C2A29550  14.040  10.250   7.930
 1232BOLB   C3A29551  14.180   9.900   7.810
 1232BOLB   C4A29552  14.070   9.480   7.760
 1232BOLB   C1B29553  14.410  11.010   7.720
 1232BOLB   C2B29554  14.220  11.050   7.230
 1232BOLB   C3B29555  13.960  11.120   6.950
 1232BOLB   C4B29556  14.120  11.000   6.550
 1232BOLB   NC229557  12.460   7.340   6.670
 1232BOLB   PO229558  12.650   7.740   6.590
 1232BOLB   GL329559  12.950   7.780   6.870
 1232BOLB   GL429560  12.920   7.850   7.140
 1232BOLB   C1C29561  13.300   8.110   6.940
 1232BOLB   C2C29562  13.420   8.430   7.230
 1232BOLB   C3C29563  13.610   8.710   7.460
 1232BOLB   C4C29564  13.690   9.110   7.600
 1232BOLB   C1D29565  12.900   8.100   7.500
 1232BOLB   C2D29566  12.860   8.180   7.980
 1232BOLB   C3D29567  12.820   8.110   8.420
 1232BOLB   C4D29568  12.770   8.040   8.890
 1233BOLB   NC129569  14.000   9.600  10.090
 1233BOLB   PO129570  14.270   9.560   9.690
 1233BOLB   GL129571  14.050   9.200   9.510
 1233BOLB   GL229572  14.140   9.150   9.130
 1233BOLB   C1A29573  13.630   8.960   9.540
 1233BOLB   C2A29574  13.640   8.620   9.420
 1233BOLB   C3A29575  13.340   8.580   9.120
 1233BOLB   C4A29576  13.050   8.460   8.720
 1233BOLB   C1B29577  13.800   8.910   9.040
 1233BOLB   C2B29578  13.750   8.640   8.800
 1233BOLB   C3B29579  13.530   8.240   8.820
 1233BOLB   C4B29580  13.220   7.860   8.720
 1233BOLB   NC229581  12.480   8.760   6.110
 1233BOLB   PO229582  12.720   8.390   6.290
 1233BOLB   GL329583  12.810   8.220   6.750
 1233BOLB   GL429584  12.520   8.090   6.960
 1233BOLB   C1C29585  12.910   8.440   7.150
 1233BOLB   C2C29586  13.060   8.670   7.580
 1233BOLB   C3C29587  13.150   8.750   8.000
 1233BOLB   C4C29588  12.940   8.590   8.300
 1233BOLB   C1D29589  12.370   8.370   7.370
 1233BOLB   C2D29590  12.600   8.550   7.650
 1233BOLB   C3D29591  12.630   8.910   7.810
 1233BOLB   C4D29592  12.820   9.190   8.170
 1234BOLB   NC129593  12.420   9.190  13.620
 1234BOLB   PO129594  12.070   8.950  13.850
 1234BOLB   GL129595  11.640   8.910  13.690
 1234BOLB   GL229596  11.480   9.270  13.700
 1234BOLB   C1A29597  11.190   8.790  13.610
 1234BOLB   C2A29598  10.810   8.590  13.740
 1234BOLB   C3A29599  10.870   8.050  13.600
 1234BOLB   C4A29600  10.740   7.570  13.570
 1234BOLB   C1B29601  11.240   9.270  13.430
 1234BOLB   C2B29602  11.120   9.100  13.110
 1234BOLB   C3B29603  10.820   8.720  13.190
 1234BOLB   C4B29604  10.960   8.380  13.190
 1234BOLB   NC229605   9.460   5.440  12.630
 1234BOLB   PO229606   9.880   5.610  12.420
 1234BOLB   GL329607   9.970   6.050  12.500
 1234BOLB   GL429608  10.140   6.260  12.380
 1234BOLB   C1C29609  10.010   6.300  12.900
 1234BOLB   C2C29610   9.980   6.690  13.180
 1234BOLB   C3C29611  10.230   6.920  13.370
 1234BOLB   C4C29612  10.620   7.130  13.440
 1234BOLB   C1D29613  10.310   6.500  12.580
 1234BOLB   C2D29614  10.510   6.640  12.970
 1234BOLB   C3D29615  10.800   6.590  13.300
 1234BOLB   C4D29616  11.210   6.430  13.400
 1235BOLB   NC129617  26.840  17.520  15.130
 1235BOLB   PO129618  27.240  17.830  15.280
 1235BOLB   GL129619  27.630  17.990  15.530
 1235BOLB   GL229620  27.640  18.260  15.360
 1235BOLB   C1A29621  28.070  18.060  15.750
 1235BOLB   C2A29622  28.450  18.280  15.940
 1235BOLB   C3A29623  28.540  18.450  16.370
 1235BOLB   C4A29624  28.800  18.760  16.650
 1235BOLB   C1B29625  27.960  18.510  15.290
 1235BOLB   C2B29626  28.340  18.510  15.500
 1235BOLB   C3B29627  28.750  18.750  15.590
 1235BOLB   C4B29628  29.230  18.830  15.740
 1235BOLB   NC229629  30.690  18.740  18.130
 1235BOLB   PO229630  30.300  18.780  18.500
 1235BOLB   GL329631  30.060  18.570  18.250
 1235BOLB   GL429632  30.280  18.260  18.090
 1235BOLB   C1C29633  29.860  18.380  17.850
 1235BOLB   C2C29634  29.830  18.450  17.430
 1235BOLB   C3C29635  29.550  18.610  17.100
 1235BOLB   C4C29636  29.230  18.650  16.830
 1235BOLB   C1D29637  29.960  18.080  18.280
 1235BOLB   C2D29638  29.590  18.120  18.310
 1235BOLB   C3D29639  29.280  18.270  18.170
 1235BOLB   C4D29640  29.040  18.330  17.850
 1236BOLB   NC129641  16.670  16.360   7.780
 1236BOLB   PO129642  16.730  16.350   7.380
 1236BOLB   GL129643  16.950  16.380   6.970
 1236BOLB   GL229644  16.830  16.700   6.940
 1236BOLB   C1A29645  17.130  16.430   6.540
 1236BOLB   C2A29646  16.910  16.500   6.160
 1236BOLB   C3A29647  16.860  16.450   5.680
 1236BOLB   C4A29648  16.850  16.380   5.190
 1236BOLB   C1B29649  16.660  16.760   6.610
 1236BOLB   C2B29650  16.580  16.870   6.170
 1236BOLB   C3B29651  16.750  16.920   5.800
 1236BOLB   C4B29652  17.070  16.790   5.350
 1236BOLB   NC229653  16.620  15.530   3.180
 1236BOLB   PO229654  16.340  15.710   3.030
 1236BOLB   GL329655  16.470  15.970   3.350
 1236BOLB   GL429656  16.360  16.160   3.330
 1236BOLB   C1C29657  16.660  15.890   3.670
 1236BOLB   C2C29658  16.670  15.800   4.060
 1236BOLB   C3C29659  16.780  16.000   4.450
 1236BOLB   C4C29660  16.900  16.150   4.890
 1236BOLB   C1D29661  16.290  16.410   3.790
 1236BOLB   C2D29662  16.590  16.400   4.160
 1236BOLB   C3D29663  16.660  16.470   4.560
 1236BOLB   C4D29664  16.800  16.760   4.830
 1237BOLB   NC129665  24.200   7.560  10.600
 1237BOLB   PO129666  24.430   7.710  10.270
 1237BOLB   GL129667  24.640   7.550   9.930
 1237BOLB   GL229668  24.490   7.700   9.780
 1237BOLB   C1A29669  24.840   7.190   9.860
 1237BOLB   C2A29670  25.090   6.890   9.610
 1237BOLB   C3A29671  25.500   6.820   9.490
 1237BOLB   C4A29672  25.640   6.840   9.180
 1237BOLB   C1B29673  24.610   7.560   9.400
 1237BOLB   C2B29674  24.890   7.360   9.330
 1237BOLB   C3B29675  25.190   7.080   9.140
 1237BOLB   C4B29676  25.120   6.590   9.240
 1237BOLB   NC229677  25.700   5.790   7.270
 1237BOLB   PO229678  26.030   6.160   7.270
 1237BOLB   GL329679  26.200   6.540   7.590
 1237BOLB   GL429680  26.170   6.820   7.510
 1237BOLB   C1C29681  26.450   6.740   7.920
 1237BOLB   C2C29682  26.300   6.930   8.260
 1237BOLB   C3C29683  26.110   7.060   8.580
 1237BOLB   C4C29684  26.080   7.020   8.990
 1237BOLB   C1D29685  25.720   6.730   7.550
 1237BOLB   C2D29686  25.340   6.650   7.670
 1237BOLB   C3D29687  24.930   6.410   7.820
 1237BOLB   C4D29688  24.490   6.460   8.060
 1238BOLB   NC129689  11.640  17.830  16.630
 1238BOLB   PO129690  11.490  17.420  16.590
 1238BOLB   GL129691  11.150  17.670  16.850
 1238BOLB   GL229692  11.400  17.810  17.120
 1238BOLB   C1A29693  10.790  17.880  16.870
 1238BOLB   C2A29694  10.820  18.180  17.250
 1238BOLB   C3A29695  10.570  18.510  17.260
 1238BOLB   C4A29696  10.080  18.590  17.040
 1238BOLB   C1B29697  11.120  17.730  17.490
 1238BOLB   C2B29698  10.620  17.570  17.590
 1238BOLB   C3B29699  10.250  17.850  17.660
 1238BOLB   C4B29700   9.980  17.980  17.970
 1238BOLB   NC229701   7.940  19.570  18.550
 1238BOLB   PO229702   8.040  19.190  18.690
 1238BOLB   GL329703   8.370  18.930  18.440
 1238BOLB   GL429704   8.370  18.710  18.640
 1238BOLB   C1C29705   8.750  18.820  18.120
 1238BOLB   C2C29706   9.160  18.780  17.990
 1238BOLB   C3C29707   9.380  18.710  17.500
 1238BOLB   C4C29708   9.710  18.700  17.190
 1238BOLB   C1D29709   8.500  18.390  18.330
 1238BOLB   C2D29710   8.520  18.490  17.840
 1238BOLB   C3D29711   8.320  18.710  17.550
 1238BOLB   C4D29712   8.040  18.740  17.150
 1239BOLB   NC129713  10.590  17.490  13.350
 1239BOLB   PO129714  10.800  17.800  13.580
 1239BOLB   GL129715  10.480  17.950  13.610
 1239BOLB   GL229716  10.320  17.720  13.820
 1239BOLB   C1A29717  10.100  17.960  13.400
 1239BOLB   C2A29718   9.630  18.140  13.300
 1239BOLB   C3A29719   9.280  18.150  13.430
 1239BOLB   C4A29720   8.970  18.390  13.550
 1239BOLB   C1B29721   9.870  17.780  13.770
 1239BOLB   C2B29722   9.510  17.720  13.720
 1239BOLB   C3B29723   9.230  18.040  13.930
 1239BOLB   C4B29724   9.120  17.900  14.410
 1239BOLB   NC229725   7.100  20.260  12.930
 1239BOLB   PO229726   7.220  19.910  13.160
 1239BOLB   GL329727   7.520  19.470  13.260
 1239BOLB   GL429728   7.510  19.260  13.500
 1239BOLB   C1C29729   7.860  19.120  13.200
 1239BOLB   C2C29730   8.010  18.690  13.120
 1239BOLB   C3C29731   8.390  18.420  13.050
 1239BOLB   C4C29732   8.720  18.270  13.290
 1239BOLB   C1D29733   7.770  19.220  13.900
 1239BOLB   C2D29734   7.860  19.360  14.280
 1239BOLB   C3D29735   8.200  19.250  14.380
 1239BOLB   C4D29736   8.300  18.890  14.550
 1240BOLB   NC129737  11.720  16.020   9.740
 1240BOLB   PO129738  11.480  16.170  10.100
 1240BOLB   GL129739  11.160  16.000   9.900
 1240BOLB   GL229740  11.250  15.890   9.650
 1240BOLB   C1A29741  10.770  15.760   9.630
 1240BOLB   C2A29742  10.380  15.590   9.580
 1240BOLB   C3A29743  10.040  15.760   9.690
 1240BOLB   C4A29744   9.660  15.800   9.480
 1240BOLB   C1B29745  10.980  16.040   9.280
 1240BOLB   C2B29746  10.710  16.260   9.060
 1240BOLB   C3B29747  10.470  16.600   9.050
 1240BOLB   C4B29748  10.150  16.840   8.820
 1240BOLB   NC229749   7.880  15.590   8.520
 1240BOLB   PO229750   7.920  15.260   8.480
 1240BOLB   GL329751   8.280  14.990   8.660
 1240BOLB   GL429752   8.250  14.660   8.760
 1240BOLB   C1C29753   8.430  15.260   8.990
 1240BOLB   C2C29754   8.730  15.400   9.120
 1240BOLB   C3C29755   8.930  15.710   9.320
 1240BOLB   C4C29756   9.260  15.850   9.500
 1240BOLB   C1D29757   8.580  14.710   9.070
 1240BOLB   C2D29758   9.000  14.710   9.170
 1240BOLB   C3D29759   9.210  15.000   9.270
 1240BOLB   C4D29760   9.690  14.890   9.370
 1241BOLB   NC129761  15.720  22.300  10.260
 1241BOLB   PO129762  15.450  22.030  10.150
 1241BOLB   GL129763  15.340  22.340   9.790
 1241BOLB   GL229764  15.560  22.670   9.580
 1241BOLB   C1A29765  15.130  22.510   9.400
 1241BOLB   C2A29766  15.140  23.000   9.350
 1241BOLB   C3A29767  15.100  23.470   9.380
 1241BOLB   C4A29768  15.100  23.850   9.510
 1241BOLB   C1B29769  15.550  23.080   9.550
 1241BOLB   C2B29770  15.700  23.410   9.220
 1241BOLB   C3B29771  15.810  23.830   8.910
 1241BOLB   C4B29772  15.620  24.200   8.700
 1241BOLB   NC229773  13.770  25.130   8.820
 1241BOLB   PO229774  13.540  25.400   9.190
 1241BOLB   GL329775  13.860  25.230   9.310
 1241BOLB   GL429776  13.680  24.930   9.450
 1241BOLB   C1C29777  14.190  24.870   9.410
 1241BOLB   C2C29778  14.620  24.790   9.510
 1241BOLB   C3C29779  14.940  24.560   9.480
 1241BOLB   C4C29780  15.150  24.260   9.370
 1241BOLB   C1D29781  13.510  24.450   9.560
 1241BOLB   C2D29782  13.640  24.080   9.450
 1241BOLB   C3D29783  13.650  23.830   9.800
 1241BOLB   C4D29784  13.670  23.480  10.090
 1242BOLB   NC129785  14.120   6.950  12.330
 1242BOLB   PO129786  13.850   6.590  12.650
 1242BOLB   GL129787  13.570   6.190  12.630
 1242BOLB   GL229788  13.650   6.010  12.940
 1242BOLB   C1A29789  13.480   5.770  12.380
 1242BOLB   C2A29790  13.460   5.360  12.240
 1242BOLB   C3A29791  13.780   5.170  11.810
 1242BOLB   C4A29792  14.030   4.930  11.380
 1242BOLB   C1B29793  13.570   5.600  12.870
 1242BOLB   C2B29794  13.320   5.280  13.110
 1242BOLB   C3B29795  13.350   5.150  13.420
 1242BOLB   C4B29796  13.570   5.330  13.720
 1242BOLB   NC229797  13.530   2.740   9.860
 1242BOLB   PO229798  13.930   3.080  10.080
 1242BOLB   GL329799  13.910   3.320  10.500
 1242BOLB   GL429800  13.680   3.370  10.670
 1242BOLB   C1C29801  14.220   3.660  10.740
 1242BOLB   C2C29802  14.450   4.000  10.900
 1242BOLB   C3C29803  14.470   4.250  11.140
 1242BOLB   C4C29804  14.280   4.610  11.330
 1242BOLB   C1D29805  13.740   3.710  10.890
 1242BOLB   C2D29806  13.630   4.140  10.910
 1242BOLB   C3D29807  13.730   4.520  10.930
 1242BOLB   C4D29808  13.870   4.830  10.820
 1243BOLB   NC129809  28.280   4.490  18.250
 1243BOLB   PO129810  28.390   4.780  18.640
 1243BOLB   GL129811  28.080   4.930  18.390
 1243BOLB   GL229812  28.290   5.150  18.250
 1243BOLB   C1A29813  27.660   4.970  18.220
 1243BOLB   C2A29814  27.320   5.240  18.320
 1243BOLB   C3A29815  27.030   5.550  18.240
 1243BOLB   C4A29816  26.930   5.990  18.270
 1243BOLB   C1B29817  27.930   5.450  18.410
 1243BOLB   C2B29818  27.660   5.840  18.300
 1243BOLB   C3B29819  27.330   6.210  18.520
 1243BOLB   C4B29820  27.430   6.650  18.560
 1243BOLB   NC229821  27.030   4.800  19.810
 1243BOLB   PO229822  27.040   5.090  20.080
 1243BOLB   GL329823  27.010   5.460  20.000
 1243BOLB   GL429824  27.290   5.730  20.080
 1243BOLB   C1C29825  26.790   5.840  19.760
 1243BOLB   C2C29826  26.660   6.050  19.390
 1243BOLB   C3C29827  26.680   6.230  18.980
 1243BOLB   C4C29828  26.800   6.280  18.560
 1243BOLB   C1D29829  27.390   6.050  19.670
 1243BOLB   C2D29830  27.220   6.360  19.340
 1243BOLB   C3D29831  27.060   6.560  18.990
 1243BOLB   C4D29832  26.990   6.910  18.710
 1244BOLB   NC129833  18.090   0.510  15.880
 1244BOLB   PO129834  18.360   0.790  16.010
 1244BOLB   GL129835  18.490   1.110  15.800
 1244BOLB   GL229836  18.700   1.090  15.460
 1244BOLB   C1A29837  18.520   1.560  16.060
 1244BOLB   C2A29838  18.470   1.970  15.950
 1244BOLB   C3A29839  18.370   2.320  15.730
 1244BOLB   C4A29840  18.470   2.610  15.430
 1244BOLB   C1B29841  18.670   1.510  15.580
 1244BOLB   C2B29842  18.880   1.870  15.720
 1244BOLB   C3B29843  18.950   2.050  16.130
 1244BOLB   C4B29844  19.180   2.510  16.280
 1244BOLB   NC229845  18.870   0.630  14.520
 1244BOLB   PO229846  18.360   0.680  14.480
 1244BOLB   GL329847  18.540   1.030  14.670
 1244BOLB   GL429848  18.770   1.140  14.590
 1244BOLB   C1C29849  18.450   1.290  15.040
 1244BOLB   C2C29850  18.430   1.680  15.200
 1244BOLB   C3C29851  18.680   2.070  15.120
 1244BOLB   C4C29852  18.760   2.450  15.090
 1244BOLB   C1D29853  18.840   1.520  14.290
 1244BOLB   C2D29854  18.930   1.980  14.210
 1244BOLB   C3D29855  19.070   2.300  14.060
 1244BOLB   C4D29856  19.250   2.640  14.200
 1245BOLB   NC129857  25.340  11.740   8.730
 1245BOLB   PO129858  25.440  11.230   8.680
 1245BOLB   GL129859  25.670  11.340   8.320
 1245BOLB   GL229860  25.550  11.610   8.290
 1245BOLB   C1A29861  25.960  11.300   8.070
 1245BOLB   C2A29862  26.240  11.090   7.820
 1245BOLB   C3A29863  26.190  11.070   7.360
 1245BOLB   C4A29864  26.310  10.870   7.010
 1245BOLB   C1B29865  25.800  11.790   8.000
 1245BOLB   C2B29866  26.090  11.700   7.710
 1245BOLB   C3B29867  26.190  11.640   7.230
 1245BOLB   C4B29868  26.100  11.830   6.750
 1245BOLB   NC229869  26.630  10.950   4.330
 1245BOLB   PO229870  26.650  11.100   4.660
 1245BOLB   GL329871  26.490  11.000   4.960
 1245BOLB   GL429872  26.200  11.130   4.960
 1245BOLB   C1C29873  26.160  11.270   5.490
 1245BOLB   C2C29874  26.400  11.220   5.900
 1245BOLB   C3C29875  26.620  11.030   6.220
 1245BOLB   C4C29876  26.490  10.830   6.570
 1245BOLB   C1D29877  25.890  10.900   5.250
 1245BOLB   C2D29878  25.770  10.770   5.620
 1245BOLB   C3D29879  25.430  10.870   5.800
 1245BOLB   C4D29880  25.120  10.910   6.220
 1246BOLB   NC129881  22.900  14.330   8.330
 1246BOLB   PO129882  23.090  14.320   7.850
 1246BOLB   GL129883  23.150  14.200   7.380
 1246BOLB   GL229884  23.210  13.780   7.400
 1246BOLB   C1A29885  23.120  14.180   7.000
 1246BOLB   C2A29886  23.260  14.100   6.510
 1246BOLB   C3A29887  23.420  14.330   6.330
 1246BOLB   C4A29888  23.420  14.170   5.980
 1246BOLB   C1B29889  23.270  13.750   6.930
 1246BOLB   C2B29890  23.580  13.740   6.660
 1246BOLB   C3B29891  23.820  13.880   6.380
 1246BOLB   C4B29892  23.850  13.670   6.000
 1246BOLB   NC229893  24.630  14.240   3.760
 1246BOLB   PO229894  24.260  13.990   3.700
 1246BOLB   GL329895  24.230  13.800   4.120
 1246BOLB   GL429896  24.530  13.840   4.180
 1246BOLB   C1C29897  24.260  13.620   4.520
 1246BOLB   C2C29898  23.930  13.900   4.750
 1246BOLB   C3C29899  23.720  14.060   5.090
 1246BOLB   C4C29900  23.690  14.160   5.540
 1246BOLB   C1D29901  24.310  14.150   4.520
 1246BOLB   C2D29902  24.170  14.340   4.930
 1246BOLB   C3D29903  24.080  14.370   5.380
 1246BOLB   C4D29904  23.840  14.590   5.640
 1247BOLB   NC129905  17.140   9.730   9.270
 1247BOLB   PO129906  17.150   9.670   8.980
 1247BOLB   GL129907  16.990   9.630   8.490
 1247BOLB   GL229908  17.290   9.500   8.360
 1247BOLB   C1A29909  16.900   9.640   8.120
 1247BOLB   C2A29910  16.740   9.410   7.830
 1247BOLB   C3A29911  16.720   9.280   7.410
 1247BOLB   C4A29912  16.570   9.070   7.140
 1247BOLB   C1B29913  17.150   9.140   8.060
 1247BOLB   C2B29914  17.150   8.900   7.700
 1247BOLB   C3B29915  16.980   8.840   7.320
 1247BOLB   C4B29916  16.960   8.680   6.940
 1247BOLB   NC229917  15.950   7.940   5.030
 1247BOLB   PO229918  15.940   8.440   5.070
 1247BOLB   GL329919  15.980   8.640   5.430
 1247BOLB   GL429920  15.710   8.850   5.410
 1247BOLB   C1C29921  16.010   8.640   5.870
 1247BOLB   C2C29922  15.980   8.870   6.210
 1247BOLB   C3C29923  15.980   8.880   6.570
 1247BOLB   C4C29924  16.210   9.000   6.850
 1247BOLB   C1D29925  15.830   9.110   5.760
 1247BOLB   C2D29926  16.000   9.350   5.980
 1247BOLB   C3D29927  15.940   9.380   6.370
 1247BOLB   C4D29928  15.770   9.410   6.720
 1248BOLB   NC129929  14.910  18.000   8.660
 1248BOLB   PO129930  14.590  18.210   8.770
 1248BOLB   GL129931  14.530  18.440   8.450
 1248BOLB   GL229932  14.400  18.680   8.460
 1248BOLB   C1A29933  14.380  18.500   8.020
 1248BOLB   C2A29934  14.240  18.640   7.580
 1248BOLB   C3A29935  14.230  18.640   7.230
 1248BOLB   C4A29936  14.260  19.000   6.800
 1248BOLB   C1B29937  14.210  18.970   8.050
 1248BOLB   C2B29938  13.890  19.160   7.900
 1248BOLB   C3B29939  13.540  19.370   7.810
 1248BOLB   C4B29940  13.220  19.580   7.660
 1248BOLB   NC229941  13.640  19.630   4.700
 1248BOLB   PO229942  13.540  19.250   4.490
 1248BOLB   GL329943  13.640  18.980   4.800
 1248BOLB   GL429944  13.400  18.760   4.830
 1248BOLB   C1C29945  13.730  18.800   5.220
 1248BOLB   C2C29946  13.910  18.740   5.680
 1248BOLB   C3C29947  14.050  19.010   5.950
 1248BOLB   C4C29948  14.220  19.070   6.350
 1248BOLB   C1D29949  13.090  18.680   5.260
 1248BOLB   C2D29950  12.970  18.310   5.090
 1248BOLB   C3D29951  12.780  17.900   5.020
 1248BOLB   C4D29952  12.860  17.760   5.420
 1249BOLB   NC129953  17.360  13.750   7.840
 1249BOLB   PO129954  17.030  13.770   7.540
 1249BOLB   GL129955  17.220  13.670   7.060
 1249BOLB   GL229956  17.330  13.400   6.970
 1249BOLB   C1A29957  17.190  13.680   6.590
 1249BOLB   C2A29958  17.260  13.350   6.260
 1249BOLB   C3A29959  17.260  12.970   5.960
 1249BOLB   C4A29960  17.570  12.740   5.710
 1249BOLB   C1B29961  17.610  13.360   6.590
 1249BOLB   C2B29962  17.760  13.100   6.310
 1249BOLB   C3B29963  17.980  12.920   6.020
 1249BOLB   C4B29964  18.250  12.630   5.850
 1249BOLB   NC229965  17.750  12.050   3.490
 1249BOLB   PO229966  17.950  12.340   3.260
 1249BOLB   GL329967  18.200  12.260   3.640
 1249BOLB   GL429968  18.400  11.980   3.770
 1249BOLB   C1C29969  17.940  12.290   4.040
 1249BOLB   C2C29970  17.730  12.240   4.520
 1249BOLB   C3C29971  17.600  12.370   4.960
 1249BOLB   C4C29972  17.720  12.630   5.310
 1249BOLB   C1D29973  18.610  12.130   4.200
 1249BOLB   C2D29974  18.620  12.160   4.710
 1249BOLB   C3D29975  18.570  12.250   5.060
 1249BOLB   C4D29976  18.300  12.490   5.360
 1250BOLB   NC129977  10.440  15.950  12.800
 1250BOLB   PO129978  10.570  15.620  12.550
 1250BOLB   GL129979  10.170  15.550  12.570
 1250BOLB   GL229980   9.840  15.650  12.360
 1250BOLB   C1A29981   9.750  15.440  12.790
 1250BOLB   C2A29982   9.350  15.490  12.770
 1250BOLB   C3A29983   8.950  15.700  12.560
 1250BOLB   C4A29984   8.700  16.140  12.380
 1250BOLB   C1B29985   9.400  15.690  12.310
 1250BOLB   C2B29986   9.010  15.830  12.140
 1250BOLB   C3B29987   8.810  15.710  11.680
 1250BOLB   C4B29988   8.730  15.430  11.300
 1250BOLB   NC229989   7.040  17.930  11.490
 1250BOLB   PO229990   6.890  17.680  11.870
 1250BOLB   GL329991   7.190  17.430  11.950
 1250BOLB   GL429992   7.390  17.420  11.630
 1250BOLB   C1C29993   7.410  17.400  12.340
 1250BOLB   C2C29994   7.760  17.100  12.500
 1250BOLB   C3C29995   8.070  16.750  12.630
 1250BOLB   C4C29996   8.440  16.460  12.560
 1250BOLB   C1D29997   7.780  17.480  11.860
 1250BOLB   C2D29998   8.100  17.300  12.160
 1250BOLB   C3D29999   8.340  17.000  12.260
 1250BOLB   C4D30000   8.590  16.980  12.560
 1251BOLB   NC130001  13.400   7.450  13.280
 1251BOLB   PO130002  13.150   7.680  13.350
 1251BOLB   GL130003  12.930   7.300  13.210
 1251BOLB   GL230004  13.160   7.000  13.250
 1251BOLB   C1A30005  12.920   7.050  12.850
 1251BOLB   C2A30006  12.760   6.690  12.790
 1251BOLB   C3A30007  12.720   6.470  12.400
 1251BOLB   C4A30008  12.500   6.190  12.130
 1251BOLB   C1B30009  12.950   6.680  13.270
 1251BOLB   C2B30010  12.780   6.280  13.050
 1251BOLB   C3B30011  12.680   6.060  12.700
 1251BOLB   C4B30012  12.340   5.860  12.520
 1251BOLB   NC230013  10.600   5.130  10.930
 1251BOLB   PO230014  10.740   5.090  11.360
 1251BOLB   GL330015  11.010   5.460  11.330
 1251BOLB   GL430016  11.090   5.430  11.150
 1251BOLB   C1C30017  11.320   5.740  11.540
 1251BOLB   C2C30018  11.490   5.900  11.900
 1251BOLB   C3C30019  11.760   6.250  12.060
 1251BOLB   C4C30020  12.080   6.150  12.030
 1251BOLB   C1D30021  11.440   5.700  10.910
 1251BOLB   C2D30022  11.800   5.850  10.930
 1251BOLB   C3D30023  12.160   6.000  10.740
 1251BOLB   C4D30024  12.640   6.260  10.450
 1252BOLB   NC130025  24.370   6.530  15.480
 1252BOLB   PO130026  24.770   6.360  15.210
 1252BOLB   GL130027  25.110   6.160  15.330
 1252BOLB   GL230028  25.270   6.330  15.570
 1252BOLB   C1A30029  25.200   5.770  15.410
 1252BOLB   C2A30030  25.290   5.550  15.740
 1252BOLB   C3A30031  25.450   5.120  15.700
 1252BOLB   C4A30032  25.570   4.630  15.700
 1252BOLB   C1B30033  25.620   5.960  15.620
 1252BOLB   C2B30034  25.880   5.570  15.660
 1252BOLB   C3B30035  26.020   5.230  15.950
 1252BOLB   C4B30036  26.350   5.260  16.270
 1252BOLB   NC230037  26.190   2.220  15.280
 1252BOLB   PO230038  26.580   2.410  15.370
 1252BOLB   GL330039  26.250   2.740  15.150
 1252BOLB   GL430040  25.960   2.590  15.030
 1252BOLB   C1C30041  26.260   3.180  15.170
 1252BOLB   C2C30042  26.340   3.470  15.520
 1252BOLB   C3C30043  26.010   3.900  15.780
 1252BOLB   C4C30044  25.690   4.180  15.770
 1252BOLB   C1D30045  25.890   3.020  14.910
 1252BOLB   C2D30046  25.710   3.440  14.680
 1252BOLB   C3D30047  25.510   3.730  14.830
 1252BOLB   C4D30048  25.470   4.190  14.800
 1253BOLB   NC130049  20.990  13.850   7.790
 1253BOLB   PO130050  21.420  13.940   7.700
 1253BOLB   GL130051  21.200  13.870   7.280
 1253BOLB   GL230052  21.390  13.710   7.180
 1253BOLB   C1A30053  20.950  13.980   7.000
 1253BOLB   C2A30054  20.990  13.820   6.570
 1253BOLB   C3A30055  21.180  14.070   6.160
 1253BOLB   C4A30056  21.220  14.120   5.730
 1253BOLB   C1B30057  21.260  13.480   6.820
 1253BOLB   C2B30058  21.460  13.740   6.410
 1253BOLB   C3B30059  21.530  13.710   5.960
 1253BOLB   C4B30060  21.700  13.600   5.550
 1253BOLB   NC230061  21.370  12.860   3.380
 1253BOLB   PO230062  21.630  13.170   3.630
 1253BOLB   GL330063  21.710  13.550   3.760
 1253BOLB   GL430064  22.020  13.670   3.760
 1253BOLB   C1C30065  21.590  13.700   4.170
 1253BOLB   C2C30066  21.420  13.900   4.540
 1253BOLB   C3C30067  21.550  13.840   4.980
 1253BOLB   C4C30068  21.390  13.980   5.410
 1253BOLB   C1D30069  22.330  13.620   4.120
 1253BOLB   C2D30070  22.380  13.550   4.560
 1253BOLB   C3D30071  22.430  13.370   4.950
 1253BOLB   C4D30072  22.440  13.110   5.280
 1254BOLB   NC130073  18.630  17.090   7.410
 1254BOLB   PO130074  18.300  16.860   7.070
 1254BOLB   GL130075  18.170  16.680   6.720
 1254BOLB   GL230076  18.470  16.670   6.570
 1254BOLB   C1A30077  17.830  16.710   6.500
 1254BOLB   C2A30078  17.410  16.820   6.220
 1254BOLB   C3A30079  17.290  16.620   5.830
 1254BOLB   C4A30080  17.450  16.500   5.440
 1254BOLB   C1B30081  18.570  16.420   6.400
 1254BOLB   C2B30082  18.470  16.350   6.000
 1254BOLB   C3B30083  18.150  16.440   5.680
 1254BOLB   C4B30084  17.920  16.080   5.500
 1254BOLB   NC230085  16.510  16.980   2.520
 1254BOLB   PO230086  16.310  17.000   2.980
 1254BOLB   GL330087  16.490  16.910   3.400
 1254BOLB   GL430088  16.710  16.640   3.330
 1254BOLB   C1C30089  16.700  16.840   3.860
 1254BOLB   C2C30090  17.030  16.680   4.080
 1254BOLB   C3C30091  17.280  16.540   4.490
 1254BOLB   C4C30092  17.340  16.470   4.940
 1254BOLB   C1D30093  16.970  16.420   3.650
 1254BOLB   C2D30094  17.400  16.370   3.960
 1254BOLB   C3D30095  17.850  16.410   3.780
 1254BOLB   C4D30096  18.160  16.610   3.590
 1255BOLB   NC130097  20.050  21.490   8.870
 1255BOLB   PO130098  20.450  21.810   8.820
 1255BOLB   GL130099  20.230  22.120   8.720
 1255BOLB   GL230100  20.500  22.460   8.790
 1255BOLB   C1A30101  20.070  22.300   8.370
 1255BOLB   C2A30102  20.050  22.430   7.940
 1255BOLB   C3A30103  20.330  22.730   7.610
 1255BOLB   C4A30104  20.580  22.870   7.250
 1255BOLB   C1B30105  20.750  22.590   8.470
 1255BOLB   C2B30106  20.970  22.750   8.120
 1255BOLB   C3B30107  20.660  22.930   7.850
 1255BOLB   C4B30108  20.610  23.280   7.620
 1255BOLB   NC230109  20.460  23.630   5.010
 1255BOLB   PO230110  20.840  23.620   5.150
 1255BOLB   GL330111  21.020  23.390   5.460
 1255BOLB   GL430112  20.940  23.010   5.410
 1255BOLB   C1C30113  21.160  23.190   5.890
 1255BOLB   C2C30114  20.960  22.930   6.200
 1255BOLB   C3C30115  21.000  22.940   6.590
 1255BOLB   C4C30116  20.870  22.890   7.040
 1255BOLB   C1D30117  20.760  22.760   5.680
 1255BOLB   C2D30118  20.460  22.540   5.560
 1255BOLB   C3D30119  20.400  22.190   5.360
 1255BOLB   C4D30120  20.640  21.800   5.450
 1256BOLB   NC130121  32.500  15.140  12.090
 1256BOLB   PO130122  32.290  15.410  12.490
 1256BOLB   GL130123  32.020  15.040  12.380
 1256BOLB   GL230124  31.950  15.020  12.020
 1256BOLB   C1A30125  31.600  14.810  12.560
 1256BOLB   C2A30126  31.420  14.400  12.400
 1256BOLB   C3A30127  30.970  14.370  12.320
 1256BOLB   C4A30128  30.660  14.300  11.930
 1256BOLB   C1B30129  31.650  14.910  12.110
 1256BOLB   C2B30130  31.180  14.830  12.350
 1256BOLB   C3B30131  30.740  14.780  12.550
 1256BOLB   C4B30132  30.430  14.380  12.470
 1256BOLB   NC230133  32.120  14.530  10.170
 1256BOLB   PO230134  31.880  14.200  10.270
 1256BOLB   GL330135  31.470  14.040  10.410
 1256BOLB   GL430136  31.200  13.790  10.180
 1256BOLB   C1C30137  31.140  14.200  10.570
 1256BOLB   C2C30138  30.920  14.460  10.760
 1256BOLB   C3C30139  30.630  14.510  11.140
 1256BOLB   C4C30140  30.650  14.520  11.540
 1256BOLB   C1D30141  30.850  13.730  10.330
 1256BOLB   C2D30142  30.360  13.900  10.430
 1256BOLB   C3D30143  29.920  13.990  10.440
 1256BOLB   C4D30144  29.490  14.090  10.410
 1257BOLB   NC130145  26.630   8.870  16.030
 1257BOLB   PO130146  26.890   9.120  15.870
 1257BOLB   GL130147  27.140   8.770  16.020
 1257BOLB   GL230148  27.120   8.520  16.010
 1257BOLB   C1A30149  27.350   8.610  16.450
 1257BOLB   C2A30150  27.710   8.320  16.450
 1257BOLB   C3A30151  27.990   7.870  16.560
 1257BOLB   C4A30152  28.210   7.410  16.620
 1257BOLB   C1B30153  27.290   8.220  16.160
 1257BOLB   C2B30154  27.580   7.880  16.310
 1257BOLB   C3B30155  27.640   7.490  16.470
 1257BOLB   C4B30156  27.450   7.030  16.690
 1257BOLB   NC230157  29.050   5.510  18.010
 1257BOLB   PO230158  29.110   5.820  18.200
 1257BOLB   GL330159  28.780   5.960  18.110
 1257BOLB   GL430160  28.570   5.620  18.080
 1257BOLB   C1C30161  28.580   6.330  17.820
 1257BOLB   C2C30162  28.480   6.380  17.210
 1257BOLB   C3C30163  28.280   6.700  17.060
 1257BOLB   C4C30164  28.050   7.020  16.820
 1257BOLB   C1D30165  28.150   5.760  17.950
 1257BOLB   C2D30166  27.960   6.200  18.010
 1257BOLB   C3D30167  27.420   6.210  18.010
 1257BOLB   C4D30168  27.080   6.430  17.880
 1258BOLB   NC130169  15.250   6.040  14.340
 1258BOLB   PO130170  15.460   5.580  14.100
 1258BOLB   GL130171  15.230   5.230  14.220
 1258BOLB   GL230172  14.970   5.230  13.980
 1258BOLB   C1A30173  15.050   4.810  14.310
 1258BOLB   C2A30174  14.660   4.590  14.250
 1258BOLB   C3A30175  14.270   4.320  14.200
 1258BOLB   C4A30176  13.990   3.990  13.960
 1258BOLB   C1B30177  15.000   4.880  13.810
 1258BOLB   C2B30178  14.870   4.530  13.780
 1258BOLB   C3B30179  14.700   4.180  13.920
 1258BOLB   C4B30180  14.460   3.830  14.100
 1258BOLB   NC230181  13.440   2.000  13.290
 1258BOLB   PO230182  13.680   2.080  13.740
 1258BOLB   GL330183  13.950   2.430  13.650
 1258BOLB   GL430184  14.120   2.370  13.880
 1258BOLB   C1C30185  14.170   2.710  13.460
 1258BOLB   C2C30186  14.230   3.180  13.380
 1258BOLB   C3C30187  14.250   3.540  13.630
 1258BOLB   C4C30188  14.040   3.630  13.900
 1258BOLB   C1D30189  14.530   2.630  13.820
 1258BOLB   C2D30190  14.670   3.050  13.570
 1258BOLB   C3D30191  14.690   3.260  13.210
 1258BOLB   C4D30192  14.760   3.650  13.050
 1259BOLB   NC130193  17.040  10.150   8.950
 1259BOLB   PO130194  16.680  10.080   8.810
 1259BOLB   GL130195  16.490  10.090   8.380
 1259BOLB   GL230196  16.390  10.330   8.200
 1259BOLB   C1A30197  16.390   9.800   7.960
 1259BOLB   C2A30198  16.490   9.760   7.570
 1259BOLB   C3A30199  16.400   9.770   7.200
 1259BOLB   C4A30200  16.230   9.640   6.750
 1259BOLB   C1B30201  16.290  10.250   7.790
 1259BOLB   C2B30202  16.020   9.930   7.540
 1259BOLB   C3B30203  15.830   9.760   7.200
 1259BOLB   C4B30204  15.510   9.720   6.990
 1259BOLB   NC230205  15.660   9.470   4.150
 1259BOLB   PO230206  15.330   9.470   4.550
 1259BOLB   GL330207  15.470   9.780   4.770
 1259BOLB   GL430208  15.290  10.160   4.810
 1259BOLB   C1C30209  15.620   9.880   5.170
 1259BOLB   C2C30210  15.840  10.090   5.460
 1259BOLB   C3C30211  15.970   9.970   5.940
 1259BOLB   C4C30212  16.210   9.780   6.290
 1259BOLB   C1D30213  15.180  10.210   5.290
 1259BOLB   C2D30214  15.030  10.080   5.660
 1259BOLB   C3D30215  14.660  10.300   5.930
 1259BOLB   C4D30216  14.190  10.330   5.770
 1260BOLB   NC130217  21.590  22.570  11.080
 1260BOLB   PO130218  21.300  22.760  10.850
 1260BOLB   GL130219  21.120  23.050  10.600
 1260BOLB   GL230220  21.350  23.100  10.470
 1260BOLB   C1A30221  20.860  23.500  10.670
 1260BOLB   C2A30222  20.790  23.820  10.530
 1260BOLB   C3A30223  20.970  24.170  10.550
 1260BOLB   C4A30224  21.320  24.330  10.560
 1260BOLB   C1B30225  21.680  23.430  10.540
 1260BOLB   C2B30226  21.620  23.880  10.460
 1260BOLB   C3B30227  21.700  24.240  10.110
 1260BOLB   C4B30228  21.820  24.510   9.760
 1260BOLB   NC230229  22.050  26.570   9.710
 1260BOLB   PO230230  22.430  26.350   9.500
 1260BOLB   GL330231  22.220  26.080   9.640
 1260BOLB   GL430232  22.430  25.990   9.880
 1260BOLB   C1C30233  21.810  25.880   9.880
 1260BOLB   C2C30234  21.660  25.610  10.240
 1260BOLB   C3C30235  21.600  25.180  10.350
 1260BOLB   C4C30236  21.440  24.740  10.340
 1260BOLB   C1D30237  22.260  25.600   9.900
 1260BOLB   C2D30238  22.310  25.150   9.780
 1260BOLB   C3D30239  22.370  24.690   9.890
 1260BOLB   C4D30240  22.200  24.410  10.090
 1261BOLB   NC130241  23.600  19.620   8.760
 1261BOLB   PO130242  23.590  19.850   9.060
 1261BOLB   GL130243  23.790  20.270   8.950
 1261BOLB   GL230244  23.520  20.540   9.030
 1261BOLB   C1A30245  23.860  20.650   8.690
 1261BOLB   C2A30246  23.950  21.080   8.550
 1261BOLB   C3A30247  24.100  21.500   8.540
 1261BOLB   C4A30248  24.120  21.590   8.080
 1261BOLB   C1B30249  23.460  20.910   8.780
 1261BOLB   C2B30250  23.490  21.210   8.550
 1261BOLB   C3B30251  23.630  21.490   8.310
 1261BOLB   C4B30252  23.640  21.690   7.910
 1261BOLB   NC230253  25.170  21.790   6.060
 1261BOLB   PO230254  25.170  22.200   6.210
 1261BOLB   GL330255  24.750  22.160   6.280
 1261BOLB   GL430256  24.690  21.950   6.220
 1261BOLB   C1C30257  24.350  22.140   6.560
 1261BOLB   C2C30258  24.190  22.090   6.980
 1261BOLB   C3C30259  24.150  21.850   7.360
 1261BOLB   C4C30260  24.080  21.740   7.660
 1261BOLB   C1D30261  24.730  21.720   6.580
 1261BOLB   C2D30262  24.350  21.600   6.730
 1261BOLB   C3D30263  24.410  21.490   7.120
 1261BOLB   C4D30264  24.600  21.060   7.290
 1262BOLB   NC130265  28.310  12.260  12.300
 1262BOLB   PO130266  27.960  12.520  12.360
 1262BOLB   GL130267  28.360  12.700  12.090
 1262BOLB   GL230268  28.520  12.430  11.910
 1262BOLB   C1A30269  28.890  12.700  12.000
 1262BOLB   C2A30270  29.270  12.770  11.910
 1262BOLB   C3A30271  29.520  12.560  11.470
 1262BOLB   C4A30272  29.740  12.430  11.010
 1262BOLB   C1B30273  28.900  12.280  11.730
 1262BOLB   C2B30274  29.230  12.130  11.450
 1262BOLB   C3B30275  29.460  11.810  11.460
 1262BOLB   C4B30276  29.590  11.510  11.140
 1262BOLB   NC230277  32.080  12.680   9.950
 1262BOLB   PO230278  31.720  12.450   9.780
 1262BOLB   GL330279  31.320  12.240   9.700
 1262BOLB   GL430280  31.170  12.450   9.720
 1262BOLB   C1C30281  31.030  12.220  10.090
 1262BOLB   C2C30282  30.700  12.450  10.210
 1262BOLB   C3C30283  30.340  12.500  10.470
 1262BOLB   C4C30284  30.080  12.290  10.850
 1262BOLB   C1D30285  30.670  12.310   9.680
 1262BOLB   C2D30286  30.300  12.540   9.750
 1262BOLB   C3D30287  30.010  12.770   9.520
 1262BOLB   C4D30288  29.690  13.030   9.330
 1263BOLB   NC130289  14.180  19.730   9.140
 1263BOLB   PO130290  14.460  19.660   8.810
 1263BOLB   GL130291  14.210  19.840   8.500
 1263BOLB   GL230292  14.240  19.440   8.360
 1263BOLB   C1A30293  14.100  20.110   8.260
 1263BOLB   C2A30294  13.790  20.420   8.200
 1263BOLB   C3A30295  13.510  20.490   7.820
 1263BOLB   C4A30296  13.120  20.650   7.720
 1263BOLB   C1B30297  14.170  19.590   7.930
 1263BOLB   C2B30298  14.170  19.790   7.570
 1263BOLB   C3B30299  13.710  19.810   7.390
 1263BOLB   C4B30300  13.380  19.720   7.150
 1263BOLB   NC230301  11.180  21.650   6.350
 1263BOLB   PO230302  11.480  21.900   6.550
 1263BOLB   GL330303  11.550  21.690   6.790
 1263BOLB   GL430304  11.310  21.630   7.030
 1263BOLB   C1C30305  11.830  21.520   7.170
 1263BOLB   C2C30306  12.270  21.370   7.320
 1263BOLB   C3C30307  12.460  21.070   7.610
 1263BOLB   C4C30308  12.730  20.650   7.630
 1263BOLB   C1D30309  11.360  21.160   7.250
 1263BOLB   C2D30310  11.420  20.720   7.160
 1263BOLB   C3D30311  11.170  20.410   7.280
 1263BOLB   C4D30312  11.020  20.320   7.680
 1264BOLB   NC130313  28.370  18.810   6.910
 1264BOLB   PO130314  28.490  19.230   7.070
 1264BOLB   GL130315  28.200  19.190   7.250
 1264BOLB   GL230316  27.890  19.070   7.210
 1264BOLB   C1A30317  27.900  19.540   7.370
 1264BOLB   C2A30318  27.460  19.610   7.520
 1264BOLB   C3A30319  27.060  19.490   7.660
 1264BOLB   C4A30320  26.690  19.210   7.570
 1264BOLB   C1B30321  27.570  19.000   7.550
 1264BOLB   C2B30322  27.410  19.110   7.910
 1264BOLB   C3B30323  27.130  19.240   8.160
 1264BOLB   C4B30324  26.630  19.280   8.040
 1264BOLB   NC230325  27.010  19.460   4.870
 1264BOLB   PO230326  27.240  19.320   5.250
 1264BOLB   GL330327  26.920  19.240   5.420
 1264BOLB   GL430328  26.860  19.550   5.500
 1264BOLB   C1C30329  26.850  19.090   5.810
 1264BOLB   C2C30330  26.610  19.080   6.230
 1264BOLB   C3C30331  26.570  18.830   6.700
 1264BOLB   C4C30332  26.560  18.950   7.150
 1264BOLB   C1D30333  26.480  19.520   5.790
 1264BOLB   C2D30334  26.070  19.620   5.900
 1264BOLB   C3D30335  25.650  19.370   5.770
 1264BOLB   C4D30336  25.240  19.360   5.610
 1265BOLB   NC130337  28.510  14.570  14.120
 1265BOLB   PO130338  28.530  14.160  14.420
 1265BOLB   GL130339  29.010  14.330  14.440
 1265BOLB   GL230340  29.280  14.120  14.310
 1265BOLB   C1A30341  29.350  14.570  14.530
 1265BOLB   C2A30342  29.810  14.620  14.460
 1265BOLB   C3A30343  30.180  14.570  14.720
 1265BOLB   C4A30344  30.460  14.300  14.980
 1265BOLB   C1B30345  29.630  14.120  14.500
 1265BOLB   C2B30346  30.040  14.160  14.330
 1265BOLB   C3B30347  30.290  14.610  14.270
 1265BOLB   C4B30348  30.540  14.690  13.920
 1265BOLB   NC230349  32.410  13.990  15.460
 1265BOLB   PO230350  32.610  14.340  15.710
 1265BOLB   GL330351  32.220  14.440  15.630
 1265BOLB   GL430352  32.140  14.720  15.830
 1265BOLB   C1C30353  31.800  14.380  15.800
 1265BOLB   C2C30354  31.340  14.430  15.840
 1265BOLB   C3C30355  30.920  14.500  15.630
 1265BOLB   C4C30356  30.630  14.310  15.330
 1265BOLB   C1D30357  31.770  14.880  15.620
 1265BOLB   C2D30358  31.340  14.870  15.540
 1265BOLB   C3D30359  30.840  14.940  15.400
 1265BOLB   C4D30360  30.460  14.760  15.110
 1266BOLB   NC130361  21.260  19.520   7.940
 1266BOLB   PO130362  21.530  19.290   7.720
 1266BOLB   GL130363  21.810  19.600   7.490
 1266BOLB   GL230364  22.100  19.720   7.510
 1266BOLB   C1A30365  21.720  19.750   7.110
 1266BOLB   C2A30366  21.450  19.600   6.690
 1266BOLB   C3A30367  21.130  19.640   6.370
 1266BOLB   C4A30368  21.140  19.640   5.930
 1266BOLB   C1B30369  22.380  19.840   7.180
 1266BOLB   C2B30370  22.450  20.310   7.030
 1266BOLB   C3B30371  22.400  20.720   6.870
 1266BOLB   C4B30372  22.640  21.010   6.620
 1266BOLB   NC230373  20.180  20.250   3.510
 1266BOLB   PO230374  20.490  19.990   3.730
 1266BOLB   GL330375  20.420  19.770   4.130
 1266BOLB   GL430376  20.210  19.500   4.040
 1266BOLB   C1C30377  20.690  19.610   4.420
 1266BOLB   C2C30378  21.130  19.480   4.710
 1266BOLB   C3C30379  21.040  19.470   5.130
 1266BOLB   C4C30380  20.950  19.500   5.590
 1266BOLB   C1D30381  20.340  19.230   4.430
 1266BOLB   C2D30382  20.550  19.370   4.860
 1266BOLB   C3D30383  20.340  19.230   5.360
 1266BOLB   C4D30384  20.590  19.200   5.710
 1267BOLB   NC130385  23.880  21.250  10.140
 1267BOLB   PO130386  23.930  20.770  10.230
 1267BOLB   GL130387  24.310  21.030  10.090
 1267BOLB   GL230388  24.330  21.220   9.860
 1267BOLB   C1A30389  24.720  21.250  10.260
 1267BOLB   C2A30390  24.920  21.510  10.110
 1267BOLB   C3A30391  25.280  21.920  10.260
 1267BOLB   C4A30392  25.420  22.210  10.550
 1267BOLB   C1B30393  24.530  21.660   9.750
 1267BOLB   C2B30394  24.950  21.720   9.600
 1267BOLB   C3B30395  25.380  21.940   9.800
 1267BOLB   C4B30396  25.870  21.870   9.790
 1267BOLB   NC230397  26.070  24.840   9.560
 1267BOLB   PO230398  26.300  24.360   9.560
 1267BOLB   GL330399  26.060  24.060   9.520
 1267BOLB   GL430400  25.960  23.960   9.240
 1267BOLB   C1C30401  25.790  23.670   9.700
 1267BOLB   C2C30402  25.720  23.170   9.970
 1267BOLB   C3C30403  25.520  22.860  10.250
 1267BOLB   C4C30404  25.420  22.600  10.550
 1267BOLB   C1D30405  26.060  23.550   9.310
 1267BOLB   C2D30406  25.760  23.230   9.440
 1267BOLB   C3D30407  25.310  23.080   9.360
 1267BOLB   C4D30408  25.020  22.970   9.020
 1268BOLB   NC130409  11.900  10.200  12.440
 1268BOLB   PO130410  11.810   9.720  12.440
 1268BOLB   GL130411  11.690   9.320  12.310
 1268BOLB   GL230412  11.770   9.390  12.040
 1268BOLB   C1A30413  11.540   8.960  12.050
 1268BOLB   C2A30414  11.450   8.620  11.750
 1268BOLB   C3A30415  11.390   8.230  11.490
 1268BOLB   C4A30416  11.580   7.830  11.490
 1268BOLB   C1B30417  11.480   9.310  11.650
 1268BOLB   C2B30418  11.300   9.090  11.370
 1268BOLB   C3B30419  11.350   8.710  11.170
 1268BOLB   C4B30420  11.200   8.460  10.850
 1268BOLB   NC230421  11.010   6.260  10.000
 1268BOLB   PO230422  10.890   6.470   9.570
 1268BOLB   GL330423  11.300   6.680   9.780
 1268BOLB   GL430424  11.550   6.650   9.580
 1268BOLB   C1C30425  11.300   6.940  10.110
 1268BOLB   C2C30426  11.220   7.140  10.470
 1268BOLB   C3C30427  11.340   7.220  10.920
 1268BOLB   C4C30428  11.420   7.560  11.160
 1268BOLB   C1D30429  11.610   7.070   9.760
 1268BOLB   C2D30430  11.600   7.380  10.170
 1268BOLB   C3D30431  12.000   7.520  10.400
 1268BOLB   C4D30432  12.380   7.730  10.530
 1269BOLB   NC130433  23.620  12.760   8.390
 1269BOLB   PO130434  23.370  12.560   8.050
 1269BOLB   GL130435  23.520  12.560   7.590
 1269BOLB   GL230436  23.320  12.830   7.550
 1269BOLB   C1A30437  23.560  12.570   7.190
 1269BOLB   C2A30438  23.780  12.850   6.810
 1269BOLB   C3A30439  23.890  12.850   6.400
 1269BOLB   C4A30440  24.010  12.910   5.920
 1269BOLB   C1B30441  23.180  12.910   6.950
 1269BOLB   C2B30442  23.230  12.960   6.470
 1269BOLB   C3B30443  23.080  13.140   6.010
 1269BOLB   C4B30444  22.990  13.490   5.630
 1269BOLB   NC230445  23.560  12.850   3.510
 1269BOLB   PO230446  23.170  13.070   3.570
 1269BOLB   GL330447  22.980  13.030   3.960
 1269BOLB   GL430448  22.660  12.870   4.090
 1269BOLB   C1C30449  23.140  12.900   4.430
 1269BOLB   C2C30450  23.370  13.020   4.750
 1269BOLB   C3C30451  23.670  13.140   5.100
 1269BOLB   C4C30452  23.800  12.870   5.450
 1269BOLB   C1D30453  22.700  12.650   4.470
 1269BOLB   C2D30454  22.520  12.800   4.930
 1269BOLB   C3D30455  22.170  12.680   5.030
 1269BOLB   C4D30456  21.700  12.810   5.040
 1270BOLB   NC130457  14.250  11.080   8.900
 1270BOLB   PO130458  13.920  11.460   8.860
 1270BOLB   GL130459  13.540  11.410   8.780
 1270BOLB   GL230460  13.420  11.690   8.990
 1270BOLB   C1A30461  13.190  11.420   8.580
 1270BOLB   C2A30462  12.950  11.260   8.200
 1270BOLB   C3A30463  13.030  11.250   7.770
 1270BOLB   C4A30464  13.120  11.180   7.310
 1270BOLB   C1B30465  13.100  11.930   8.780
 1270BOLB   C2B30466  12.910  11.770   8.350
 1270BOLB   C3B30467  12.560  11.520   8.140
 1270BOLB   C4B30468  12.360  11.770   7.840
 1270BOLB   NC230469  11.360  11.100   5.540
 1270BOLB   PO230470  11.420  11.590   5.540
 1270BOLB   GL330471  11.700  11.630   5.780
 1270BOLB   GL430472  11.880  11.900   5.590
 1270BOLB   C1C30473  12.090  11.590   6.000
 1270BOLB   C2C30474  12.180  11.610   6.500
 1270BOLB   C3C30475  12.490  11.470   6.940
 1270BOLB   C4C30476  12.930  11.320   6.970
 1270BOLB   C1D30477  11.860  12.010   6.010
 1270BOLB   C2D30478  11.680  11.870   6.290
 1270BOLB   C3D30479  11.730  11.820   6.760
 1270BOLB   C4D30480  12.120  11.970   6.990
 1271BOLB   NC130481  27.660  10.040  15.340
 1271BOLB   PO130482  28.050  10.170  15.190
 1271BOLB   GL130483  28.440   9.970  15.070
 1271BOLB   GL230484  28.530  10.230  14.880
 1271BOLB   C1A30485  28.790   9.660  14.970
 1271BOLB   C2A30486  29.130   9.410  15.070
 1271BOLB   C3A30487  29.430   9.130  14.800
 1271BOLB   C4A30488  29.880   8.920  14.550
 1271BOLB   C1B30489  29.010  10.120  14.960
 1271BOLB   C2B30490  29.210   9.990  15.260
 1271BOLB   C3B30491  29.680  10.090  15.430
 1271BOLB   C4B30492  29.890  10.480  15.450
 1271BOLB   NC230493  31.130   7.220  13.990
 1271BOLB   PO230494  30.850   7.180  13.640
 1271BOLB   GL330495  30.530   7.420  13.640
 1271BOLB   GL430496  30.230   7.190  13.600
 1271BOLB   C1C30497  30.030   7.650  13.750
 1271BOLB   C2C30498  29.990   7.880  14.190
 1271BOLB   C3C30499  30.140   8.310  14.390
 1271BOLB   C4C30500  30.240   8.670  14.450
 1271BOLB   C1D30501  29.900   7.150  13.210
 1271BOLB   C2D30502  29.640   7.410  13.190
 1271BOLB   C3D30503  29.280   7.530  13.400
 1271BOLB   C4D30504  29.060   7.830  13.730
 1272BOLB   NC130505  15.550  22.580  10.890
 1272BOLB   PO130506  15.770  22.690  10.570
 1272BOLB   GL130507  15.450  22.980  10.530
 1272BOLB   GL230508  15.200  22.970  10.930
 1272BOLB   C1A30509  15.330  23.360  10.490
 1272BOLB   C2A30510  15.290  23.740  10.380
 1272BOLB   C3A30511  15.320  24.060  10.460
 1272BOLB   C4A30512  15.200  24.480  10.540
 1272BOLB   C1B30513  14.990  23.250  10.830
 1272BOLB   C2B30514  14.880  23.660  10.770
 1272BOLB   C3B30515  14.960  24.060  10.760
 1272BOLB   C4B30516  14.900  24.450  10.940
 1272BOLB   NC230517  13.430  24.910   8.230
 1272BOLB   PO230518  13.510  24.760   8.620
 1272BOLB   GL330519  13.770  24.590   8.970
 1272BOLB   GL430520  14.010  24.610   8.810
 1272BOLB   C1C30521  13.990  24.430   9.380
 1272BOLB   C2C30522  14.300  24.490   9.710
 1272BOLB   C3C30523  14.620  24.620   9.990
 1272BOLB   C4C30524  15.050  24.660  10.200
 1272BOLB   C1D30525  14.380  24.380   9.070
 1272BOLB   C2D30526  14.640  24.170   9.460
 1272BOLB   C3D30527  14.890  24.250   9.840
 1272BOLB   C4D30528  14.810  24.120  10.300
 1273BOLB   NC130529  12.910   8.830  12.680
 1273BOLB   PO130530  12.440   8.820  12.480
 1273BOLB   GL130531  11.970   8.760  12.640
 1273BOLB   GL230532  11.850   8.730  12.900
 1273BOLB   C1A30533  11.550   8.620  12.400
 1273BOLB   C2A30534  11.370   8.240  12.380
 1273BOLB   C3A30535  10.930   8.060  12.290
 1273BOLB   C4A30536  10.620   8.180  12.020
 1273BOLB   C1B30537  11.640   8.360  12.760
 1273BOLB   C2B30538  11.200   8.050  12.810
 1273BOLB   C3B30539  10.710   7.890  12.810
 1273BOLB   C4B30540  10.410   7.920  12.490
 1273BOLB   NC230541   8.810   7.380  11.880
 1273BOLB   PO230542   8.900   7.500  11.390
 1273BOLB   GL330543   9.140   7.850  11.500
 1273BOLB   GL430544   8.940   8.080  11.420
 1273BOLB   C1C30545   9.430   8.120  11.760
 1273BOLB   C2C30546   9.740   8.510  11.760
 1273BOLB   C3C30547  10.150   8.640  11.860
 1273BOLB   C4C30548  10.490   8.550  11.940
 1273BOLB   C1D30549   9.060   8.450  11.740
 1273BOLB   C2D30550   9.220   8.820  11.860
 1273BOLB   C3D30551   9.390   9.170  12.010
 1273BOLB   C4D30552   9.370   9.530  12.090
 1274BOLB   NC130553  15.680  19.000   8.150
 1274BOLB   PO130554  16.150  18.910   8.050
 1274BOLB   GL130555  15.950  18.960   7.660
 1274BOLB   GL230556  15.620  19.050   7.640
 1274BOLB   C1A30557  16.080  19.190   7.300
 1274BOLB   C2A30558  16.050  19.400   7.010
 1274BOLB   C3A30559  16.080  19.610   6.610
 1274BOLB   C4A30560  15.960  20.010   6.400
 1274BOLB   C1B30561  15.670  19.430   7.490
 1274BOLB   C2B30562  15.620  19.640   7.130
 1274BOLB   C3B30563  15.640  19.340   6.730
 1274BOLB   C4B30564  15.720  19.160   6.310
 1274BOLB   NC230565  14.370  21.010   4.990
 1274BOLB   PO230566  14.450  20.700   4.700
 1274BOLB   GL330567  14.730  20.480   4.940
 1274BOLB   GL430568  14.700  20.190   5.130
 1274BOLB   C1C30569  15.130  20.520   5.150
 1274BOLB   C2C30570  15.290  20.280   5.450
 1274BOLB   C3C30571  15.670  20.130   5.550
 1274BOLB   C4C30572  15.840  20.100   5.910
 1274BOLB   C1D30573  14.950  19.930   5.360
 1274BOLB   C2D30574  15.120  19.770   5.680
 1274BOLB   C3D30575  15.260  19.850   5.990
 1274BOLB   C4D30576  15.420  19.690   6.400
 1275BOLB   NC130577  18.790  21.760   8.770
 1275BOLB   PO130578  19.270  21.770   8.800
 1275BOLB   GL130579  19.110  22.160   8.510
 1275BOLB   GL230580  19.450  22.240   8.540
 1275BOLB   C1A30581  19.060  22.210   8.110
 1275BOLB   C2A30582  18.890  22.470   7.750
 1275BOLB   C3A30583  18.970  22.690   7.390
 1275BOLB   C4A30584  19.160  23.050   7.290
 1275BOLB   C1B30585  19.580  22.350   8.150
 1275BOLB   C2B30586  19.360  22.590   7.700
 1275BOLB   C3B30587  19.500  22.630   7.290
 1275BOLB   C4B30588  19.960  22.780   7.130
 1275BOLB   NC230589  18.810  25.040   5.420
 1275BOLB   PO230590  18.460  24.970   5.740
 1275BOLB   GL330591  18.480  24.520   5.920
 1275BOLB   GL430592  18.850  24.250   5.890
 1275BOLB   C1C30593  18.530  24.290   6.230
 1275BOLB   C2C30594  18.750  23.930   6.430
 1275BOLB   C3C30595  18.770  23.660   6.790
 1275BOLB   C4C30596  18.930  23.450   7.090
 1275BOLB   C1D30597  19.020  23.840   6.000
 1275BOLB   C2D30598  19.140  23.600   6.320
 1275BOLB   C3D30599  19.380  23.290   6.410
 1275BOLB   C4D30600  19.470  22.800   6.500
 1276BOLB   NC130601  20.420  10.010   8.240
 1276BOLB   PO130602  20.390   9.600   8.420
 1276BOLB   GL130603  20.480   9.470   8.050
 1276BOLB   GL230604  20.390   9.220   7.900
 1276BOLB   C1A30605  20.810   9.250   7.690
 1276BOLB   C2A30606  21.020   9.140   7.340
 1276BOLB   C3A30607  21.030   9.100   6.880
 1276BOLB   C4A30608  20.950   9.150   6.520
 1276BOLB   C1B30609  20.220   8.730   7.730
 1276BOLB   C2B30610  20.270   8.470   7.410
 1276BOLB   C3B30611  20.310   8.200   7.170
 1276BOLB   C4B30612  20.430   7.930   7.010
 1276BOLB   NC230613  21.550   9.170   3.890
 1276BOLB   PO230614  21.650   8.850   4.160
 1276BOLB   GL330615  21.460   8.860   4.580
 1276BOLB   GL430616  21.160   8.810   4.680
 1276BOLB   C1C30617  21.630   8.890   5.020
 1276BOLB   C2C30618  21.450   9.020   5.330
 1276BOLB   C3C30619  21.290   8.970   5.740
 1276BOLB   C4C30620  21.010   8.990   6.140
 1276BOLB   C1D30621  21.180   9.170   4.920
 1276BOLB   C2D30622  21.100   9.460   5.150
 1276BOLB   C3D30623  21.210   9.850   5.200
 1276BOLB   C4D30624  21.480  10.170   5.510
 1277BOLB   NC130625  17.110  23.700  12.430
 1277BOLB   PO130626  16.710  23.460  12.610
 1277BOLB   GL130627  16.660  23.940  12.430
 1277BOLB   GL230628  16.720  24.120  12.720
 1277BOLB   C1A30629  16.430  24.300  12.190
 1277BOLB   C2A30630  16.520  24.390  11.710
 1277BOLB   C3A30631  16.420  24.770  11.460
 1277BOLB   C4A30632  16.270  24.950  11.050
 1277BOLB   C1B30633  16.500  24.470  12.960
 1277BOLB   C2B30634  16.180  24.620  12.570
 1277BOLB   C3B30635  15.940  24.980  12.400
 1277BOLB   C4B30636  15.650  25.160  12.480
 1277BOLB   NC230637  16.240  26.810   9.760
 1277BOLB   PO230638  16.110  26.820  10.200
 1277BOLB   GL330639  15.740  26.530  10.370
 1277BOLB   GL430640  15.480  26.410  10.240
 1277BOLB   C1C30641  15.830  26.180  10.650
 1277BOLB   C2C30642  15.720  25.780  10.480
 1277BOLB   C3C30643  16.110  25.530  10.420
 1277BOLB   C4C30644  16.370  25.220  10.690
 1277BOLB   C1D30645  15.280  26.280  10.650
 1277BOLB   C2D30646  15.380  25.860  10.850
 1277BOLB   C3D30647  15.620  25.540  10.950
 1277BOLB   C4D30648  15.860  25.250  10.730
 1278BOLB   NC130649  22.400  12.460   7.780
 1278BOLB   PO130650  21.960  12.610   7.590
 1278BOLB   GL130651  21.970  12.730   7.170
 1278BOLB   GL230652  22.150  12.870   7.070
 1278BOLB   C1A30653  21.760  12.770   6.740
 1278BOLB   C2A30654  21.630  12.670   6.380
 1278BOLB   C3A30655  21.780  12.360   6.030
 1278BOLB   C4A30656  22.010  12.050   5.910
 1278BOLB   C1B30657  22.320  12.690   6.780
 1278BOLB   C2B30658  22.160  12.710   6.420
 1278BOLB   C3B30659  22.340  12.550   6.040
 1278BOLB   C4B30660  22.540  12.160   5.890
 1278BOLB   NC230661  23.110  12.000   3.720
 1278BOLB   PO230662  23.210  11.570   3.640
 1278BOLB   GL330663  22.980  11.430   4.020
 1278BOLB   GL430664  22.890  11.190   4.090
 1278BOLB   C1C30665  22.780  11.700   4.320
 1278BOLB   C2C30666  22.550  11.810   4.760
 1278BOLB   C3C30667  22.490  11.920   5.230
 1278BOLB   C4C30668  22.270  12.170   5.520
 1278BOLB   C1D30669  22.900  11.230   4.490
 1278BOLB   C2D30670  22.950  11.430   4.820
 1278BOLB   C3D30671  23.010  11.940   4.910
 1278BOLB   C4D30672  23.290  12.150   5.000
 1279BOLB   NC130673  18.980  14.890   7.100
 1279BOLB   PO130674  18.480  14.910   7.110
 1279BOLB   GL130675  18.410  14.820   6.700
 1279BOLB   GL230676  18.730  14.730   6.670
 1279BOLB   C1A30677  18.490  14.960   6.300
 1279BOLB   C2A30678  18.370  15.060   5.800
 1279BOLB   C3A30679  18.080  15.080   5.520
 1279BOLB   C4A30680  17.880  15.290   5.180
 1279BOLB   C1B30681  18.910  14.730   6.150
 1279BOLB   C2B30682  18.820  14.870   5.710
 1279BOLB   C3B30683  18.800  14.900   5.280
 1279BOLB   C4B30684  18.840  15.050   4.810
 1279BOLB   NC230685  17.470  14.040   3.400
 1279BOLB   PO230686  17.770  14.380   3.380
 1279BOLB   GL330687  17.860  14.280   3.740
 1279BOLB   GL430688  17.810  13.880   3.780
 1279BOLB   C1C30689  17.730  14.230   4.090
 1279BOLB   C2C30690  17.400  14.290   4.350
 1279BOLB   C3C30691  17.330  14.650   4.590
 1279BOLB   C4C30692  17.620  14.950   4.810
 1279BOLB   C1D30693  18.190  13.860   4.060
 1279BOLB   C2D30694  18.580  13.740   4.400
 1279BOLB   C3D30695  18.800  13.590   4.690
 1279BOLB   C4D30696  19.120  13.660   4.910
 1280BOLB   NC130697  16.720   8.410  10.520
 1280BOLB   PO130698  16.870   8.030  10.620
 1280BOLB   GL130699  16.640   7.930  10.240
 1280BOLB   GL230700  16.630   7.560  10.240
 1280BOLB   C1A30701  16.350   7.850   9.870
 1280BOLB   C2A30702  16.210   7.690   9.480
 1280BOLB   C3A30703  16.070   7.360   9.180
 1280BOLB   C4A30704  15.890   6.940   8.880
 1280BOLB   C1B30705  16.470   7.380   9.850
 1280BOLB   C2B30706  16.160   7.130   9.630
 1280BOLB   C3B30707  15.830   6.830   9.330
 1280BOLB   C4B30708  15.450   6.610   9.410
 1280BOLB   NC230709  14.160   5.630   7.570
 1280BOLB   PO230710  14.460   5.800   7.530
 1280BOLB   GL330711  14.490   6.080   7.830
 1280BOLB   GL430712  14.260   6.040   7.920
 1280BOLB   C1C30713  14.780   6.370   8.000
 1280BOLB   C2C30714  15.060   6.700   8.020
 1280BOLB   C3C30715  15.410   6.880   8.190
 1280BOLB   C4C30716  15.630   6.880   8.490
 1280BOLB   C1D30717  14.290   6.160   8.330
 1280BOLB   C2D30718  14.450   6.320   8.690
 1280BOLB   C3D30719  14.600   6.510   8.960
 1280BOLB   C4D30720  14.900   6.890   9.080
 1281BOLB   NC130721  15.390  22.790  11.730
 1281BOLB   PO130722  15.730  23.170  11.820
 1281BOLB   GL130723  15.720  23.570  11.650
 1281BOLB   GL230724  15.440  23.730  11.470
 1281BOLB   C1A30725  15.830  23.960  11.760
 1281BOLB   C2A30726  15.970  24.370  11.910
 1281BOLB   C3A30727  16.100  24.800  11.860
 1281BOLB   C4A30728  16.330  25.180  11.740
 1281BOLB   C1B30729  15.640  24.120  11.380
 1281BOLB   C2B30730  15.840  24.550  11.050
 1281BOLB   C3B30731  15.970  24.740  11.360
 1281BOLB   C4B30732  15.660  24.900  11.690
 1281BOLB   NC230733  16.240  27.310  10.420
 1281BOLB   PO230734  16.010  27.050  10.660
 1281BOLB   GL330735  16.260  26.740  10.760
 1281BOLB   GL430736  16.590  26.790  10.570
 1281BOLB   C1C30737  16.280  26.280  10.920
 1281BOLB   C2C30738  16.070  25.830  10.940
 1281BOLB   C3C30739  16.110  25.480  11.220
 1281BOLB   C4C30740  16.090  25.300  11.490
 1281BOLB   C1D30741  16.670  26.310  10.570
 1281BOLB   C2D30742  16.660  25.900  10.840
 1281BOLB   C3D30743  16.540  25.570  11.000
 1281BOLB   C4D30744  16.540  25.300  11.300
 1282BOLB   NC130745  17.400  22.720  10.190
 1282BOLB   PO130746  17.120  22.450  10.110
 1282BOLB   GL130747  16.860  22.710   9.710
 1282BOLB   GL230748  16.610  22.890   9.810
 1282BOLB   C1A30749  16.880  22.810   9.210
 1282BOLB   C2A30750  16.970  23.000   8.800
 1282BOLB   C3A30751  16.890  23.220   8.470
 1282BOLB   C4A30752  16.930  23.700   8.230
 1282BOLB   C1B30753  16.550  23.280   9.560
 1282BOLB   C2B30754  16.490  23.670   9.440
 1282BOLB   C3B30755  16.620  24.070   9.270
 1282BOLB   C4B30756  16.650  24.320   8.850
 1282BOLB   NC230757  15.990  24.720   5.910
 1282BOLB   PO230758  16.100  24.310   6.020
 1282BOLB   GL330759  16.370  24.160   6.310
 1282BOLB   GL430760  16.340  23.950   6.630
 1282BOLB   C1C30761  16.790  24.150   6.600
 1282BOLB   C2C30762  17.020  24.100   7.060
 1282BOLB   C3C30763  17.180  23.800   7.400
 1282BOLB   C4C30764  17.160  23.820   7.880
 1282BOLB   C1D30765  16.610  23.780   6.940
 1282BOLB   C2D30766  16.720  23.620   7.240
 1282BOLB   C3D30767  16.810  23.510   7.720
 1282BOLB   C4D30768  16.650  23.310   8.060
 1283BOLB   NC130769  14.950  22.100  11.240
 1283BOLB   PO130770  15.060  21.850  10.850
 1283BOLB   GL130771  14.960  22.270  10.730
 1283BOLB   GL230772  15.020  22.500  10.920
 1283BOLB   C1A30773  14.530  22.450  10.780
 1283BOLB   C2A30774  14.260  22.750  10.750
 1283BOLB   C3A30775  13.810  22.960  10.470
 1283BOLB   C4A30776  13.450  23.200  10.610
 1283BOLB   C1B30777  14.920  22.820  10.610
 1283BOLB   C2B30778  14.890  23.210  10.340
 1283BOLB   C3B30779  14.820  23.590  10.290
 1283BOLB   C4B30780  14.470  23.810  10.500
 1283BOLB   NC230781  13.220  25.990  10.410
 1283BOLB   PO230782  13.350  25.720  10.100
 1283BOLB   GL330783  13.380  25.270  10.250
 1283BOLB   GL430784  13.550  25.150  10.490
 1283BOLB   C1C30785  13.240  24.820  10.300
 1283BOLB   C2C30786  13.310  24.480  10.530
 1283BOLB   C3C30787  13.380  24.020  10.620
 1283BOLB   C4C30788  13.510  23.630  10.650
 1283BOLB   C1D30789  13.850  24.880  10.480
 1283BOLB   C2D30790  14.220  24.620  10.300
 1283BOLB   C3D30791  14.330  24.220  10.140
 1283BOLB   C4D30792  14.600  23.840   9.940
 1284BOLB   NC130793  19.880  17.670   7.130
 1284BOLB   PO130794  19.700  18.100   7.260
 1284BOLB   GL130795  19.510  18.000   6.880
 1284BOLB   GL230796  19.640  17.720   6.630
 1284BOLB   C1A30797  19.390  18.170   6.500
 1284BOLB   C2A30798  19.570  18.290   6.090
 1284BOLB   C3A30799  19.670  18.170   5.680
 1284BOLB   C4A30800  19.590  18.130   5.170
 1284BOLB   C1B30801  19.760  17.780   6.220
 1284BOLB   C2B30802  19.860  17.750   5.810
 1284BOLB   C3B30803  20.020  17.930   5.400
 1284BOLB   C4B30804  20.230  18.100   4.990
 1284BOLB   NC230805  18.810  18.610   3.200
 1284BOLB   PO230806  19.120  18.930   3.040
 1284BOLB   GL330807  19.280  18.760   3.420
 1284BOLB   GL430808  19.520  18.690   3.460
 1284BOLB   C1C30809  19.230  18.520   3.790
 1284BOLB   C2C30810  19.340  18.310   4.120
 1284BOLB   C3C30811  19.550  18.450   4.570
 1284BOLB   C4C30812  19.330  18.280   4.900
 1284BOLB   C1D30813  19.780  18.650   3.810
 1284BOLB   C2D30814  19.960  18.370   4.140
 1284BOLB   C3D30815  20.180  17.930   4.310
 1284BOLB   C4D30816  20.210  17.740   4.700
 1285BOLB   NC130817  16.110  18.070   7.950
 1285BOLB   PO130818  16.020  17.990   7.560
 1285BOLB   GL130819  15.840  18.130   7.330
 1285BOLB   GL230820  15.760  18.470   7.530
 1285BOLB   C1A30821  15.870  18.390   6.930
 1285BOLB   C2A30822  15.930  18.340   6.460
 1285BOLB   C3A30823  15.830  18.190   6.170
 1285BOLB   C4A30824  15.850  18.260   5.680
 1285BOLB   C1B30825  15.720  18.740   7.260
 1285BOLB   C2B30826  15.570  19.050   7.130
 1285BOLB   C3B30827  15.170  19.260   7.010
 1285BOLB   C4B30828  14.700  19.290   7.140
 1285BOLB   NC230829  14.040  18.510   4.180
 1285BOLB   PO230830  14.450  18.710   4.350
 1285BOLB   GL330831  14.930  18.670   4.390
 1285BOLB   GL430832  14.900  19.070   4.510
 1285BOLB   C1C30833  15.270  18.470   4.600
 1285BOLB   C2C30834  15.240  18.020   4.770
 1285BOLB   C3C30835  15.430  17.900   5.100
 1285BOLB   C4C30836  15.600  18.140   5.300
 1285BOLB   C1D30837  15.320  18.950   4.620
 1285BOLB   C2D30838  15.400  18.720   5.090
 1285BOLB   C3D30839  15.370  18.670   5.540
 1285BOLB   C4D30840  15.270  18.300   5.900
 1286BOLB   NC130841  22.740   9.950   8.270
 1286BOLB   PO130842  22.480  10.300   8.140
 1286BOLB   GL130843  22.340  10.160   7.740
 1286BOLB   GL230844  22.060  10.170   7.760
 1286BOLB   C1A30845  22.380  10.020   7.310
 1286BOLB   C2A30846  22.170   9.840   6.970
 1286BOLB   C3A30847  22.140   9.590   6.660
 1286BOLB   C4A30848  22.160   9.230   6.410
 1286BOLB   C1B30849  21.920  10.030   7.560
 1286BOLB   C2B30850  21.780  10.090   7.140
 1286BOLB   C3B30851  21.680   9.980   6.710
 1286BOLB   C4B30852  21.810   9.680   6.330
 1286BOLB   NC230853  20.730   7.700   4.910
 1286BOLB   PO230854  21.110   8.010   4.750
 1286BOLB   GL330855  21.460   8.100   4.970
 1286BOLB   GL430856  21.410   8.430   4.980
 1286BOLB   C1C30857  21.640   7.910   5.360
 1286BOLB   C2C30858  21.920   8.070   5.620
 1286BOLB   C3C30859  22.040   8.390   5.930
 1286BOLB   C4C30860  22.020   8.800   6.250
 1286BOLB   C1D30861  21.320   8.530   5.390
 1286BOLB   C2D30862  21.190   8.490   6.000
 1286BOLB   C3D30863  21.120   8.560   6.490
 1286BOLB   C4D30864  21.220   8.490   6.980
 1287BOLB   NC130865  20.090   7.720   9.250
 1287BOLB   PO130866  19.790   7.460   9.340
 1287BOLB   GL130867  19.980   7.320   9.010
 1287BOLB   GL230868  20.090   7.060   9.140
 1287BOLB   C1A30869  19.790   7.100   8.660
 1287BOLB   C2A30870  19.820   6.700   8.550
 1287BOLB   C3A30871  20.030   6.380   8.520
 1287BOLB   C4A30872  19.880   5.970   8.400
 1287BOLB   C1B30873  20.030   6.570   9.080
 1287BOLB   C2B30874  20.070   6.190   9.010
 1287BOLB   C3B30875  20.180   5.790   8.900
 1287BOLB   C4B30876  20.330   5.400   8.980
 1287BOLB   NC230877  18.800   3.800   7.180
 1287BOLB   PO230878  19.200   4.020   7.110
 1287BOLB   GL330879  19.340   4.350   7.380
 1287BOLB   GL430880  19.290   4.440   7.660
 1287BOLB   C1C30881  19.630   4.670   7.410
 1287BOLB   C2C30882  19.710   5.020   7.560
 1287BOLB   C3C30883  19.940   5.200   7.910
 1287BOLB   C4C30884  19.830   5.570   8.120
 1287BOLB   C1D30885  19.660   4.680   7.900
 1287BOLB   C2D30886  19.990   4.750   8.210
 1287BOLB   C3D30887  20.200   5.050   8.330
 1287BOLB   C4D30888  20.360   5.450   8.410
 1288BOLB   NC130889  24.830   8.060  10.410
 1288BOLB   PO130890  24.500   8.230  10.130
 1288BOLB   GL130891  24.930   8.040   9.890
 1288BOLB   GL230892  25.080   8.260   9.980
 1288BOLB   C1A30893  25.080   7.710   9.610
 1288BOLB   C2A30894  25.310   7.410   9.620
 1288BOLB   C3A30895  25.640   7.330   9.410
 1288BOLB   C4A30896  26.030   7.250   9.410
 1288BOLB   C1B30897  25.430   8.220   9.740
 1288BOLB   C2B30898  25.630   7.850   9.500
 1288BOLB   C3B30899  25.970   7.800   9.270
 1288BOLB   C4B30900  26.160   7.540   8.900
 1288BOLB   NC230901  27.900   5.960   7.850
 1288BOLB   PO230902  27.780   6.400   7.840
 1288BOLB   GL330903  27.390   6.520   8.140
 1288BOLB   GL430904  27.090   6.190   8.090
 1288BOLB   C1C30905  27.300   6.690   8.450
 1288BOLB   C2C30906  27.120   6.770   8.920
 1288BOLB   C3C30907  26.790   6.890   9.110
 1288BOLB   C4C30908  26.470   7.010   9.310
 1288BOLB   C1D30909  26.820   6.550   8.230
 1288BOLB   C2D30910  26.770   6.820   8.640
 1288BOLB   C3D30911  26.520   7.220   8.780
 1288BOLB   C4D30912  26.630   7.670   8.870
 1289BOLB   NC130913  22.410  20.370   8.110
 1289BOLB   PO130914  22.470  19.870   8.310
 1289BOLB   GL130915  22.600  19.980   7.920
 1289BOLB   GL230916  22.770  20.230   7.830
 1289BOLB   C1A30917  22.810  19.800   7.550
 1289BOLB   C2A30918  22.890  19.950   7.220
 1289BOLB   C3A30919  23.270  20.010   6.990
 1289BOLB   C4A30920  23.560  20.230   6.790
 1289BOLB   C1B30921  22.790  20.490   7.470
 1289BOLB   C2B30922  22.920  20.560   7.010
 1289BOLB   C3B30923  23.120  20.880   6.830
 1289BOLB   C4B30924  23.410  20.890   6.710
 1289BOLB   NC230925  22.800  22.130   4.960
 1289BOLB   PO230926  22.820  21.620   5.010
 1289BOLB   GL330927  23.080  21.420   5.270
 1289BOLB   GL430928  22.710  21.210   5.340
 1289BOLB   C1C30929  23.250  21.290   5.640
 1289BOLB   C2C30930  23.460  21.000   5.980
 1289BOLB   C3C30931  23.470  20.670   6.220
 1289BOLB   C4C30932  23.690  20.460   6.540
 1289BOLB   C1D30933  22.340  20.990   5.370
 1289BOLB   C2D30934  22.010  20.810   5.310
 1289BOLB   C3D30935  21.610  20.760   5.370
 1289BOLB   C4D30936  21.360  21.010   5.630
 1290BOLB   NC130937  13.190  19.770   9.730
 1290BOLB   PO130938  13.170  20.160   9.890
 1290BOLB   GL130939  12.820  20.370   9.830
 1290BOLB   GL230940  12.510  20.350  10.050
 1290BOLB   C1A30941  12.660  20.730   9.670
 1290BOLB   C2A30942  12.430  20.980   9.560
 1290BOLB   C3A30943  12.020  20.980   9.370
 1290BOLB   C4A30944  11.720  21.090   9.130
 1290BOLB   C1B30945  12.280  20.640  10.150
 1290BOLB   C2B30946  12.100  20.940   9.960
 1290BOLB   C3B30947  12.240  21.430   9.750
 1290BOLB   C4B30948  12.370  21.630   9.480
 1290BOLB   NC230949  10.130  22.110   8.370
 1290BOLB   PO230950   9.800  21.810   8.750
 1290BOLB   GL330951  10.180  21.730   8.690
 1290BOLB   GL430952  10.410  21.980   8.980
 1290BOLB   C1C30953  10.450  21.500   8.880
 1290BOLB   C2C30954  10.810  21.340   8.980
 1290BOLB   C3C30955  11.290  21.440   8.690
 1290BOLB   C4C30956  11.560  21.170   8.720
 1290BOLB   C1D30957  10.540  21.650   9.360
 1290BOLB   C2D30958  10.650  21.670   9.730
 1290BOLB   C3D30959  11.010  21.440   9.890
 1290BOLB   C4D30960  11.270  21.200  10.170
 1291BOLB   NC130961  16.850   5.470  13.550
 1291BOLB   PO130962  16.580   5.390  13.860
 1291BOLB   GL130963  16.340   5.110  13.710
 1291BOLB   GL230964  16.470   5.120  13.310
 1291BOLB   C1A30965  16.340   4.710  13.580
 1291BOLB   C2A30966  16.200   4.450  13.160
 1291BOLB   C3A30967  16.170   4.130  12.800
 1291BOLB   C4A30968  16.330   3.760  12.720
 1291BOLB   C1B30969  16.180   4.930  12.920
 1291BOLB   C2B30970  15.960   4.570  12.720
 1291BOLB   C3B30971  15.630   4.200  12.680
 1291BOLB   C4B30972  15.500   3.940  13.030
 1291BOLB   NC230973  16.700   1.770  12.100
 1291BOLB   PO230974  17.130   1.590  11.980
 1291BOLB   GL330975  17.030   2.060  11.890
 1291BOLB   GL430976  16.870   2.230  12.280
 1291BOLB   C1C30977  17.030   2.560  11.860
 1291BOLB   C2C30978  16.770   2.960  11.820
 1291BOLB   C3C30979  16.590   3.190  12.060
 1291BOLB   C4C30980  16.590   3.560  12.350
 1291BOLB   C1D30981  17.260   2.430  12.240
 1291BOLB   C2D30982  17.540   2.650  12.000
 1291BOLB   C3D30983  17.930   2.730  11.940
 1291BOLB   C4D30984  18.120   3.100  11.640
 1292BOLB   NC130985  20.950   5.610  17.100
 1292BOLB   PO130986  20.860   5.660  17.410
 1292BOLB   GL130987  21.060   5.330  17.540
 1292BOLB   GL230988  20.750   5.300  17.740
 1292BOLB   C1A30989  21.170   4.940  17.770
 1292BOLB   C2A30990  21.420   4.610  17.880
 1292BOLB   C3A30991  21.450   4.220  17.930
 1292BOLB   C4A30992  21.650   3.980  18.190
 1292BOLB   C1B30993  20.700   4.970  18.050
 1292BOLB   C2B30994  20.830   4.760  18.300
 1292BOLB   C3B30995  21.170   4.510  18.560
 1292BOLB   C4B30996  21.370   4.160  18.670
 1292BOLB   NC230997  23.300   2.890  19.670
 1292BOLB   PO230998  23.470   2.890  19.310
 1292BOLB   GL330999  23.170   3.160  19.150
 1292BOLB   GL431000  23.010   3.220  19.410
 1292BOLB   C1C31001  22.950   3.310  18.770
 1292BOLB   C2C31002  22.680   3.240  18.350
 1292BOLB   C3C31003  22.350   3.430  18.240
 1292BOLB   C4C31004  22.090   3.750  18.300
 1292BOLB   C1D31005  22.990   3.690  19.490
 1292BOLB   C2D31006  23.070   4.230  19.230
 1292BOLB   C3D31007  23.210   4.630  19.150
 1292BOLB   C4D31008  23.530   4.850  19.220
 1293BOLB   NC131009  14.770  21.010  10.670
 1293BOLB   PO131010  14.380  21.120  10.410
 1293BOLB   GL131011  14.100  21.430  10.180
 1293BOLB   GL231012  14.240  21.310   9.880
 1293BOLB   C1A31013  13.710  21.670   9.850
 1293BOLB   C2A31014  13.650  22.040   9.610
 1293BOLB   C3A31015  13.280  22.200   9.660
 1293BOLB   C4A31016  13.060  22.450   9.380
 1293BOLB   C1B31017  13.980  21.420   9.400
 1293BOLB   C2B31018  13.600  21.590   9.270
 1293BOLB   C3B31019  13.340  22.030   9.140
 1293BOLB   C4B31020  13.050  22.140   8.840
 1293BOLB   NC231021  11.250  23.330   7.910
 1293BOLB   PO231022  11.620  23.520   7.690
 1293BOLB   GL331023  11.830  23.360   8.060
 1293BOLB   GL431024  12.240  23.550   7.960
 1293BOLB   C1C31025  11.930  22.950   8.340
 1293BOLB   C2C31026  12.350  22.840   8.560
 1293BOLB   C3C31027  12.740  22.540   8.680
 1293BOLB   C4C31028  12.740  22.520   9.120
 1293BOLB   C1D31029  12.410  23.130   8.120
 1293BOLB   C2D31030  12.660  22.730   8.180
 1293BOLB   C3D31031  12.680  22.410   8.220
 1293BOLB   C4D31032  12.430  22.110   8.070
 1294BOLB   NC131033  12.910   8.990  12.140
 1294BOLB   PO131034  12.550   8.840  11.950
 1294BOLB   GL131035  12.170   8.860  11.770
 1294BOLB   GL231036  12.040   8.750  12.110
 1294BOLB   C1A31037  11.990   8.540  11.580
 1294BOLB   C2A31038  11.970   8.170  11.600
 1294BOLB   C3A31039  12.130   7.770  11.490
 1294BOLB   C4A31040  12.140   7.500  11.650
 1294BOLB   C1B31041  11.840   8.430  12.070
 1294BOLB   C2B31042  11.560   8.040  11.940
 1294BOLB   C3B31043  11.220   7.880  11.830
 1294BOLB   C4B31044  10.810   7.680  11.970
 1294BOLB   NC231045  10.370   6.130  10.670
 1294BOLB   PO231046  10.740   6.240  10.470
 1294BOLB   GL331047  11.030   6.120  10.820
 1294BOLB   GL431048  10.960   5.970  11.000
 1294BOLB   C1C31049  11.390   6.070  11.190
 1294BOLB   C2C31050  11.370   6.290  11.580
 1294BOLB   C3C31051  11.620   6.710  11.730
 1294BOLB   C4C31052  11.880   7.110  11.800
 1294BOLB   C1D31053  10.980   6.420  11.230
 1294BOLB   C2D31054  11.220   6.810  11.310
 1294BOLB   C3D31055  11.520   7.130  11.470
 1294BOLB   C4D31056  11.890   7.190  11.270
 1295BOLB   NC131057  26.230  13.370   9.890
 1295BOLB   PO131058  26.390  13.500   9.510
 1295BOLB   GL131059  26.650  13.790   9.180
 1295BOLB   GL231060  26.480  14.050   8.930
 1295BOLB   C1A31061  26.830  13.590   8.750
 1295BOLB   C2A31062  27.060  13.690   8.400
 1295BOLB   C3A31063  27.420  13.820   8.090
 1295BOLB   C4A31064  27.580  13.650   7.760
 1295BOLB   C1B31065  26.870  14.090   8.650
 1295BOLB   C2B31066  27.110  14.370   8.360
 1295BOLB   C3B31067  27.140  14.670   8.110
 1295BOLB   C4B31068  27.060  14.850   7.700
 1295BOLB   NC231069  29.550  12.920   6.700
 1295BOLB   PO231070  29.340  12.650   6.340
 1295BOLB   GL331071  29.070  12.720   6.730
 1295BOLB   GL431072  29.180  12.820   7.040
 1295BOLB   C1C31073  28.700  12.760   7.070
 1295BOLB   C2C31074  28.320  12.850   7.290
 1295BOLB   C3C31075  27.920  12.960   7.560
 1295BOLB   C4C31076  27.620  13.250   7.670
 1295BOLB   C1D31077  29.000  12.360   7.090
 1295BOLB   C2D31078  28.920  12.010   7.380
 1295BOLB   C3D31079  28.910  11.720   7.740
 1295BOLB   C4D31080  28.850  11.310   7.940
 1296BOLB   NC131081  24.020  18.900   8.310
 1296BOLB   PO131082  24.370  18.880   8.650
 1296BOLB   GL131083  24.350  19.330   8.380
 1296BOLB   GL231084  24.040  19.400   8.390
 1296BOLB   C1A31085  24.680  19.750   8.380
 1296BOLB   C2A31086  24.940  19.880   8.170
 1296BOLB   C3A31087  25.300  20.100   8.000
 1296BOLB   C4A31088  25.600  20.270   7.730
 1296BOLB   C1B31089  24.070  19.520   7.920
 1296BOLB   C2B31090  24.310  19.460   7.550
 1296BOLB   C3B31091  24.250  19.550   7.130
 1296BOLB   C4B31092  24.410  19.700   6.740
 1296BOLB   NC231093  26.610  22.130   6.510
 1296BOLB   PO231094  26.110  22.040   6.330
 1296BOLB   GL331095  25.990  21.820   6.640
 1296BOLB   GL431096  25.750  21.950   6.810
 1296BOLB   C1C31097  25.990  21.600   7.110
 1296BOLB   C2C31098  25.720  21.330   7.300
 1296BOLB   C3C31099  25.760  20.870   7.410
 1296BOLB   C4C31100  25.860  20.360   7.510
 1296BOLB   C1D31101  25.660  22.080   7.300
 1296BOLB   C2D31102  25.370  22.090   7.580
 1296BOLB   C3D31103  25.020  21.750   7.620
 1296BOLB   C4D31104  24.580  21.570   7.630
 1297BOLB   NC131105  11.820   9.420  15.210
 1297BOLB   PO131106  12.160   9.130  15.180
 1297BOLB   GL131107  11.730   8.920  15.280
 1297BOLB   GL231108  11.520   9.010  15.520
 1297BOLB   C1A31109  11.470   8.590  15.150
 1297BOLB   C2A31110  11.030   8.420  15.220
 1297BOLB   C3A31111  10.850   8.010  15.330
 1297BOLB   C4A31112  10.580   7.640  15.390
 1297BOLB   C1B31113  11.080   9.000  15.500
 1297BOLB   C2B31114  10.710   8.710  15.520
 1297BOLB   C3B31115  10.410   8.420  15.440
 1297BOLB   C4B31116  10.120   8.210  15.670
 1297BOLB   NC231117   8.970   5.910  15.220
 1297BOLB   PO231118   9.200   5.460  15.480
 1297BOLB   GL331119   9.370   5.870  15.550
 1297BOLB   GL431120   9.320   6.240  15.730
 1297BOLB   C1C31121   9.720   6.160  15.360
 1297BOLB   C2C31122  10.110   6.410  15.230
 1297BOLB   C3C31123  10.290   6.760  15.460
 1297BOLB   C4C31124  10.540   7.260  15.460
 1297BOLB   C1D31125   9.690   6.150  15.860
 1297BOLB   C2D31126  10.120   6.250  15.730
 1297BOLB   C3D31127  10.490   6.300  16.020
 1297BOLB   C4D31128  10.800   5.940  16.110
 1298BOLB   NC131129  14.230  14.160   8.190
 1298BOLB   PO131130  14.080  14.510   8.010
 1298BOLB   GL131131  13.970  14.530   7.710
 1298BOLB   GL231132  13.940  14.180   7.660
 1298BOLB   C1A31133  13.710  14.700   7.450
 1298BOLB   C2A31134  13.480  14.770   7.120
 1298BOLB   C3A31135  13.300  14.640   6.670
 1298BOLB   C4A31136  13.220  14.540   6.240
 1298BOLB   C1B31137  13.800  14.120   7.300
 1298BOLB   C2B31138  13.650  13.980   6.860
 1298BOLB   C3B31139  13.520  14.220   6.520
 1298BOLB   C4B31140  13.620  14.240   6.020
 1298BOLB   NC231141  11.970  12.960   4.810
 1298BOLB   PO231142  12.180  13.200   4.580
 1298BOLB   GL331143  12.390  13.330   5.050
 1298BOLB   GL431144  12.660  13.100   5.110
 1298BOLB   C1C31145  12.610  13.540   5.410
 1298BOLB   C2C31146  12.950  13.790   5.380
 1298BOLB   C3C31147  13.100  14.080   5.500
 1298BOLB   C4C31148  13.220  14.450   5.760
 1298BOLB   C1D31149  12.950  13.140   5.410
 1298BOLB   C2D31150  13.240  13.130   5.780
 1298BOLB   C3D31151  13.470  13.050   6.160
 1298BOLB   C4D31152  13.570  13.310   6.510
 1299BOLB   NC131153  12.840  20.480  22.240
 1299BOLB   PO131154  12.800  20.270  21.810
 1299BOLB   GL131155  13.110  20.290  21.510
 1299BOLB   GL231156  13.000  20.490  21.240
 1299BOLB   C1A31157  13.340  19.960  21.300
 1299BOLB   C2A31158  13.480  19.550  21.220
 1299BOLB   C3A31159  13.250  19.080  21.090
 1299BOLB   C4A31160  13.300  18.810  20.790
 1299BOLB   C1B31161  12.970  20.090  20.980
 1299BOLB   C2B31162  13.190  19.780  20.590
 1299BOLB   C3B31163  13.420  19.590  20.360
 1299BOLB   C4B31164  13.610  19.240  20.000
 1299BOLB   NC231165  14.000  19.740  21.980
 1299BOLB   PO231166  13.670  19.490  21.780
 1299BOLB   GL331167  14.040  19.360  21.680
 1299BOLB   GL431168  14.280  19.150  21.870
 1299BOLB   C1C31169  14.080  19.210  21.360
 1299BOLB   C2C31170  14.060  19.250  20.970
 1299BOLB   C3C31171  14.020  19.000  20.700
 1299BOLB   C4C31172  13.700  18.710  20.670
 1299BOLB   C1D31173  14.490  18.850  21.560
 1299BOLB   C2D31174  14.620  19.060  21.160
 1299BOLB   C3D31175  14.530  19.110  20.750
 1299BOLB   C4D31176  14.440  18.940  20.300
 1300BOLB   NC131177  18.950  13.530   7.300
 1300BOLB   PO131178  19.100  14.020   7.280
 1300BOLB   GL131179  19.050  13.800   6.860
 1300BOLB   GL231180  19.280  13.830   6.680
 1300BOLB   C1A31181  18.900  14.030   6.400
 1300BOLB   C2A31182  18.820  14.190   6.050
 1300BOLB   C3A31183  18.810  14.350   5.630
 1300BOLB   C4A31184  18.770  14.350   5.230
 1300BOLB   C1B31185  19.270  13.720   6.300
 1300BOLB   C2B31186  19.500  13.830   5.800
 1300BOLB   C3B31187  19.830  13.920   5.520
 1300BOLB   C4B31188  20.070  14.080   5.260
 1300BOLB   NC231189  17.790  14.850   3.110
 1300BOLB   PO231190  17.960  15.220   3.310
 1300BOLB   GL331191  18.170  14.940   3.560
 1300BOLB   GL431192  18.260  14.680   3.530
 1300BOLB   C1C31193  18.340  14.880   4.030
 1300BOLB   C2C31194  18.580  14.740   4.280
 1300BOLB   C3C31195  18.830  14.380   4.430
 1300BOLB   C4C31196  18.790  14.140   4.790
 1300BOLB   C1D31197  18.350  14.380   3.900
 1300BOLB   C2D31198  18.300  14.270   4.330
 1300BOLB   C3D31199  18.340  14.450   4.630
 1300BOLB   C4D31200  18.630  14.610   4.870
 1301BOLB   NC131201  28.120  11.930  13.120
 1301BOLB   PO131202  28.440  12.160  12.860
 1301BOLB   GL131203  28.830  12.140  12.660
 1301BOLB   GL231204  28.760  12.380  12.470
 1301BOLB   C1A31205  29.250  12.230  12.630
 1301BOLB   C2A31206  29.570  12.190  12.420
 1301BOLB   C3A31207  29.950  12.260  12.260
 1301BOLB   C4A31208  30.320  12.240  12.140
 1301BOLB   C1B31209  29.090  12.310  12.190
 1301BOLB   C2B31210  29.400  12.270  11.950
 1301BOLB   C3B31211  29.770  12.120  11.660
 1301BOLB   C4B31212  30.020  11.800  11.610
 1301BOLB   NC231213  33.090  13.060  12.630
 1301BOLB   PO231214  32.780  12.720  12.280
 1301BOLB   GL331215  32.340  12.780  12.100
 1301BOLB   GL431216  32.060  12.970  12.260
 1301BOLB   C1C31217  31.910  12.820  11.840
 1301BOLB   C2C31218  31.590  12.660  11.880
 1301BOLB   C3C31219  31.230  12.400  12.010
 1301BOLB   C4C31220  30.780  12.290  12.180
 1301BOLB   C1D31221  31.660  12.990  12.340
 1301BOLB   C2D31222  31.230  12.850  12.440
 1301BOLB   C3D31223  30.840  12.690  12.670
 1301BOLB   C4D31224  30.490  12.640  13.060
 1302BOLB   NC131225  28.470  14.230  15.520
 1302BOLB   PO131226  28.480  14.600  15.350
 1302BOLB   GL131227  28.740  14.950  15.260
 1302BOLB   GL231228  28.710  15.170  14.970
 1302BOLB   C1A31229  29.080  15.170  15.340
 1302BOLB   C2A31230  29.520  15.200  15.480
 1302BOLB   C3A31231  29.960  15.210  15.390
 1302BOLB   C4A31232  30.410  15.230  15.490
 1302BOLB   C1B31233  29.090  15.370  14.830
 1302BOLB   C2B31234  29.450  15.530  14.520
 1302BOLB   C3B31235  29.830  15.510  14.540
 1302BOLB   C4B31236  30.240  15.620  14.280
 1302BOLB   NC231237  31.760  16.450  17.210
 1302BOLB   PO231238  31.950  16.370  16.760
 1302BOLB   GL331239  31.540  16.270  16.740
 1302BOLB   GL431240  31.460  15.850  16.780
 1302BOLB   C1C31241  31.120  16.160  16.600
 1302BOLB   C2C31242  30.900  15.940  16.250
 1302BOLB   C3C31243  30.730  15.660  15.990
 1302BOLB   C4C31244  30.790  15.340  15.670
 1302BOLB   C1D31245  31.150  15.630  16.520
 1302BOLB   C2D31246  30.770  15.510  16.540
 1302BOLB   C3D31247  30.330  15.410  16.450
 1302BOLB   C4D31248  29.900  15.190  16.600
 1303BOLB   NC131249  19.580   5.610  12.090
 1303BOLB   PO131250  19.560   5.280  12.370
 1303BOLB   GL131251  19.680   4.910  12.100
 1303BOLB   GL231252  19.970   4.960  11.970
 1303BOLB   C1A31253  19.680   4.600  11.800
 1303BOLB   C2A31254  19.550   4.180  11.600
 1303BOLB   C3A31255  19.600   3.760  11.630
 1303BOLB   C4A31256  19.760   3.230  11.660
 1303BOLB   C1B31257  20.090   4.720  11.520
 1303BOLB   C2B31258  20.180   4.540  11.080
 1303BOLB   C3B31259  20.450   4.450  10.820
 1303BOLB   C4B31260  20.800   4.320  10.780
 1303BOLB   NC231261  20.460   0.790  11.750
 1303BOLB   PO231262  20.460   0.910  11.340
 1303BOLB   GL331263  20.360   1.300  11.270
 1303BOLB   GL431264  20.620   1.500  11.080
 1303BOLB   C1C31265  20.150   1.670  11.430
 1303BOLB   C2C31266  20.190   2.090  11.760
 1303BOLB   C3C31267  20.210   2.540  11.560
 1303BOLB   C4C31268  20.120   2.990  11.590
 1303BOLB   C1D31269  20.620   1.820  11.450
 1303BOLB   C2D31270  20.750   2.260  11.430
 1303BOLB   C3D31271  20.780   2.720  11.420
 1303BOLB   C4D31272  20.960   3.180  11.580
 1304BOLB   NC131273  26.480   9.500  12.010
 1304BOLB   PO131274  26.810   9.460  12.170
 1304BOLB   GL131275  26.870   9.110  11.860
 1304BOLB   GL231276  27.040   9.310  11.660
 1304BOLB   C1A31277  27.080   8.790  11.750
 1304BOLB   C2A31278  27.590   8.560  11.620
 1304BOLB   C3A31279  27.980   8.470  11.420
 1304BOLB   C4A31280  28.300   8.240  11.170
 1304BOLB   C1B31281  27.360   9.150  11.300
 1304BOLB   C2B31282  27.270   8.920  10.940
 1304BOLB   C3B31283  27.300   8.960  10.530
 1304BOLB   C4B31284  27.310   8.880  10.050
 1304BOLB   NC231285  30.420   6.460  10.140
 1304BOLB   PO231286  30.200   6.860  10.380
 1304BOLB   GL331287  29.810   7.000  10.590
 1304BOLB   GL431288  29.700   6.820  10.800
 1304BOLB   C1C31289  29.680   7.400  10.730
 1304BOLB   C2C31290  29.340   7.480  10.950
 1304BOLB   C3C31291  28.940   7.660  10.900
 1304BOLB   C4C31292  28.690   7.960  11.150
 1304BOLB   C1D31293  29.400   6.910  11.110
 1304BOLB   C2D31294  29.000   7.120  11.220
 1304BOLB   C3D31295  28.850   7.450  11.370
 1304BOLB   C4D31296  28.780   7.710  11.620
 1305BOLB   NC131297  19.570  22.630  11.330
 1305BOLB   PO131298  19.670  22.940  11.020
 1305BOLB   GL131299  19.760  23.370  10.730
 1305BOLB   GL231300  20.020  23.450  10.410
 1305BOLB   C1A31301  19.580  23.660  10.400
 1305BOLB   C2A31302  19.510  24.080  10.250
 1305BOLB   C3A31303  19.520  24.450  10.180
 1305BOLB   C4A31304  19.630  24.640   9.810
 1305BOLB   C1B31305  20.020  23.810  10.140
 1305BOLB   C2B31306  19.940  24.170   9.920
 1305BOLB   C3B31307  19.970  24.360   9.490
 1305BOLB   C4B31308  19.880  24.510   9.070
 1305BOLB   NC231309  19.870  26.700   8.810
 1305BOLB   PO231310  19.780  26.910   9.110
 1305BOLB   GL331311  19.920  26.530   9.240
 1305BOLB   GL431312  20.060  26.520   9.660
 1305BOLB   C1C31313  19.930  26.200   9.310
 1305BOLB   C2C31314  19.550  25.840   9.360
 1305BOLB   C3C31315  19.540  25.410   9.380
 1305BOLB   C4C31316  19.660  24.980   9.610
 1305BOLB   C1D31317  20.230  26.120   9.750
 1305BOLB   C2D31318  20.300  25.740   9.900
 1305BOLB   C3D31319  20.410  25.280   9.630
 1305BOLB   C4D31320  20.160  24.840   9.530
 1306BOLB   NC131321  20.520  21.340   8.190
 1306BOLB   PO131322  20.290  21.050   8.000
 1306BOLB   GL131323  20.260  21.320   7.740
 1306BOLB   GL231324  20.030  21.450   7.850
 1306BOLB   C1A31325  20.460  21.550   7.540
 1306BOLB   C2A31326  20.750  21.740   7.360
 1306BOLB   C3A31327  20.760  22.000   7.040
 1306BOLB   C4A31328  20.790  22.170   6.690
 1306BOLB   C1B31329  19.960  21.690   7.550
 1306BOLB   C2B31330  20.290  21.810   7.160
 1306BOLB   C3B31331  20.360  21.760   6.730
 1306BOLB   C4B31332  20.450  21.880   6.340
 1306BOLB   NC231333  20.680  22.970   4.530
 1306BOLB   PO231334  20.340  22.820   4.700
 1306BOLB   GL331335  20.630  22.730   5.010
 1306BOLB   GL431336  20.490  22.470   4.980
 1306BOLB   C1C31337  20.860  22.490   5.240
 1306BOLB   C2C31338  20.890  22.200   5.540
 1306BOLB   C3C31339  21.010  22.010   5.780
 1306BOLB   C4C31340  21.020  22.020   6.230
 1306BOLB   C1D31341  20.770  22.080   5.040
 1306BOLB   C2D31342  21.090  21.860   5.230
 1306BOLB   C3D31343  21.250  21.490   5.120
 1306BOLB   C4D31344  21.590  21.220   5.230
 1307BOLB   NC131345  26.650  13.650  10.630
 1307BOLB   PO131346  26.890  13.920  10.470
 1307BOLB   GL131347  27.090  14.000  10.120
 1307BOLB   GL231348  27.540  13.890  10.060
 1307BOLB   C1A31349  27.280  14.170   9.800
 1307BOLB   C2A31350  27.540  14.150   9.430
 1307BOLB   C3A31351  27.850  14.190   9.170
 1307BOLB   C4A31352  28.260  14.230   9.090
 1307BOLB   C1B31353  27.830  13.820   9.760
 1307BOLB   C2B31354  28.050  13.870   9.400
 1307BOLB   C3B31355  28.260  13.710   9.060
 1307BOLB   C4B31356  28.570  13.560   8.840
 1307BOLB   NC231357  29.830  13.530   7.270
 1307BOLB   PO231358  30.150  13.570   7.630
 1307BOLB   GL331359  29.800  13.600   7.770
 1307BOLB   GL431360  29.490  13.600   7.590
 1307BOLB   C1C31361  29.420  13.570   8.060
 1307BOLB   C2C31362  29.260  13.830   8.400
 1307BOLB   C3C31363  28.930  13.940   8.660
 1307BOLB   C4C31364  28.680  14.240   8.760
 1307BOLB   C1D31365  29.130  13.460   7.710
 1307BOLB   C2D31366  28.840  13.310   7.950
 1307BOLB   C3D31367  28.660  12.940   8.230
 1307BOLB   C4D31368  28.500  13.020   8.650
 1308BOLB   NC131369  21.110  18.590   7.650
 1308BOLB   PO131370  21.560  18.780   7.610
 1308BOLB   GL131371  21.310  18.980   7.370
 1308BOLB   GL231372  21.180  18.780   7.200
 1308BOLB   C1A31373  21.280  19.320   7.100
 1308BOLB   C2A31374  21.150  19.160   6.670
 1308BOLB   C3A31375  21.360  19.260   6.320
 1308BOLB   C4A31376  21.590  19.540   6.180
 1308BOLB   C1B31377  21.010  18.520   6.890
 1308BOLB   C2B31378  21.010  18.410   6.400
 1308BOLB   C3B31379  21.070  18.420   6.030
 1308BOLB   C4B31380  20.920  18.510   5.690
 1308BOLB   NC231381  22.840  19.800   3.730
 1308BOLB   PO231382  22.640  20.220   4.000
 1308BOLB   GL331383  22.270  20.210   4.190
 1308BOLB   GL431384  21.980  20.210   4.090
 1308BOLB   C1C31385  22.200  20.090   4.650
 1308BOLB   C2C31386  22.090  19.890   4.920
 1308BOLB   C3C31387  22.090  19.730   5.400
 1308BOLB   C4C31388  21.740  19.600   5.740
 1308BOLB   C1D31389  21.870  19.820   4.360
 1308BOLB   C2D31390  21.560  19.830   4.690
 1308BOLB   C3D31391  21.630  19.770   5.080
 1308BOLB   C4D31392  21.340  19.730   5.430
 1309BOLB   NC131393  17.750  16.880   7.120
 1309BOLB   PO131394  17.870  16.480   7.220
 1309BOLB   GL131395  17.780  16.280   6.820
 1309BOLB   GL231396  18.040  16.170   6.690
 1309BOLB   C1A31397  17.530  16.150   6.580
 1309BOLB   C2A31398  17.360  16.160   6.170
 1309BOLB   C3A31399  17.210  16.150   5.760
 1309BOLB   C4A31400  16.780  15.910   5.540
 1309BOLB   C1B31401  18.040  16.220   6.320
 1309BOLB   C2B31402  17.850  16.360   6.080
 1309BOLB   C3B31403  17.780  16.790   5.870
 1309BOLB   C4B31404  17.960  17.200   5.660
 1309BOLB   NC231405  15.660  16.460   3.360
 1309BOLB   PO231406  15.470  16.110   3.520
 1309BOLB   GL331407  15.740  16.320   3.900
 1309BOLB   GL431408  15.680  16.670   3.920
 1309BOLB   C1C31409  15.960  16.220   4.130
 1309BOLB   C2C31410  16.260  16.060   4.340
 1309BOLB   C3C31411  16.400  16.020   4.790
 1309BOLB   C4C31412  16.530  15.980   5.190
 1309BOLB   C1D31413  15.700  16.640   4.460
 1309BOLB   C2D31414  15.810  16.380   4.960
 1309BOLB   C3D31415  16.040  16.100   5.120
 1309BOLB   C4D31416  16.230  16.190   5.520
 1310BOLB   NC131417  18.220   5.090  15.810
 1310BOLB   PO131418  17.910   5.130  16.180
 1310BOLB   GL131419  17.750   4.780  16.150
 1310BOLB   GL231420  17.440   4.590  16.080
 1310BOLB   C1A31421  17.950   4.350  16.130
 1310BOLB   C2A31422  18.240   4.150  16.260
 1310BOLB   C3A31423  18.450   3.760  16.400
 1310BOLB   C4A31424  18.480   3.340  16.580
 1310BOLB   C1B31425  17.420   4.080  16.050
 1310BOLB   C2B31426  17.800   3.950  16.390
 1310BOLB   C3B31427  17.840   3.980  16.820
 1310BOLB   C4B31428  17.880   3.810  17.200
 1310BOLB   NC231429  17.320   1.530  18.420
 1310BOLB   PO231430  17.200   1.940  18.260
 1310BOLB   GL331431  17.330   2.360  18.000
 1310BOLB   GL431432  16.990   2.540  17.820
 1310BOLB   C1C31433  17.650   2.580  17.770
 1310BOLB   C2C31434  18.090   2.630  17.630
 1310BOLB   C3C31435  18.290   2.760  17.170
 1310BOLB   C4C31436  18.480   3.160  16.960
 1310BOLB   C1D31437  17.220   2.790  17.780
 1310BOLB   C2D31438  17.290   3.090  17.510
 1310BOLB   C3D31439  17.150   3.160  17.050
 1310BOLB   C4D31440  17.120   3.290  16.610
 1311BOLB   NC131441  11.160  17.370  12.740
 1311BOLB   PO131442  10.880  17.690  12.720
 1311BOLB   GL131443  10.520  17.830  12.440
 1311BOLB   GL231444  10.540  18.090  12.520
 1311BOLB   C1A31445  10.120  17.900  12.570
 1311BOLB   C2A31446   9.800  17.950  12.330
 1311BOLB   C3A31447   9.590  17.950  11.950
 1311BOLB   C4A31448   9.170  17.940  11.900
 1311BOLB   C1B31449  10.260  18.380  12.370
 1311BOLB   C2B31450   9.920  18.400  12.470
 1311BOLB   C3B31451   9.700  18.660  12.760
 1311BOLB   C4B31452  10.010  18.960  12.990
 1311BOLB   NC231453   6.680  17.880  10.940
 1311BOLB   PO231454   6.780  17.400  10.960
 1311BOLB   GL331455   7.140  17.190  11.120
 1311BOLB   GL431456   7.280  16.980  11.270
 1311BOLB   C1C31457   7.570  17.360  11.230
 1311BOLB   C2C31458   7.840  17.610  11.410
 1311BOLB   C3C31459   8.250  17.640  11.730
 1311BOLB   C4C31460   8.760  17.750  11.670
 1311BOLB   C1D31461   7.700  16.980  11.520
 1311BOLB   C2D31462   8.100  17.110  11.520
 1311BOLB   C3D31463   8.480  17.170  11.750
 1311BOLB   C4D31464   8.610  17.400  12.090
 1312BOLB   NC131465  16.620  23.320  13.560
 1312BOLB   PO131466  16.970  23.320  13.880
 1312BOLB   GL131467  16.800  23.710  13.880
 1312BOLB   GL231468  16.490  23.790  13.620
 1312BOLB   C1A31469  16.750  24.090  13.990
 1312BOLB   C2A31470  17.060  24.470  14.050
 1312BOLB   C3A31471  17.220  24.860  14.350
 1312BOLB   C4A31472  17.250  25.250  14.480
 1312BOLB   C1B31473  16.340  24.110  13.300
 1312BOLB   C2B31474  16.190  24.450  13.450
 1312BOLB   C3B31475  15.830  24.730  13.540
 1312BOLB   C4B31476  15.560  25.050  13.390
 1312BOLB   NC231477  16.670  27.270  15.780
 1312BOLB   PO231478  17.090  27.390  15.650
 1312BOLB   GL331479  17.370  26.970  15.550
 1312BOLB   GL431480  17.230  26.760  15.800
 1312BOLB   C1C31481  17.360  26.700  15.200
 1312BOLB   C2C31482  17.440  26.320  14.970
 1312BOLB   C3C31483  17.560  26.000  14.730
 1312BOLB   C4C31484  17.360  25.600  14.720
 1312BOLB   C1D31485  17.460  26.470  15.840
 1312BOLB   C2D31486  17.560  26.150  15.930
 1312BOLB   C3D31487  17.520  25.780  15.790
 1312BOLB   C4D31488  17.680  25.440  15.570
 1313BOLB   NC131489  18.310   4.740  12.710
 1313BOLB   PO131490  18.630   4.750  12.410
 1313BOLB   GL131491  18.720   4.320  12.070
 1313BOLB   GL231492  18.840   4.100  12.150
 1313BOLB   C1A31493  18.570   3.990  11.770
 1313BOLB   C2A31494  18.170   3.830  11.650
 1313BOLB   C3A31495  17.910   3.650  11.500
 1313BOLB   C4A31496  17.450   3.750  11.400
 1313BOLB   C1B31497  18.790   3.690  12.130
 1313BOLB   C2B31498  18.920   3.330  12.290
 1313BOLB   C3B31499  18.890   2.910  12.390
 1313BOLB   C4B31500  18.820   2.630  12.690
 1313BOLB   NC231501  16.490   2.590   8.920
 1313BOLB   PO231502  16.490   2.720   9.330
 1313BOLB   GL331503  16.550   2.910   9.830
 1313BOLB   GL431504  16.290   3.110   9.960
 1313BOLB   C1C31505  16.720   3.150  10.170
 1313BOLB   C2C31506  17.000   3.340  10.460
 1313BOLB   C3C31507  17.110   3.700  10.610
 1313BOLB   C4C31508  17.200   3.800  11.020
 1313BOLB   C1D31509  16.490   3.510   9.880
 1313BOLB   C2D31510  16.800   3.710  10.010
 1313BOLB   C3D31511  16.980   4.050   9.900
 1313BOLB   C4D31512  17.120   4.310  10.230
 1314BOLB   NC131513  15.680   8.760  10.260
 1314BOLB   PO131514  15.440   8.790   9.940
 1314BOLB   GL131515  15.510   8.520   9.500
 1314BOLB   GL231516  15.770   8.540   9.370
 1314BOLB   C1A31517  15.410   8.130   9.310
 1314BOLB   C2A31518  15.340   7.690   9.100
 1314BOLB   C3A31519  15.090   7.350   8.880
 1314BOLB   C4A31520  15.040   7.180   8.580
 1314BOLB   C1B31521  15.680   8.440   9.020
 1314BOLB   C2B31522  15.400   8.390   8.690
 1314BOLB   C3B31523  15.390   8.150   8.230
 1314BOLB   C4B31524  15.470   8.140   7.750
 1314BOLB   NC231525  13.680   5.860   7.390
 1314BOLB   PO231526  14.110   6.150   7.440
 1314BOLB   GL331527  14.080   6.470   7.600
 1314BOLB   GL431528  14.310   6.560   7.870
 1314BOLB   C1C31529  14.170   6.940   7.660
 1314BOLB   C2C31530  14.320   7.350   7.760
 1314BOLB   C3C31531  14.430   7.340   8.120
 1314BOLB   C4C31532  14.750   7.110   8.220
 1314BOLB   C1D31533  14.480   6.620   8.310
 1314BOLB   C2D31534  14.870   6.550   8.460
 1314BOLB   C3D31535  15.200   6.680   8.650
 1314BOLB   C4D31536  15.380   6.920   8.980
 1315BOLB   NC131537  12.130  17.250  10.120
 1315BOLB   PO131538  11.910  17.510   9.810
 1315BOLB   GL131539  11.620  17.470   9.510
 1315BOLB   GL231540  11.730  17.290   9.330
 1315BOLB   C1A31541  11.260  17.590   9.220
 1315BOLB   C2A31542  10.840  17.400   9.070
 1315BOLB   C3A31543  10.540  17.550   8.790
 1315BOLB   C4A31544  10.230  17.700   8.460
 1315BOLB   C1B31545  11.590  17.250   8.910
 1315BOLB   C2B31546  11.620  17.550   8.600
 1315BOLB   C3B31547  11.360  17.570   8.220
 1315BOLB   C4B31548  10.970  17.530   7.970
 1315BOLB   NC231549   9.400  16.660   6.750
 1315BOLB   PO231550   9.210  17.010   7.000
 1315BOLB   GL331551   9.460  16.920   7.300
 1315BOLB   GL431552   9.560  16.600   7.490
 1315BOLB   C1C31553   9.670  17.220   7.310
 1315BOLB   C2C31554   9.740  17.580   7.440
 1315BOLB   C3C31555  10.040  17.720   7.740
 1315BOLB   C4C31556  10.300  17.640   8.060
 1315BOLB   C1D31557   9.780  16.740   7.890
 1315BOLB   C2D31558  10.240  16.830   8.110
 1315BOLB   C3D31559  10.470  16.820   8.390
 1315BOLB   C4D31560  10.670  17.070   8.730
 1316BOLB   NC131561  15.070  11.280   8.310
 1316BOLB   PO131562  14.890  11.710   8.380
 1316BOLB   GL131563  14.530  11.520   8.100
 1316BOLB   GL231564  14.480  11.550   7.740
 1316BOLB   C1A31565  14.180  11.330   8.110
 1316BOLB   C2A31566  14.010  10.960   8.000
 1316BOLB   C3A31567  14.100  10.660   7.610
 1316BOLB   C4A31568  14.050  10.270   7.300
 1316BOLB   C1B31569  14.440  11.470   7.320
 1316BOLB   C2B31570  14.260  11.590   6.990
 1316BOLB   C3B31571  14.310  11.670   6.600
 1316BOLB   C4B31572  14.110  11.830   6.270
 1316BOLB   NC231573  12.900   9.480   4.920
 1316BOLB   PO231574  12.840   9.580   5.430
 1316BOLB   GL331575  12.870   9.670   5.860
 1316BOLB   GL431576  13.190   9.620   6.040
 1316BOLB   C1C31577  12.820   9.870   6.280
 1316BOLB   C2C31578  12.910   9.860   6.630
 1316BOLB   C3C31579  13.350   9.890   7.020
 1316BOLB   C4C31580  13.690  10.060   7.190
 1316BOLB   C1D31581  13.390   9.890   6.400
 1316BOLB   C2D31582  13.700  10.090   6.670
 1316BOLB   C3D31583  14.260  10.190   6.780
 1316BOLB   C4D31584  14.540  10.100   7.120
 1317BOLB   NC131585  16.490  13.150   7.710
 1317BOLB   PO131586  16.680  13.410   7.500
 1317BOLB   GL131587  16.710  13.440   7.040
 1317BOLB   GL231588  16.620  13.840   7.120
 1317BOLB   C1A31589  16.910  13.270   6.640
 1317BOLB   C2A31590  16.800  13.090   6.240
 1317BOLB   C3A31591  16.430  12.790   6.200
 1317BOLB   C4A31592  16.110  12.640   5.930
 1317BOLB   C1B31593  16.750  13.850   6.630
 1317BOLB   C2B31594  16.830  13.630   6.170
 1317BOLB   C3B31595  16.760  13.320   5.770
 1317BOLB   C4B31596  16.600  13.470   5.270
 1317BOLB   NC231597  15.520  12.010   3.830
 1317BOLB   PO231598  15.360  12.440   3.750
 1317BOLB   GL331599  15.370  12.590   4.120
 1317BOLB   GL431600  15.570  12.900   4.120
 1317BOLB   C1C31601  15.540  12.510   4.510
 1317BOLB   C2C31602  15.800  12.610   4.870
 1317BOLB   C3C31603  15.650  12.450   5.360
 1317BOLB   C4C31604  15.830  12.330   5.780
 1317BOLB   C1D31605  15.990  12.670   4.390
 1317BOLB   C2D31606  16.240  12.390   4.690
 1317BOLB   C3D31607  16.250  12.450   5.130
 1317BOLB   C4D31608  16.410  12.490   5.570
 1318BOLB   NC131609  27.340  10.250  12.300
 1318BOLB   PO131610  27.640  10.110  12.010
 1318BOLB   GL131611  27.990  10.080  11.800
 1318BOLB   GL231612  28.390   9.940  11.960
 1318BOLB   C1A31613  28.280   9.970  11.500
 1318BOLB   C2A31614  28.290   9.670  11.210
 1318BOLB   C3A31615  28.490   9.330  10.900
 1318BOLB   C4A31616  28.520   8.930  10.750
 1318BOLB   C1B31617  28.720  10.030  11.820
 1318BOLB   C2B31618  29.150   9.810  11.750
 1318BOLB   C3B31619  29.560  10.040  11.810
 1318BOLB   C4B31620  29.950  10.250  11.670
 1318BOLB   NC231621  30.840   8.110   9.810
 1318BOLB   PO231622  30.500   7.950  10.070
 1318BOLB   GL331623  30.090   7.900  10.380
 1318BOLB   GL431624  30.030   8.210  10.350
 1318BOLB   C1C31625  29.690   7.910  10.610
 1318BOLB   C2C31626  29.280   7.950  10.590
 1318BOLB   C3C31627  28.900   8.140  10.610
 1318BOLB   C4C31628  28.650   8.430  10.710
 1318BOLB   C1D31629  29.730   8.410  10.480
 1318BOLB   C2D31630  29.520   8.500  10.840
 1318BOLB   C3D31631  29.460   8.630  11.230
 1318BOLB   C4D31632  29.480   8.590  11.670
 1319BOLB   NC131633  24.330   1.630  13.340
 1319BOLB   PO131634  24.760   1.710  13.190
 1319BOLB   GL131635  24.400   2.040  13.120
 1319BOLB   GL231636  24.040   2.110  13.180
 1319BOLB   C1A31637  24.440   2.480  13.110
 1319BOLB   C2A31638  24.250   2.820  12.980
 1319BOLB   C3A31639  24.350   3.200  12.700
 1319BOLB   C4A31640  24.410   3.620  12.550
 1319BOLB   C1B31641  24.230   2.340  13.540
 1319BOLB   C2B31642  24.160   2.600  13.920
 1319BOLB   C3B31643  23.840   2.750  14.200
 1319BOLB   C4B31644  23.440   2.850  14.340
 1319BOLB   NC231645  24.330   1.660  11.190
 1319BOLB   PO231646  24.140   2.100  11.240
 1319BOLB   GL331647  23.930   2.450  11.430
 1319BOLB   GL431648  23.590   2.460  11.440
 1319BOLB   C1C31649  24.110   2.750  11.670
 1319BOLB   C2C31650  24.490   3.000  11.620
 1319BOLB   C3C31651  24.520   3.400  11.810
 1319BOLB   C4C31652  24.450   3.670  12.070
 1319BOLB   C1D31653  23.160   2.810  11.340
 1319BOLB   C2D31654  22.730   3.030  11.460
 1319BOLB   C3D31655  22.440   3.430  11.680
 1319BOLB   C4D31656  22.230   3.710  11.930
 1320BOLB   NC131657  15.690   6.140  12.810
 1320BOLB   PO131658  16.160   5.850  12.760
 1320BOLB   GL131659  16.220   5.520  12.410
 1320BOLB   GL231660  16.250   5.240  12.540
 1320BOLB   C1A31661  16.020   5.320  12.080
 1320BOLB   C2A31662  15.770   5.080  11.860
 1320BOLB   C3A31663  15.730   4.700  11.800
 1320BOLB   C4A31664  15.860   4.320  11.640
 1320BOLB   C1B31665  16.160   4.880  12.310
 1320BOLB   C2B31666  16.050   4.550  12.200
 1320BOLB   C3B31667  15.920   4.280  12.170
 1320BOLB   C4B31668  15.590   3.970  12.190
 1320BOLB   NC231669  15.080   2.110  11.730
 1320BOLB   PO231670  14.930   2.270  11.240
 1320BOLB   GL331671  15.290   2.490  11.040
 1320BOLB   GL431672  15.240   2.810  10.710
 1320BOLB   C1C31673  15.520   2.900  11.220
 1320BOLB   C2C31674  15.790   3.140  11.330
 1320BOLB   C3C31675  15.810   3.550  11.520
 1320BOLB   C4C31676  15.920   3.970  11.720
 1320BOLB   C1D31677  15.400   3.240  10.880
 1320BOLB   C2D31678  15.680   3.620  11.070
 1320BOLB   C3D31679  15.800   3.990  11.160
 1320BOLB   C4D31680  16.190   4.190  11.310
 1321BOLB   NC131681  12.390  19.880  11.870
 1321BOLB   PO131682  12.630  20.090  11.510
 1321BOLB   GL131683  12.180  20.190  11.320
 1321BOLB   GL231684  11.960  20.010  11.480
 1321BOLB   C1A31685  11.860  20.360  10.970
 1321BOLB   C2A31686  11.400  20.570  10.960
 1321BOLB   C3A31687  10.990  20.530  11.050
 1321BOLB   C4A31688  10.660  20.540  10.780
 1321BOLB   C1B31689  11.550  20.190  11.370
 1321BOLB   C2B31690  11.080  20.310  11.480
 1321BOLB   C3B31691  10.740  20.590  11.480
 1321BOLB   C4B31692  10.410  20.810  11.240
 1321BOLB   NC231693   9.340  21.650   9.840
 1321BOLB   PO231694   9.420  21.630  10.290
 1321BOLB   GL331695   9.780  21.500  10.140
 1321BOLB   GL431696   9.900  21.800   9.980
 1321BOLB   C1C31697   9.880  21.120  10.100
 1321BOLB   C2C31698   9.790  20.770  10.360
 1321BOLB   C3C31699  10.060  20.410  10.390
 1321BOLB   C4C31700  10.370  20.250  10.580
 1321BOLB   C1D31701  10.330  21.860  10.170
 1321BOLB   C2D31702  10.760  21.870  10.260
 1321BOLB   C3D31703  11.210  21.680  10.350
 1321BOLB   C4D31704  11.540  21.610  10.020
 1322BOLB   NC131705  20.570  11.480   8.100
 1322BOLB   PO131706  20.410  11.730   7.760
 1322BOLB   GL131707  20.300  11.570   7.380
 1322BOLB   GL231708  20.170  11.860   7.290
 1322BOLB   C1A31709  20.300  11.220   7.150
 1322BOLB   C2A31710  20.280  11.060   6.760
 1322BOLB   C3A31711  20.290  10.950   6.420
 1322BOLB   C4A31712  20.230  10.750   6.010
 1322BOLB   C1B31713  20.130  11.740   6.930
 1322BOLB   C2B31714  20.160  11.560   6.590
 1322BOLB   C3B31715  20.170  11.550   6.130
 1322BOLB   C4B31716  20.250  11.240   5.970
 1322BOLB   NC231717  20.010  10.250   3.900
 1322BOLB   PO231718  19.660  10.520   3.780
 1322BOLB   GL331719  19.660  10.860   4.090
 1322BOLB   GL431720  19.880  11.190   4.040
 1322BOLB   C1C31721  19.500  10.970   4.550
 1322BOLB   C2C31722  19.750  11.090   4.900
 1322BOLB   C3C31723  20.000  11.070   5.260
 1322BOLB   C4C31724  20.130  10.830   5.570
 1322BOLB   C1D31725  19.590  11.430   4.280
 1322BOLB   C2D31726  19.260  11.420   4.660
 1322BOLB   C3D31727  19.180  11.590   5.010
 1322BOLB   C4D31728  19.070  11.550   5.370
 1323BOLB   NC131729  25.460  10.280   9.690
 1323BOLB   PO131730  25.400   9.900   9.550
 1323BOLB   GL131731  25.730   9.860   9.310
 1323BOLB   GL231732  25.990   9.760   9.400
 1323BOLB   C1A31733  25.740   9.690   8.920
 1323BOLB   C2A31734  26.010   9.400   8.750
 1323BOLB   C3A31735  26.160   9.000   8.540
 1323BOLB   C4A31736  26.430   8.830   8.200
 1323BOLB   C1B31737  26.230   9.710   9.100
 1323BOLB   C2B31738  26.440   9.390   8.980
 1323BOLB   C3B31739  26.560   9.320   8.580
 1323BOLB   C4B31740  26.890   9.140   8.310
 1323BOLB   NC231741  27.960   8.840   6.410
 1323BOLB   PO231742  27.610   8.950   6.230
 1323BOLB   GL331743  27.540   8.920   6.650
 1323BOLB   GL431744  27.350   9.230   6.610
 1323BOLB   C1C31745  27.270   8.790   7.010
 1323BOLB   C2C31746  26.850   8.660   7.040
 1323BOLB   C3C31747  26.630   8.510   7.480
 1323BOLB   C4C31748  26.580   8.540   7.880
 1323BOLB   C1D31749  26.980   9.230   6.960
 1323BOLB   C2D31750  26.690   9.500   7.200
 1323BOLB   C3D31751  26.450   9.610   7.610
 1323BOLB   C4D31752  26.010   9.600   7.720
 1324BOLB   NC131753  25.730  16.390   9.790
 1324BOLB   PO131754  25.850  16.230   9.350
 1324BOLB   GL131755  26.270  16.120   9.210
 1324BOLB   GL231756  26.220  16.020   8.950
 1324BOLB   C1A31757  26.750  16.150   9.120
 1324BOLB   C2A31758  27.030  16.500   9.180
 1324BOLB   C3A31759  27.210  16.730   8.950
 1324BOLB   C4A31760  27.670  16.910   8.940
 1324BOLB   C1B31761  26.550  16.100   8.610
 1324BOLB   C2B31762  26.930  16.430   8.450
 1324BOLB   C3B31763  27.010  16.690   8.180
 1324BOLB   C4B31764  27.240  17.080   8.060
 1324BOLB   NC231765  29.770  18.060   7.710
 1324BOLB   PO231766  29.810  17.670   8.030
 1324BOLB   GL331767  29.440  17.400   8.110
 1324BOLB   GL431768  29.630  17.090   8.240
 1324BOLB   C1C31769  29.130  17.170   8.410
 1324BOLB   C2C31770  28.650  17.220   8.460
 1324BOLB   C3C31771  28.240  17.380   8.520
 1324BOLB   C4C31772  27.900  17.080   8.660
 1324BOLB   C1D31773  29.490  16.790   8.700
 1324BOLB   C2D31774  29.350  16.540   9.130
 1324BOLB   C3D31775  29.040  16.490   9.410
 1324BOLB   C4D31776  28.730  16.240   9.420
 1325BOLB   NC131777  11.780   9.930  16.460
 1325BOLB   PO131778  12.040   9.800  16.780
 1325BOLB   GL131779  11.760   9.740  17.110
 1325BOLB   GL231780  11.830   9.850  17.470
 1325BOLB   C1A31781  11.410   9.540  17.410
 1325BOLB   C2A31782  11.190   9.110  17.450
 1325BOLB   C3A31783  11.000   8.780  17.330
 1325BOLB   C4A31784  10.720   8.630  17.330
 1325BOLB   C1B31785  11.510   9.830  17.760
 1325BOLB   C2B31786  11.510   9.840  18.210
 1325BOLB   C3B31787  11.250   9.940  18.540
 1325BOLB   C4B31788  10.950   9.960  18.720
 1325BOLB   NC231789   8.780   7.620  17.260
 1325BOLB   PO231790   8.610   7.930  17.100
 1325BOLB   GL331791   8.830   8.160  16.910
 1325BOLB   GL431792   8.730   8.350  16.710
 1325BOLB   C1C31793   9.330   8.330  16.770
 1325BOLB   C2C31794   9.690   8.580  16.720
 1325BOLB   C3C31795  10.010   8.560  16.840
 1325BOLB   C4C31796  10.290   8.710  17.140
 1325BOLB   C1D31797   9.030   8.620  16.550
 1325BOLB   C2D31798   9.370   9.000  16.760
 1325BOLB   C3D31799   9.820   9.160  16.720
 1325BOLB   C4D31800  10.280   9.060  16.700
 1326BOLB   NC131801  20.940   5.660  13.830
 1326BOLB   PO131802  20.670   5.230  13.860
 1326BOLB   GL131803  20.810   4.730  13.910
 1326BOLB   GL231804  20.810   4.600  14.280
 1326BOLB   C1A31805  21.000   4.340  13.960
 1326BOLB   C2A31806  21.070   3.920  14.070
 1326BOLB   C3A31807  21.390   3.620  13.940
 1326BOLB   C4A31808  21.520   3.200  13.790
 1326BOLB   C1B31809  20.850   4.310  14.600
 1326BOLB   C2B31810  20.950   3.860  14.560
 1326BOLB   C3B31811  21.040   3.520  14.380
 1326BOLB   C4B31812  21.280   3.160  14.240
 1326BOLB   NC231813  22.060   0.840  13.800
 1326BOLB   PO231814  22.180   1.070  13.430
 1326BOLB   GL331815  22.290   1.420  13.170
 1326BOLB   GL431816  22.410   1.640  13.410
 1326BOLB   C1C31817  22.060   1.730  13.020
 1326BOLB   C2C31818  21.920   2.070  13.280
 1326BOLB   C3C31819  21.830   2.530  13.420
 1326BOLB   C4C31820  21.630   2.860  13.500
 1326BOLB   C1D31821  22.370   1.980  13.540
 1326BOLB   C2D31822  22.240   2.390  13.610
 1326BOLB   C3D31823  22.060   2.790  13.760
 1326BOLB   C4D31824  21.880   3.000  14.100
 1327BOLB   NC131825  27.490   9.040  13.160
 1327BOLB   PO131826  27.630   9.320  13.420
 1327BOLB   GL131827  28.030   9.260  13.640
 1327BOLB   GL231828  28.230   9.440  13.520
 1327BOLB   C1A31829  28.140   8.930  13.920
 1327BOLB   C2A31830  28.480   8.730  14.160
 1327BOLB   C3A31831  28.840   8.510  14.220
 1327BOLB   C4A31832  29.120   8.390  14.130
 1327BOLB   C1B31833  28.590   9.270  13.630
 1327BOLB   C2B31834  28.800   8.930  13.830
 1327BOLB   C3B31835  29.270   8.710  13.810
 1327BOLB   C4B31836  29.610   8.800  13.790
 1327BOLB   NC231837  31.430   7.560  12.620
 1327BOLB   PO231838  30.980   7.710  12.780
 1327BOLB   GL331839  30.740   7.990  12.900
 1327BOLB   GL431840  30.830   8.200  13.100
 1327BOLB   C1C31841  30.230   8.130  13.010
 1327BOLB   C2C31842  29.880   8.230  13.130
 1327BOLB   C3C31843  29.520   8.460  13.350
 1327BOLB   C4C31844  29.370   8.240  13.750
 1327BOLB   C1D31845  30.440   8.490  13.260
 1327BOLB   C2D31846  30.110   8.630  12.920
 1327BOLB   C3D31847  29.660   8.720  12.890
 1327BOLB   C4D31848  29.270   8.760  13.010
 1328BOLB   NC131849  14.040  21.620  11.640
 1328BOLB   PO131850  13.940  21.510  11.180
 1328BOLB   GL131851  13.690  21.410  10.850
 1328BOLB   GL231852  13.850  21.230  10.640
 1328BOLB   C1A31853  13.330  21.610  10.560
 1328BOLB   C2A31854  13.260  21.990  10.200
 1328BOLB   C3A31855  13.180  22.430  10.070
 1328BOLB   C4A31856  12.930  22.720   9.860
 1328BOLB   C1B31857  13.580  21.340  10.210
 1328BOLB   C2B31858  13.080  21.510  10.100
 1328BOLB   C3B31859  12.780  21.810   9.780
 1328BOLB   C4B31860  12.350  21.870   9.920
 1328BOLB   NC231861  13.260  24.970   9.210
 1328BOLB   PO231862  12.890  24.900   8.970
 1328BOLB   GL331863  13.160  24.520   9.070
 1328BOLB   GL431864  13.410  24.320   8.840
 1328BOLB   C1C31865  13.080  24.230   9.380
 1328BOLB   C2C31866  13.130  23.910   9.690
 1328BOLB   C3C31867  13.050  23.440   9.770
 1328BOLB   C4C31868  12.850  23.060   9.850
 1328BOLB   C1D31869  13.460  23.900   9.020
 1328BOLB   C2D31870  13.400  23.630   9.400
 1328BOLB   C3D31871  13.530  23.240   9.640
 1328BOLB   C4D31872  13.290  23.040  10.010
 1329BOLB   NC131873  18.440  15.530   7.240
 1329BOLB   PO131874  18.060  15.360   7.100
 1329BOLB   GL131875  17.950  15.090   6.720
 1329BOLB   GL231876  17.620  15.240   6.890
 1329BOLB   C1A31877  18.050  14.710   6.350
 1329BOLB   C2A31878  17.940  14.480   6.030
 1329BOLB   C3A31879  17.890  14.230   5.630
 1329BOLB   C4A31880  17.520  13.920   5.430
 1329BOLB   C1B31881  17.560  15.070   6.420
 1329BOLB   C2B31882  17.600  14.870   6.050
 1329BOLB   C3B31883  17.660  14.730   5.560
 1329BOLB   C4B31884  17.870  14.780   5.170
 1329BOLB   NC231885  16.360  13.570   3.600
 1329BOLB   PO231886  16.510  13.190   3.380
 1329BOLB   GL331887  16.750  13.290   3.700
 1329BOLB   GL431888  16.650  12.980   3.860
 1329BOLB   C1C31889  16.960  13.320   4.060
 1329BOLB   C2C31890  17.260  13.290   4.320
 1329BOLB   C3C31891  17.420  13.390   4.670
 1329BOLB   C4C31892  17.490  13.590   5.030
 1329BOLB   C1D31893  16.600  13.060   4.370
 1329BOLB   C2D31894  16.550  13.160   4.860
 1329BOLB   C3D31895  16.510  12.980   5.320
 1329BOLB   C4D31896  16.400  13.000   5.760
 1330BOLB   NC131897  12.870   9.590  10.990
 1330BOLB   PO131898  13.130   9.280  10.780
 1330BOLB   GL131899  12.750   9.270  10.650
 1330BOLB   GL231900  12.440   9.330  10.730
 1330BOLB   C1A31901  12.470   9.400  10.270
 1330BOLB   C2A31902  12.470   9.210   9.830
 1330BOLB   C3A31903  12.200   9.090   9.560
 1330BOLB   C4A31904  11.780   8.960   9.510
 1330BOLB   C1B31905  12.160   9.140  10.480
 1330BOLB   C2B31906  11.770   9.080  10.380
 1330BOLB   C3B31907  11.420   8.870  10.360
 1330BOLB   C4B31908  11.200   8.610  10.060
 1330BOLB   NC231909  10.280   7.490   7.520
 1330BOLB   PO231910  10.260   7.750   7.880
 1330BOLB   GL331911  10.430   7.860   8.350
 1330BOLB   GL431912  10.530   8.240   8.530
 1330BOLB   C1C31913  10.800   7.800   8.700
 1330BOLB   C2C31914  10.860   8.080   9.200
 1330BOLB   C3C31915  11.230   8.330   9.210
 1330BOLB   C4C31916  11.590   8.600   9.380
 1330BOLB   C1D31917  10.960   8.300   8.640
 1330BOLB   C2D31918  11.370   8.580   8.730
 1330BOLB   C3D31919  11.750   8.420   8.910
 1330BOLB   C4D31920  11.830   8.010   9.030
 1331BOLB   NC131921  15.590  21.540  17.230
 1331BOLB   PO131922  15.600  21.580  16.830
 1331BOLB   GL131923  15.190  21.880  17.020
 1331BOLB   GL231924  14.890  22.020  16.800
 1331BOLB   C1A31925  14.910  22.210  17.320
 1331BOLB   C2A31926  14.800  22.500  17.360
 1331BOLB   C3A31927  14.610  22.780  17.270
 1331BOLB   C4A31928  14.340  23.010  17.610
 1331BOLB   C1B31929  14.630  22.350  16.910
 1331BOLB   C2B31930  14.260  22.340  17.070
 1331BOLB   C3B31931  13.960  22.630  17.030
 1331BOLB   C4B31932  13.690  22.930  16.880
 1331BOLB   NC231933  13.350  25.050  17.440
 1331BOLB   PO231934  13.350  24.830  17.910
 1331BOLB   GL331935  13.550  24.510  17.760
 1331BOLB   GL431936  13.530  24.560  17.440
 1331BOLB   C1C31937  13.530  24.090  17.640
 1331BOLB   C2C31938  13.470  23.740  17.760
 1331BOLB   C3C31939  13.810  23.420  17.720
 1331BOLB   C4C31940  14.040  23.100  17.780
 1331BOLB   C1D31941  14.010  24.370  17.640
 1331BOLB   C2D31942  14.300  24.170  17.310
 1331BOLB   C3D31943  14.550  24.080  16.940
 1331BOLB   C4D31944  14.650  23.750  16.560
 1332BOLB   NC131945  14.180   6.970  16.030
 1332BOLB   PO131946  13.980   6.730  15.630
 1332BOLB   GL131947  13.610   6.610  15.540
 1332BOLB   GL231948  13.260   6.660  15.550
 1332BOLB   C1A31949  13.280   6.180  15.620
 1332BOLB   C2A31950  13.020   5.850  15.790
 1332BOLB   C3A31951  12.820   5.440  15.900
 1332BOLB   C4A31952  12.680   5.090  15.740
 1332BOLB   C1B31953  12.790   6.300  15.640
 1332BOLB   C2B31954  12.470   5.940  15.500
 1332BOLB   C3B31955  12.010   5.770  15.510
 1332BOLB   C4B31956  11.640   5.720  15.630
 1332BOLB   NC231957  10.980   4.200  15.830
 1332BOLB   PO231958  11.010   3.870  16.110
 1332BOLB   GL331959  11.500   3.940  15.980
 1332BOLB   GL431960  11.720   3.950  16.250
 1332BOLB   C1C31961  11.810   3.940  15.720
 1332BOLB   C2C31962  12.200   4.150  15.510
 1332BOLB   C3C31963  12.500   4.360  15.610
 1332BOLB   C4C31964  12.440   4.760  15.850
 1332BOLB   C1D31965  11.900   4.280  16.550
 1332BOLB   C2D31966  12.240   4.160  16.810
 1332BOLB   C3D31967  12.390   4.240  17.170
 1332BOLB   C4D31968  12.430   4.500  17.400
 1333BOLB   NC131969  17.560   5.000  13.310
 1333BOLB   PO131970  17.180   5.160  13.450
 1333BOLB   GL131971  17.030   4.810  13.200
 1333BOLB   GL231972  17.240   4.490  13.160
 1333BOLB   C1A31973  16.690   4.590  13.260
 1333BOLB   C2A31974  16.610   4.240  12.940
 1333BOLB   C3A31975  16.870   3.930  12.690
 1333BOLB   C4A31976  16.920   3.900  12.240
 1333BOLB   C1B31977  16.990   4.440  12.760
 1333BOLB   C2B31978  16.940   4.380  12.370
 1333BOLB   C3B31979  16.920   4.510  12.020
 1333BOLB   C4B31980  16.870   4.590  11.580
 1333BOLB   NC231981  15.720   2.630  10.660
 1333BOLB   PO231982  15.950   2.360  10.520
 1333BOLB   GL331983  16.270   2.610  10.650
 1333BOLB   GL431984  16.170   2.890  10.480
 1333BOLB   C1C31985  16.230   2.860  11.050
 1333BOLB   C2C31986  16.440   3.050  11.390
 1333BOLB   C3C31987  16.560   3.390  11.620
 1333BOLB   C4C31988  16.830   3.600  11.910
 1333BOLB   C1D31989  16.460   3.200  10.760
 1333BOLB   C2D31990  16.660   3.540  11.090
 1333BOLB   C3D31991  16.880   3.790  11.410
 1333BOLB   C4D31992  17.100   4.110  11.490
 1334BOLB   NC131993  15.320  13.020   7.970
 1334BOLB   PO131994  15.720  12.980   7.940
 1334BOLB   GL131995  15.720  12.990   7.530
 1334BOLB   GL231996  15.730  12.660   7.400
 1334BOLB   C1A31997  15.690  13.210   7.100
 1334BOLB   C2A31998  15.830  13.570   6.830
 1334BOLB   C3A31999  15.760  13.500   6.310
 1334BOLB   C4A32000  15.900  13.710   5.930
 1334BOLB   C1B32001  15.850  12.680   6.890
 1334BOLB   C2B32002  15.990  12.550   6.420
 1334BOLB   C3B32003  16.140  12.200   6.230
 1334BOLB   C4B32004  16.050  11.780   6.120
 1334BOLB   NC232005  15.340  13.550   3.520
 1334BOLB   PO232006  15.150  13.450   3.860
 1334BOLB   GL332007  15.140  13.780   4.220
 1334BOLB   GL432008  15.130  14.030   4.110
 1334BOLB   C1C32009  15.120  14.010   4.620
 1334BOLB   C2C32010  15.490  14.040   4.830
 1334BOLB   C3C32011  15.790  13.850   5.110
 1334BOLB   C4C32012  15.830  13.900   5.570
 1334BOLB   C1D32013  15.610  13.910   4.330
 1334BOLB   C2D32014  15.730  13.620   4.680
 1334BOLB   C3D32015  15.540  13.470   5.040
 1334BOLB   C4D32016  15.640  13.430   5.470
 1335BOLB   NC132017  29.790   8.480  19.940
 1335BOLB   PO132018  29.800   8.770  20.150
 1335BOLB   GL132019  29.340   8.800  19.930
 1335BOLB   GL232020  29.190   8.470  19.830
 1335BOLB   C1A32021  29.010   9.050  19.620
 1335BOLB   C2A32022  29.020   9.420  19.330
 1335BOLB   C3A32023  29.170   9.510  18.980
 1335BOLB   C4A32024  29.300   9.170  18.610
 1335BOLB   C1B32025  28.850   8.690  20.030
 1335BOLB   C2B32026  28.490   8.610  20.260
 1335BOLB   C3B32027  28.200   8.930  20.420
 1335BOLB   C4B32028  27.860   9.190  20.590
 1335BOLB   NC232029  30.820   7.230  18.370
 1335BOLB   PO232030  30.510   7.370  18.100
 1335BOLB   GL332031  30.430   7.770  18.000
 1335BOLB   GL432032  30.480   7.860  17.630
 1335BOLB   C1C32033  30.030   7.890  18.030
 1335BOLB   C2C32034  29.750   7.970  18.390
 1335BOLB   C3C32035  29.440   8.390  18.450
 1335BOLB   C4C32036  29.260   8.760  18.630
 1335BOLB   C1D32037  30.200   8.010  17.440
 1335BOLB   C2D32038  29.870   8.300  17.190
 1335BOLB   C3D32039  29.670   8.600  17.000
 1335BOLB   C4D32040  29.630   8.990  16.730
 1336BOLB   NC132041  17.860  11.430   8.010
 1336BOLB   PO132042  17.470  11.550   8.190
 1336BOLB   GL132043  17.240  11.370   7.820
 1336BOLB   GL232044  17.170  11.090   7.770
 1336BOLB   C1A32045  17.160  11.330   7.350
 1336BOLB   C2A32046  17.100  11.080   7.070
 1336BOLB   C3A32047  17.000  11.010   6.640
 1336BOLB   C4A32048  16.950  10.900   6.180
 1336BOLB   C1B32049  17.180  10.710   7.580
 1336BOLB   C2B32050  17.110  10.370   7.470
 1336BOLB   C3B32051  17.170  10.200   7.030
 1336BOLB   C4B32052  17.240  10.540   6.830
 1336BOLB   NC232053  16.420   9.950   4.120
 1336BOLB   PO232054  15.940   9.950   4.140
 1336BOLB   GL332055  16.040   9.970   4.550
 1336BOLB   GL432056  16.240   9.800   4.760
 1336BOLB   C1C32057  15.980  10.160   4.970
 1336BOLB   C2C32058  16.200  10.450   5.260
 1336BOLB   C3C32059  16.430  10.790   5.540
 1336BOLB   C4C32060  16.750  10.900   5.740
 1336BOLB   C1D32061  16.370   9.860   5.150
 1336BOLB   C2D32062  16.370  10.030   5.590
 1336BOLB   C3D32063  16.190  10.420   5.830
 1336BOLB   C4D32064  16.370  10.710   6.030
 1337BOLB   NC132065  16.440   8.950   9.240
 1337BOLB   PO132066  16.800   9.250   9.240
 1337BOLB   GL132067  16.910   9.160   8.830
 1337BOLB   GL232068  16.720   8.850   8.840
 1337BOLB   C1A32069  16.800   9.200   8.420
 1337BOLB   C2A32070  16.630   8.980   8.080
 1337BOLB   C3A32071  16.700   8.750   7.760
 1337BOLB   C4A32072  16.830   8.400   7.470
 1337BOLB   C1B32073  16.550   8.760   8.550
 1337BOLB   C2B32074  16.320   8.510   8.230
 1337BOLB   C3B32075  16.030   8.180   7.990
 1337BOLB   C4B32076  16.110   7.960   7.670
 1337BOLB   NC232077  16.340   8.190   5.190
 1337BOLB   PO232078  16.720   7.930   5.280
 1337BOLB   GL332079  16.990   7.780   5.640
 1337BOLB   GL432080  17.250   8.110   5.740
 1337BOLB   C1C32081  16.910   7.620   6.090
 1337BOLB   C2C32082  17.100   7.650   6.460
 1337BOLB   C3C32083  17.050   8.040   6.780
 1337BOLB   C4C32084  16.910   8.200   7.110
 1337BOLB   C1D32085  17.320   8.500   5.550
 1337BOLB   C2D32086  17.190   8.730   5.270
 1337BOLB   C3D32087  16.830   8.980   5.210
 1337BOLB   C4D32088  16.460   9.330   5.150
 1338BOLB   NC132089  22.940  22.750  13.020
 1338BOLB   PO132090  23.030  22.580  12.570
 1338BOLB   GL132091  23.070  23.010  12.320
 1338BOLB   GL232092  23.410  23.090  12.510
 1338BOLB   C1A32093  23.270  23.200  11.910
 1338BOLB   C2A32094  23.560  23.410  11.650
 1338BOLB   C3A32095  23.910  23.700  11.630
 1338BOLB   C4A32096  24.220  24.030  11.670
 1338BOLB   C1B32097  23.630  23.440  12.200
 1338BOLB   C2B32098  23.630  23.830  12.040
 1338BOLB   C3B32099  23.560  24.270  12.030
 1338BOLB   C4B32100  23.310  24.630  12.060
 1338BOLB   NC232101  25.320  25.680  12.260
 1338BOLB   PO232102  25.780  25.630  12.510
 1338BOLB   GL332103  25.440  25.280  12.560
 1338BOLB   GL432104  25.210  25.200  12.700
 1338BOLB   C1C32105  25.410  24.900  12.350
 1338BOLB   C2C32106  25.040  24.710  12.150
 1338BOLB   C3C32107  24.730  24.650  11.890
 1338BOLB   C4C32108  24.400  24.390  11.900
 1338BOLB   C1D32109  24.790  25.080  12.760
 1338BOLB   C2D32110  24.510  24.680  12.770
 1338BOLB   C3D32111  24.510  24.220  12.850
 1338BOLB   C4D32112  24.470  23.790  12.680
 1339BOLB   NC132113  24.860  17.030   8.790
 1339BOLB   PO132114  24.800  16.820   8.370
 1339BOLB   GL132115  25.130  17.110   8.230
 1339BOLB   GL232116  25.290  17.260   8.500
 1339BOLB   C1A32117  25.270  17.320   7.880
 1339BOLB   C2A32118  25.450  17.630   7.610
 1339BOLB   C3A32119  25.680  17.900   7.260
 1339BOLB   C4A32120  25.920  18.070   7.050
 1339BOLB   C1B32121  25.510  17.520   8.340
 1339BOLB   C2B32122  25.720  17.730   8.040
 1339BOLB   C3B32123  25.970  18.000   7.710
 1339BOLB   C4B32124  25.940  18.320   7.520
 1339BOLB   NC232125  26.500  18.470   4.910
 1339BOLB   PO232126  26.600  18.050   5.000
 1339BOLB   GL332127  26.390  18.200   5.320
 1339BOLB   GL432128  26.060  18.380   5.250
 1339BOLB   C1C32129  26.350  18.330   5.660
 1339BOLB   C2C32130  26.150  18.560   5.960
 1339BOLB   C3C32131  25.980  18.660   6.380
 1339BOLB   C4C32132  26.110  18.500   6.710
 1339BOLB   C1D32133  25.870  17.940   5.230
 1339BOLB   C2D32134  25.840  17.490   5.320
 1339BOLB   C3D32135  25.750  17.510   5.690
 1339BOLB   C4D32136  25.680  17.740   6.020
 1340BOLB   NC132137  16.700  21.140  17.600
 1340BOLB   PO132138  16.300  21.190  17.730
 1340BOLB   GL132139  16.080  21.530  17.920
 1340BOLB   GL232140  15.790  21.430  17.750
 1340BOLB   C1A32141  16.090  21.780  18.290
 1340BOLB   C2A32142  15.990  22.250  18.510
 1340BOLB   C3A32143  16.210  22.630  18.640
 1340BOLB   C4A32144  16.140  22.980  18.830
 1340BOLB   C1B32145  15.700  21.810  18.010
 1340BOLB   C2B32146  15.470  22.100  18.200
 1340BOLB   C3B32147  15.520  22.420  18.090
 1340BOLB   C4B32148  15.400  22.850  18.010
 1340BOLB   NC232149  16.830  24.940  19.740
 1340BOLB   PO232150  16.440  24.680  19.650
 1340BOLB   GL332151  16.530  24.540  19.380
 1340BOLB   GL432152  16.380  24.230  19.380
 1340BOLB   C1C32153  16.370  24.560  18.930
 1340BOLB   C2C32154  16.120  24.300  18.610
 1340BOLB   C3C32155  16.130  23.840  18.500
 1340BOLB   C4C32156  16.110  23.450  18.760
 1340BOLB   C1D32157  16.080  24.000  19.460
 1340BOLB   C2D32158  16.040  23.540  19.350
 1340BOLB   C3D32159  16.300  23.180  19.320
 1340BOLB   C4D32160  16.540  22.800  19.160
 1341BOLB   NC132161  21.450  16.530   7.770
 1341BOLB   PO132162  21.470  16.230   7.410
 1341BOLB   GL132163  21.470  15.970   6.950
 1341BOLB   GL232164  21.740  16.130   6.790
 1341BOLB   C1A32165  21.370  16.070   6.450
 1341BOLB   C2A32166  21.390  16.200   6.090
 1341BOLB   C3A32167  21.430  16.380   5.680
 1341BOLB   C4A32168  21.550  16.270   5.230
 1341BOLB   C1B32169  21.820  16.330   6.430
 1341BOLB   C2B32170  21.920  16.350   5.950
 1341BOLB   C3B32171  21.990  16.320   5.520
 1341BOLB   C4B32172  22.300  16.470   5.230
 1341BOLB   NC232173  22.050  17.100   2.920
 1341BOLB   PO232174  22.140  17.420   3.140
 1341BOLB   GL332175  22.150  17.280   3.520
 1341BOLB   GL432176  22.330  17.190   3.710
 1341BOLB   C1C32177  21.880  17.220   3.870
 1341BOLB   C2C32178  21.910  17.170   4.340
 1341BOLB   C3C32179  21.680  16.840   4.580
 1341BOLB   C4C32180  21.640  16.470   4.900
 1341BOLB   C1D32181  22.470  17.390   4.030
 1341BOLB   C2D32182  22.600  17.490   4.330
 1341BOLB   C3D32183  22.390  17.540   4.810
 1341BOLB   C4D32184  22.090  17.620   5.170
 1342BOLB   NC132185  24.280   5.720  16.120
 1342BOLB   PO132186  24.090   5.940  16.400
 1342BOLB   GL132187  24.440   5.670  16.580
 1342BOLB   GL232188  24.540   5.340  16.380
 1342BOLB   C1A32189  24.720   5.470  16.900
 1342BOLB   C2A32190  24.750   5.060  17.080
 1342BOLB   C3A32191  24.610   4.660  16.890
 1342BOLB   C4A32192  24.550   4.210  16.810
 1342BOLB   C1B32193  24.830   5.050  16.550
 1342BOLB   C2B32194  25.080   4.830  16.780
 1342BOLB   C3B32195  25.420   4.810  17.060
 1342BOLB   C4B32196  25.720   4.650  17.310
 1342BOLB   NC232197  24.840   2.100  16.920
 1342BOLB   PO232198  24.480   2.100  16.510
 1342BOLB   GL332199  24.210   2.380  16.600
 1342BOLB   GL432200  24.060   2.450  16.280
 1342BOLB   C1C32201  24.140   2.810  16.780
 1342BOLB   C2C32202  24.100   3.260  16.970
 1342BOLB   C3C32203  24.040   3.700  16.890
 1342BOLB   C4C32204  24.400   3.950  16.940
 1342BOLB   C1D32205  23.830   2.860  16.280
 1342BOLB   C2D32206  23.360   2.840  16.150
 1342BOLB   C3D32207  22.970   2.770  15.920
 1342BOLB   C4D32208  22.520   2.790  15.980
 1343BOLB   NC132209  14.860   8.370  10.510
 1343BOLB   PO132210  14.550   8.600  10.620
 1343BOLB   GL132211  14.300   8.260  10.530
 1343BOLB   GL232212  14.510   7.980  10.330
 1343BOLB   C1A32213  14.100   7.970  10.140
 1343BOLB   C2A32214  13.880   7.840   9.840
 1343BOLB   C3A32215  13.670   7.680   9.540
 1343BOLB   C4A32216  13.270   7.440   9.580
 1343BOLB   C1B32217  14.450   7.440  10.340
 1343BOLB   C2B32218  14.370   7.070  10.050
 1343BOLB   C3B32219  14.360   6.650   9.790
 1343BOLB   C4B32220  14.490   6.370   9.460
 1343BOLB   NC232221  12.900   5.220   8.320
 1343BOLB   PO232222  13.350   5.540   8.200
 1343BOLB   GL332223  13.380   5.920   8.470
 1343BOLB   GL432224  13.740   5.870   8.480
 1343BOLB   C1C32225  13.190   6.150   8.840
 1343BOLB   C2C32226  12.920   6.420   8.990
 1343BOLB   C3C32227  12.990   6.750   9.300
 1343BOLB   C4C32228  13.150   7.080   9.500
 1343BOLB   C1D32229  13.740   5.890   8.900
 1343BOLB   C2D32230  13.990   6.200   9.080
 1343BOLB   C3D32231  14.130   6.670   9.280
 1343BOLB   C4D32232  14.430   6.890   9.250
 1344BOLB   NC132233  24.800   6.280  14.720
 1344BOLB   PO132234  24.370   6.210  14.990
 1344BOLB   GL132235  24.540   5.900  15.010
 1344BOLB   GL232236  24.630   5.870  15.320
 1344BOLB   C1A32237  24.950   5.690  14.960
 1344BOLB   C2A32238  25.100   5.410  15.130
 1344BOLB   C3A32239  25.370   5.000  15.190
 1344BOLB   C4A32240  25.570   4.590  15.130
 1344BOLB   C1B32241  24.700   5.550  15.560
 1344BOLB   C2B32242  24.940   5.070  15.490
 1344BOLB   C3B32243  25.090   4.660  15.490
 1344BOLB   C4B32244  25.250   4.190  15.590
 1344BOLB   NC232245  26.210   2.690  16.380
 1344BOLB   PO232246  25.990   2.430  16.170
 1344BOLB   GL332247  25.830   2.840  16.060
 1344BOLB   GL432248  25.560   2.630  15.940
 1344BOLB   C1C32249  25.850   3.250  16.050
 1344BOLB   C2C32250  25.800   3.480  15.810
 1344BOLB   C3C32251  25.540   3.820  15.470
 1344BOLB   C4C32252  25.570   4.170  15.250
 1344BOLB   C1D32253  25.390   2.890  15.780
 1344BOLB   C2D32254  25.360   3.390  15.730
 1344BOLB   C3D32255  25.320   3.760  15.880
 1344BOLB   C4D32256  25.640   3.860  16.220
 1345BOLB   NC132257  19.230   5.080  16.600
 1345BOLB   PO132258  19.070   5.260  17.020
 1345BOLB   GL132259  19.020   4.900  17.310
 1345BOLB   GL232260  19.320   4.800  17.540
 1345BOLB   C1A32261  19.170   4.470  17.200
 1345BOLB   C2A32262  19.430   4.230  17.480
 1345BOLB   C3A32263  19.690   3.840  17.470
 1345BOLB   C4A32264  19.730   3.530  17.250
 1345BOLB   C1B32265  18.990   4.550  17.690
 1345BOLB   C2B32266  18.970   4.110  17.690
 1345BOLB   C3B32267  18.840   3.720  17.720
 1345BOLB   C4B32268  18.500   3.380  17.800
 1345BOLB   NC232269  19.070   2.090  19.150
 1345BOLB   PO232270  19.350   2.180  18.710
 1345BOLB   GL332271  19.330   2.490  18.360
 1345BOLB   GL432272  19.270   2.830  18.480
 1345BOLB   C1C32273  19.660   2.520  18.160
 1345BOLB   C2C32274  19.970   2.620  17.950
 1345BOLB   C3C32275  19.970   2.900  17.640
 1345BOLB   C4C32276  19.870   3.150  17.320
 1345BOLB   C1D32277  19.210   3.230  18.390
 1345BOLB   C2D32278  19.350   3.640  18.520
 1345BOLB   C3D32279  19.630   3.850  18.800
 1345BOLB   C4D32280  19.650   4.240  18.790
 1346BOLB   NC132281  25.230   9.630   9.930
 1346BOLB   PO132282  25.210   9.300   9.630
 1346BOLB   GL132283  25.590   9.080   9.460
 1346BOLB   GL232284  25.550   8.720   9.410
 1346BOLB   C1A32285  26.020   9.190   9.330
 1346BOLB   C2A32286  26.240   8.960   9.070
 1346BOLB   C3A32287  26.590   8.920   8.900
 1346BOLB   C4A32288  26.980   8.690   8.830
 1346BOLB   C1B32289  25.720   8.260   9.190
 1346BOLB   C2B32290  25.710   7.980   8.900
 1346BOLB   C3B32291  25.340   7.770   8.700
 1346BOLB   C4B32292  25.030   7.780   8.400
 1346BOLB   NC232293  28.390   7.160   7.290
 1346BOLB   PO232294  28.290   7.150   7.680
 1346BOLB   GL332295  28.100   7.380   8.090
 1346BOLB   GL432296  27.720   7.380   8.130
 1346BOLB   C1C32297  28.140   7.680   8.420
 1346BOLB   C2C32298  27.850   7.990   8.700
 1346BOLB   C3C32299  27.510   8.180   8.630
 1346BOLB   C4C32300  27.180   8.410   8.740
 1346BOLB   C1D32301  27.300   7.530   7.910
 1346BOLB   C2D32302  26.990   7.810   7.990
 1346BOLB   C3D32303  26.570   8.010   8.110
 1346BOLB   C4D32304  26.290   8.230   8.350
 1347BOLB   NC132305  17.510   4.870  14.290
 1347BOLB   PO132306  17.930   4.680  14.220
 1347BOLB   GL132307  17.750   4.410  14.110
 1347BOLB   GL232308  17.330   4.330  14.310
 1347BOLB   C1A32309  17.830   3.930  14.150
 1347BOLB   C2A32310  17.910   3.700  13.870
 1347BOLB   C3A32311  18.090   3.240  13.690
 1347BOLB   C4A32312  18.290   2.860  13.830
 1347BOLB   C1B32313  17.130   3.910  14.380
 1347BOLB   C2B32314  17.180   3.470  14.550
 1347BOLB   C3B32315  17.390   3.050  14.430
 1347BOLB   C4B32316  17.800   2.780  14.510
 1347BOLB   NC232317  18.380   0.260  14.000
 1347BOLB   PO232318  18.740   0.520  14.050
 1347BOLB   GL332319  18.580   0.960  14.090
 1347BOLB   GL432320  18.770   1.190  13.910
 1347BOLB   C1C32321  18.390   1.310  14.270
 1347BOLB   C2C32322  18.390   1.800  14.160
 1347BOLB   C3C32323  18.480   2.160  14.010
 1347BOLB   C4C32324  18.480   2.500  13.880
 1347BOLB   C1D32325  18.910   1.330  13.440
 1347BOLB   C2D32326  19.190   1.500  13.010
 1347BOLB   C3D32327  19.560   1.660  12.870
 1347BOLB   C4D32328  19.750   1.810  12.570
 1348BOLB   NC132329  12.530  13.710  10.260
 1348BOLB   PO132330  12.160  13.410  10.300
 1348BOLB   GL132331  11.870  13.350   9.950
 1348BOLB   GL232332  11.610  13.530  10.120
 1348BOLB   C1A32333  11.660  13.510   9.590
 1348BOLB   C2A32334  11.310  13.440   9.410
 1348BOLB   C3A32335  10.920  13.610   9.400
 1348BOLB   C4A32336  10.510  13.430   9.220
 1348BOLB   C1B32337  11.420  13.130   9.840
 1348BOLB   C2B32338  11.020  12.910   9.540
 1348BOLB   C3B32339  10.610  12.900   9.450
 1348BOLB   C4B32340  10.190  12.850   9.150
 1348BOLB   NC232341   8.670  13.350   7.950
 1348BOLB   PO232342   8.700  12.900   7.810
 1348BOLB   GL332343   9.130  13.040   8.000
 1348BOLB   GL432344   9.510  13.050   7.860
 1348BOLB   C1C32345   9.450  13.060   8.310
 1348BOLB   C2C32346   9.590  13.260   8.650
 1348BOLB   C3C32347   9.760  13.360   8.980
 1348BOLB   C4C32348  10.060  13.320   9.100
 1348BOLB   C1D32349   9.730  12.690   7.990
 1348BOLB   C2D32350   9.970  12.600   8.300
 1348BOLB   C3D32351  10.340  12.770   8.540
 1348BOLB   C4D32352  10.610  13.140   8.590
 1349BOLB   NC132353  10.390  12.590  13.120
 1349BOLB   PO132354  10.550  12.330  12.810
 1349BOLB   GL132355  10.290  12.020  12.630
 1349BOLB   GL232356  10.350  12.120  12.350
 1349BOLB   C1A32357   9.910  11.810  12.280
 1349BOLB   C2A32358   9.590  11.510  12.110
 1349BOLB   C3A32359   9.330  11.230  11.860
 1349BOLB   C4A32360   9.310  10.900  11.530
 1349BOLB   C1B32361  10.190  12.040  11.920
 1349BOLB   C2B32362   9.940  11.690  11.740
 1349BOLB   C3B32363   9.610  11.510  11.480
 1349BOLB   C4B32364   9.180  11.340  11.300
 1349BOLB   NC232365   6.820  10.900  10.270
 1349BOLB   PO232366   7.220  10.740  10.490
 1349BOLB   GL332367   7.580  10.910  10.670
 1349BOLB   GL432368   7.830  10.870  10.980
 1349BOLB   C1C32369   8.130  10.890  10.620
 1349BOLB   C2C32370   8.540  10.730  10.650
 1349BOLB   C3C32371   8.990  10.650  10.690
 1349BOLB   C4C32372   9.150  10.590  11.230
 1349BOLB   C1D32373   7.710  10.730  11.370
 1349BOLB   C2D32374   8.080  10.810  11.550
 1349BOLB   C3D32375   8.250  11.280  11.600
 1349BOLB   C4D32376   8.510  11.700  11.680
 1350BOLB   NC132377  15.820  22.970  12.380
 1350BOLB   PO132378  15.650  22.760  12.180
 1350BOLB   GL132379  15.240  23.020  12.350
 1350BOLB   GL232380  15.410  23.080  12.720
 1350BOLB   C1A32381  15.160  23.370  12.420
 1350BOLB   C2A32382  14.960  23.760  12.330
 1350BOLB   C3A32383  14.760  23.920  12.110
 1350BOLB   C4A32384  14.650  24.270  11.840
 1350BOLB   C1B32385  15.250  23.530  12.870
 1350BOLB   C2B32386  14.960  23.760  12.840
 1350BOLB   C3B32387  14.780  24.120  13.210
 1350BOLB   C4B32388  14.520  24.460  13.140
 1350BOLB   NC232389  13.280  26.210  11.840
 1350BOLB   PO232390  12.910  25.980  11.880
 1350BOLB   GL332391  13.210  25.650  12.070
 1350BOLB   GL432392  13.570  25.800  11.920
 1350BOLB   C1C32393  13.510  25.330  12.270
 1350BOLB   C2C32394  13.870  25.160  12.200
 1350BOLB   C3C32395  14.150  24.910  11.960
 1350BOLB   C4C32396  14.350  24.550  11.680
 1350BOLB   C1D32397  13.750  25.570  11.680
 1350BOLB   C2D32398  13.820  25.220  11.640
 1350BOLB   C3D32399  13.700  24.730  11.810
 1350BOLB   C4D32400  13.720  24.660  12.260
 1351BOLB   NC132401  24.110   5.890  13.730
 1351BOLB   PO132402  24.440   6.120  13.530
 1351BOLB   GL132403  24.790   5.920  13.580
 1351BOLB   GL232404  25.060   6.060  13.340
 1351BOLB   C1A32405  25.160   5.670  13.660
 1351BOLB   C2A32406  25.610   5.470  13.620
 1351BOLB   C3A32407  25.860   5.200  13.400
 1351BOLB   C4A32408  26.030   5.040  12.880
 1351BOLB   C1B32409  25.360   6.100  13.060
 1351BOLB   C2B32410  25.530   5.910  12.760
 1351BOLB   C3B32411  25.810   5.550  12.480
 1351BOLB   C4B32412  25.810   5.510  12.130
 1351BOLB   NC232413  27.640   3.330  12.620
 1351BOLB   PO232414  27.360   3.650  12.410
 1351BOLB   GL332415  26.950   3.770  12.730
 1351BOLB   GL432416  26.830   3.710  13.100
 1351BOLB   C1C32417  26.460   3.940  12.800
 1351BOLB   C2C32418  26.080   4.130  12.730
 1351BOLB   C3C32419  25.800   4.410  12.640
 1351BOLB   C4C32420  25.900   4.740  12.610
 1351BOLB   C1D32421  26.650   3.710  13.580
 1351BOLB   C2D32422  26.230   3.730  13.730
 1351BOLB   C3D32423  25.870   3.980  13.780
 1351BOLB   C4D32424  25.450   3.930  13.880
 1352BOLB   NC132425  16.850  10.430   8.500
 1352BOLB   PO132426  16.760  10.670   8.210
 1352BOLB   GL132427  16.800  10.360   7.860
 1352BOLB   GL232428  16.850  10.140   8.030
 1352BOLB   C1A32429  16.640  10.230   7.430
 1352BOLB   C2A32430  16.670  10.220   7.070
 1352BOLB   C3A32431  16.460  10.160   6.730
 1352BOLB   C4A32432  16.130  10.370   6.360
 1352BOLB   C1B32433  16.960   9.880   7.670
 1352BOLB   C2B32434  16.910   9.740   7.260
 1352BOLB   C3B32435  16.790   9.730   6.860
 1352BOLB   C4B32436  16.730   9.750   6.370
 1352BOLB   NC232437  16.220  10.920   4.050
 1352BOLB   PO232438  15.800  11.060   4.150
 1352BOLB   GL332439  15.940  10.930   4.540
 1352BOLB   GL432440  16.200  11.070   4.550
 1352BOLB   C1C32441  16.010  10.820   5.000
 1352BOLB   C2C32442  16.030  10.960   5.400
 1352BOLB   C3C32443  15.970  10.920   5.820
 1352BOLB   C4C32444  15.840  10.560   6.190
 1352BOLB   C1D32445  16.570  11.250   4.690
 1352BOLB   C2D32446  16.650  11.560   5.060
 1352BOLB   C3D32447  16.830  11.720   5.410
 1352BOLB   C4D32448  16.840  12.100   5.580
 1353BOLB   NC132449  12.260  19.580  14.150
 1353BOLB   PO132450  11.770  19.570  14.100
 1353BOLB   GL132451  11.370  19.750  14.010
 1353BOLB   GL232452  11.220  20.070  13.910
 1353BOLB   C1A32453  10.900  19.800  14.200
 1353BOLB   C2A32454  10.490  20.070  14.330
 1353BOLB   C3A32455  10.170  20.360  14.270
 1353BOLB   C4A32456   9.960  20.560  14.490
 1353BOLB   C1B32457  10.890  20.150  13.750
 1353BOLB   C2B32458  10.460  20.330  13.800
 1353BOLB   C3B32459  10.150  20.580  13.760
 1353BOLB   C4B32460   9.890  20.900  14.050
 1353BOLB   NC232461   8.230  20.820  16.340
 1353BOLB   PO232462   8.160  20.570  15.940
 1353BOLB   GL332463   8.540  20.450  15.800
 1353BOLB   GL432464   8.680  20.500  16.140
 1353BOLB   C1C32465   8.920  20.670  15.680
 1353BOLB   C2C32466   9.250  20.750  15.250
 1353BOLB   C3C32467   9.550  20.910  15.040
 1353BOLB   C4C32468   9.680  20.640  14.790
 1353BOLB   C1D32469   8.770  20.100  16.280
 1353BOLB   C2D32470   9.120  19.770  16.370
 1353BOLB   C3D32471   9.450  19.480  16.450
 1353BOLB   C4D32472   9.940  19.600  16.350
 1354BOLB   NC132473  10.970  14.740  11.540
 1354BOLB   PO132474  10.550  15.000  11.460
 1354BOLB   GL132475  10.270  14.930  11.210
 1354BOLB   GL232476  10.130  14.560  11.290
 1354BOLB   C1A32477   9.860  14.920  10.980
 1354BOLB   C2A32478   9.430  14.840  10.870
 1354BOLB   C3A32479   9.120  14.560  10.910
 1354BOLB   C4A32480   8.840  14.240  10.840
 1354BOLB   C1B32481  10.030  14.440  10.840
 1354BOLB   C2B32482   9.930  14.020  10.610
 1354BOLB   C3B32483   9.590  13.900  10.350
 1354BOLB   C4B32484   9.470  13.730   9.900
 1354BOLB   NC232485   7.000  13.920  10.060
 1354BOLB   PO232486   6.880  13.480   9.830
 1354BOLB   GL332487   7.170  13.430  10.200
 1354BOLB   GL432488   7.440  13.260  10.150
 1354BOLB   C1C32489   7.480  13.500  10.560
 1354BOLB   C2C32490   7.910  13.680  10.520
 1354BOLB   C3C32491   8.290  13.640  10.500
 1354BOLB   C4C32492   8.590  13.960  10.570
 1354BOLB   C1D32493   7.910  13.450  10.060
 1354BOLB   C2D32494   8.360  13.440  10.030
 1354BOLB   C3D32495   8.740  13.490  10.160
 1354BOLB   C4D32496   9.040  13.770  10.310
 1355BOLB   NC132497   9.970  13.620  15.280
 1355BOLB   PO132498  10.110  13.390  14.940
 1355BOLB   GL132499   9.820  13.370  14.640
 1355BOLB   GL232500   9.660  13.610  14.570
 1355BOLB   C1A32501   9.610  13.100  14.380
 1355BOLB   C2A32502   9.260  13.010  14.260
 1355BOLB   C3A32503   8.800  12.880  14.360
 1355BOLB   C4A32504   8.380  12.860  14.560
 1355BOLB   C1B32505   9.290  13.380  14.680
 1355BOLB   C2B32506   8.980  13.130  14.790
 1355BOLB   C3B32507   8.640  12.850  15.030
 1355BOLB   C4B32508   8.290  12.970  15.380
 1355BOLB   NC232509   6.110  11.920  14.700
 1355BOLB   PO232510   6.460  11.750  14.850
 1355BOLB   GL332511   6.870  11.870  14.810
 1355BOLB   GL432512   7.030  11.660  15.020
 1355BOLB   C1C32513   7.230  12.150  14.960
 1355BOLB   C2C32514   7.560  12.210  14.930
 1355BOLB   C3C32515   8.010  12.310  14.890
 1355BOLB   C4C32516   8.230  12.620  14.910
 1355BOLB   C1D32517   7.490  11.740  15.110
 1355BOLB   C2D32518   7.940  11.830  14.870
 1355BOLB   C3D32519   8.290  11.970  14.570
 1355BOLB   C4D32520   8.570  12.400  14.620
 1356BOLB   NC132521  12.910  18.580   9.840
 1356BOLB   PO132522  12.820  18.490   9.640
 1356BOLB   GL132523  12.500  18.520   9.350
 1356BOLB   GL232524  12.630  18.740   9.220
 1356BOLB   C1A32525  12.210  18.770   9.010
 1356BOLB   C2A32526  12.000  18.900   8.710
 1356BOLB   C3A32527  11.730  19.060   8.380
 1356BOLB   C4A32528  11.350  18.980   8.080
 1356BOLB   C1B32529  12.650  19.000   8.860
 1356BOLB   C2B32530  12.520  19.040   8.510
 1356BOLB   C3B32531  12.430  19.030   8.100
 1356BOLB   C4B32532  12.140  19.430   7.910
 1356BOLB   NC232533   9.340  19.040   6.420
 1356BOLB   PO232534   9.390  18.590   6.570
 1356BOLB   GL332535   9.740  18.540   6.790
 1356BOLB   GL432536   9.930  18.220   6.820
 1356BOLB   C1C32537  10.190  18.720   6.810
 1356BOLB   C2C32538  10.620  18.760   7.170
 1356BOLB   C3C32539  10.960  18.880   7.400
 1356BOLB   C4C32540  11.150  19.000   7.730
 1356BOLB   C1D32541  10.270  18.230   6.970
 1356BOLB   C2D32542  10.760  18.350   6.950
 1356BOLB   C3D32543  11.130  18.380   7.160
 1356BOLB   C4D32544  11.530  18.490   7.160
 1357BOLB   NC132545  18.400  10.920   8.230
 1357BOLB   PO132546  18.240  10.490   8.210
 1357BOLB   GL132547  18.150  10.500   7.820
 1357BOLB   GL232548  18.430  10.530   7.640
 1357BOLB   C1A32549  18.110  10.210   7.490
 1357BOLB   C2A32550  18.260   9.780   7.270
 1357BOLB   C3A32551  18.420   9.490   6.810
 1357BOLB   C4A32552  18.320   9.600   6.420
 1357BOLB   C1B32553  18.560  10.400   7.250
 1357BOLB   C2B32554  18.650  10.060   6.980
 1357BOLB   C3B32555  18.720   9.870   6.600
 1357BOLB   C4B32556  18.900   9.830   6.190
 1357BOLB   NC232557  18.900   9.950   3.900
 1357BOLB   PO232558  18.510  10.060   3.950
 1357BOLB   GL332559  18.400  10.000   4.310
 1357BOLB   GL432560  18.300  10.250   4.410
 1357BOLB   C1C32561  18.120  10.000   4.790
 1357BOLB   C2C32562  18.250  10.100   5.190
 1357BOLB   C3C32563  18.460   9.900   5.510
 1357BOLB   C4C32564  18.440   9.670   6.000
 1357BOLB   C1D32565  18.520  10.700   4.600
 1357BOLB   C2D32566  18.640  10.840   4.930
 1357BOLB   C3D32567  18.470  10.590   5.260
 1357BOLB   C4D32568  18.240  10.480   5.560
 1358BOLB   NC132569  14.880   5.870  15.830
 1358BOLB   PO132570  14.630   6.100  16.200
 1358BOLB   GL132571  14.480   5.930  16.430
 1358BOLB   GL232572  14.230   6.120  16.480
 1358BOLB   C1A32573  14.230   5.670  16.660
 1358BOLB   C2A32574  14.170   5.370  17.040
 1358BOLB   C3A32575  13.940   4.970  16.970
 1358BOLB   C4A32576  14.130   4.580  17.000
 1358BOLB   C1B32577  13.870   6.050  16.790
 1358BOLB   C2B32578  13.760   5.750  16.810
 1358BOLB   C3B32579  13.530   5.460  16.950
 1358BOLB   C4B32580  13.700   5.270  17.320
 1358BOLB   NC232581  13.530   2.940  18.680
 1358BOLB   PO232582  13.250   3.320  18.690
 1358BOLB   GL332583  13.720   3.420  18.470
 1358BOLB   GL432584  13.960   3.310  18.770
 1358BOLB   C1C32585  13.850   3.690  18.220
 1358BOLB   C2C32586  13.910   3.900  17.760
 1358BOLB   C3C32587  13.800   3.970  17.400
 1358BOLB   C4C32588  14.030   4.200  17.050
 1358BOLB   C1D32589  14.350   3.340  18.630
 1358BOLB   C2D32590  14.690   3.380  18.400
 1358BOLB   C3D32591  14.890   3.640  18.030
 1358BOLB   C4D32592  15.090   3.920  17.760
 1359BOLB   NC132593  22.290  16.080   7.490
 1359BOLB   PO132594  22.350  16.510   7.360
 1359BOLB   GL132595  22.410  16.720   7.030
 1359BOLB   GL232596  22.350  17.110   6.930
 1359BOLB   C1A32597  22.630  16.590   6.620
 1359BOLB   C2A32598  22.780  16.740   6.180
 1359BOLB   C3A32599  23.070  16.710   5.770
 1359BOLB   C4A32600  23.420  16.650   5.600
 1359BOLB   C1B32601  22.160  17.420   6.510
 1359BOLB   C2B32602  22.310  17.570   6.140
 1359BOLB   C3B32603  22.560  17.640   5.790
 1359BOLB   C4B32604  22.680  17.750   5.380
 1359BOLB   NC232605  25.370  17.330   3.800
 1359BOLB   PO232606  24.930  17.360   3.850
 1359BOLB   GL332607  24.860  17.150   4.260
 1359BOLB   GL432608  25.100  17.270   4.510
 1359BOLB   C1C32609  24.630  16.910   4.530
 1359BOLB   C2C32610  24.220  17.000   4.730
 1359BOLB   C3C32611  23.840  16.810   5.060
 1359BOLB   C4C32612  23.610  16.560   5.200
 1359BOLB   C1D32613  25.030  17.030   4.920
 1359BOLB   C2D32614  24.600  16.680   4.980
 1359BOLB   C3D32615  24.280  16.490   5.110
 1359BOLB   C4D32616  24.040  16.310   5.420
 1360BOLB   NC132617  23.270   5.380  15.130
 1360BOLB   PO132618  23.350   5.430  14.720
 1360BOLB   GL132619  23.420   5.070  14.810
 1360BOLB   GL232620  23.730   5.000  14.920
 1360BOLB   C1A32621  23.400   4.570  14.890
 1360BOLB   C2A32622  23.480   4.200  15.050
 1360BOLB   C3A32623  23.780   3.950  15.270
 1360BOLB   C4A32624  24.150   3.670  15.150
 1360BOLB   C1B32625  23.840   4.670  14.650
 1360BOLB   C2B32626  24.080   4.370  14.490
 1360BOLB   C3B32627  24.330   4.120  14.390
 1360BOLB   C4B32628  24.480   3.910  14.000
 1360BOLB   NC232629  25.180   1.540  14.240
 1360BOLB   PO232630  24.970   1.680  14.530
 1360BOLB   GL332631  24.920   2.100  14.500
 1360BOLB   GL432632  24.570   2.000  14.280
 1360BOLB   C1C32633  24.700   2.440  14.480
 1360BOLB   C2C32634  24.800   2.920  14.460
 1360BOLB   C3C32635  24.630   3.390  14.500
 1360BOLB   C4C32636  24.390   3.610  14.850
 1360BOLB   C1D32637  24.580   2.350  13.890
 1360BOLB   C2D32638  24.710   2.790  13.980
 1360BOLB   C3D32639  24.540   3.150  14.060
 1360BOLB   C4D32640  24.370   3.440  13.880
 1361BOLB   NC132641  20.500   5.150  15.750
 1361BOLB   PO132642  20.250   4.870  15.950
 1361BOLB   GL132643  20.130   4.560  15.910
 1361BOLB   GL232644  19.900   4.530  15.670
 1361BOLB   C1A32645  20.230   4.140  16.110
 1361BOLB   C2A32646  20.080   3.730  16.080
 1361BOLB   C3A32647  19.780   3.310  16.160
 1361BOLB   C4A32648  19.290   3.180  16.190
 1361BOLB   C1B32649  19.830   4.040  15.730
 1361BOLB   C2B32650  19.830   3.640  15.640
 1361BOLB   C3B32651  20.050   3.180  15.690
 1361BOLB   C4B32652  20.090   2.820  15.540
 1361BOLB   NC232653  18.470   1.630  17.450
 1361BOLB   PO232654  18.510   1.310  17.230
 1361BOLB   GL332655  18.340   1.700  16.980
 1361BOLB   GL432656  18.260   1.680  16.590
 1361BOLB   C1C32657  18.290   2.100  16.890
 1361BOLB   C2C32658  18.460   2.480  16.790
 1361BOLB   C3C32659  18.560   2.810  16.590
 1361BOLB   C4C32660  18.950   3.100  16.480
 1361BOLB   C1D32661  18.680   1.720  16.510
 1361BOLB   C2D32662  19.050   1.610  16.360
 1361BOLB   C3D32663  19.150   1.520  16.030
 1361BOLB   C4D32664  19.080   1.170  15.740
 1362BOLB   NC132665  23.670  20.120   9.450
 1362BOLB   PO132666  24.100  20.140   9.480
 1362BOLB   GL132667  24.510  20.480   9.570
 1362BOLB   GL232668  24.490  20.510   9.760
 1362BOLB   C1A32669  24.750  20.770   9.380
 1362BOLB   C2A32670  25.110  20.950   9.180
 1362BOLB   C3A32671  25.400  21.310   9.080
 1362BOLB   C4A32672  25.670  21.680   8.950
 1362BOLB   C1B32673  24.700  20.890   9.840
 1362BOLB   C2B32674  25.030  21.170   9.700
 1362BOLB   C3B32675  25.410  21.450   9.720
 1362BOLB   C4B32676  25.750  21.470   9.400
 1362BOLB   NC232677  27.740  22.960   8.660
 1362BOLB   PO232678  27.400  23.040   8.770
 1362BOLB   GL332679  27.040  22.810   8.830
 1362BOLB   GL432680  26.780  22.990   8.890
 1362BOLB   C1C32681  26.850  22.420   8.740
 1362BOLB   C2C32682  26.750  22.060   8.520
 1362BOLB   C3C32683  26.360  21.950   8.570
 1362BOLB   C4C32684  26.000  21.970   8.800
 1362BOLB   C1D32685  26.430  22.690   9.010
 1362BOLB   C2D32686  26.420  22.220   8.970
 1362BOLB   C3D32687  26.410  21.730   9.080
 1362BOLB   C4D32688  26.200  21.380   9.000
 1363BOLB   NC132689  13.790  21.270  12.800
 1363BOLB   PO132690  13.570  21.630  12.540
 1363BOLB   GL132691  13.410  21.950  12.350
 1363BOLB   GL232692  13.190  22.150  12.500
 1363BOLB   C1A32693  13.350  22.290  12.060
 1363BOLB   C2A32694  13.000  22.410  11.830
 1363BOLB   C3A32695  12.810  22.620  11.550
 1363BOLB   C4A32696  12.630  22.890  11.270
 1363BOLB   C1B32697  12.760  22.120  12.420
 1363BOLB   C2B32698  12.250  21.900  12.430
 1363BOLB   C3B32699  11.840  22.000  12.340
 1363BOLB   C4B32700  11.490  21.990  12.190
 1363BOLB   NC232701  11.760  24.980  10.050
 1363BOLB   PO232702  11.730  25.220  10.410
 1363BOLB   GL332703  11.940  24.850  10.550
 1363BOLB   GL432704  11.890  24.780  10.830
 1363BOLB   C1C32705  12.060  24.350  10.630
 1363BOLB   C2C32706  12.440  24.100  10.870
 1363BOLB   C3C32707  12.590  23.870  11.180
 1363BOLB   C4C32708  12.530  23.320  11.200
 1363BOLB   C1D32709  12.320  24.570  11.120
 1363BOLB   C2D32710  12.710  24.330  11.390
 1363BOLB   C3D32711  12.770  23.940  11.640
 1363BOLB   C4D32712  12.970  23.570  11.600
 1364BOLB   NC132713  18.610   4.870  13.610
 1364BOLB   PO132714  18.610   4.740  14.040
 1364BOLB   GL132715  18.510   4.400  13.660
 1364BOLB   GL232716  18.270   4.370  13.890
 1364BOLB   C1A32717  18.420   4.100  13.380
 1364BOLB   C2A32718  18.270   3.740  13.460
 1364BOLB   C3A32719  18.410   3.270  13.340
 1364BOLB   C4A32720  18.370   2.930  13.370
 1364BOLB   C1B32721  18.320   4.010  13.980
 1364BOLB   C2B32722  18.260   3.710  14.230
 1364BOLB   C3B32723  17.920   3.430  14.450
 1364BOLB   C4B32724  17.760   3.280  14.800
 1364BOLB   NC232725  18.580   0.730  13.090
 1364BOLB   PO232726  18.180   0.650  13.330
 1364BOLB   GL332727  18.380   1.120  13.440
 1364BOLB   GL432728  18.080   1.260  13.400
 1364BOLB   C1C32729  18.520   1.600  13.660
 1364BOLB   C2C32730  18.310   1.900  13.590
 1364BOLB   C3C32731  18.270   2.160  13.290
 1364BOLB   C4C32732  18.370   2.540  13.290
 1364BOLB   C1D32733  17.860   1.590  13.470
 1364BOLB   C2D32734  17.790   2.000  13.330
 1364BOLB   C3D32735  17.510   2.430  13.410
 1364BOLB   C4D32736  17.500   2.850  13.150
 1365BOLB   NC132737  23.210  11.100   8.130
 1365BOLB   PO132738  22.920  11.140   7.900
 1365BOLB   GL132739  22.900  10.940   7.480
 1365BOLB   GL232740  22.640  10.980   7.450
 1365BOLB   C1A32741  23.080  11.040   7.080
 1365BOLB   C2A32742  23.250  11.240   6.770
 1365BOLB   C3A32743  23.320  11.190   6.370
 1365BOLB   C4A32744  23.460  10.970   6.080
 1365BOLB   C1B32745  22.600  10.890   7.030
 1365BOLB   C2B32746  22.840  10.950   6.560
 1365BOLB   C3B32747  22.870  11.080   6.170
 1365BOLB   C4B32748  23.050  11.370   5.800
 1365BOLB   NC232749  23.340  11.100   3.700
 1365BOLB   PO232750  23.170  10.730   3.670
 1365BOLB   GL332751  23.110  10.740   4.130
 1365BOLB   GL432752  22.800  10.770   4.280
 1365BOLB   C1C32753  23.210  10.680   4.540
 1365BOLB   C2C32754  23.200  10.570   5.000
 1365BOLB   C3C32755  23.380  10.730   5.340
 1365BOLB   C4C32756  23.280  10.920   5.750
 1365BOLB   C1D32757  22.760  10.800   4.700
 1365BOLB   C2D32758  22.800  10.940   5.080
 1365BOLB   C3D32759  22.860  10.820   5.410
 1365BOLB   C4D32760  22.690  10.960   5.690
 1366BOLB   NC132761  12.050  14.340   9.810
 1366BOLB   PO132762  11.950  13.930  10.020
 1366BOLB   GL132763  11.650  13.990   9.740
 1366BOLB   GL232764  11.520  14.330   9.690
 1366BOLB   C1A32765  11.330  14.000   9.420
 1366BOLB   C2A32766  10.970  14.070   9.240
 1366BOLB   C3A32767  10.550  13.950   9.130
 1366BOLB   C4A32768  10.150  13.800   9.160
 1366BOLB   C1B32769  11.150  14.600   9.450
 1366BOLB   C2B32770  11.000  14.600   9.100
 1366BOLB   C3B32771  10.950  14.500   8.700
 1366BOLB   C4B32772  10.810  14.760   8.230
 1366BOLB   NC232773   8.550  14.810   7.730
 1366BOLB   PO232774   8.280  14.480   7.800
 1366BOLB   GL332775   8.700  14.420   8.070
 1366BOLB   GL432776   8.890  14.140   7.940
 1366BOLB   C1C32777   9.030  14.430   8.320
 1366BOLB   C2C32778   9.270  14.160   8.550
 1366BOLB   C3C32779   9.520  13.790   8.660
 1366BOLB   C4C32780   9.920  13.720   8.720
 1366BOLB   C1D32781   8.880  13.890   8.290
 1366BOLB   C2D32782   8.910  13.760   8.750
 1366BOLB   C3D32783   9.230  13.700   9.040
 1366BOLB   C4D32784   9.680  13.890   9.120
 1367BOLB   NC132785  25.430   7.410  17.780
 1367BOLB   PO132786  25.680   7.590  17.370
 1367BOLB   GL132787  25.930   7.430  17.700
 1367BOLB   GL232788  26.090   7.610  17.880
 1367BOLB   C1A32789  26.080   7.090  17.970
 1367BOLB   C2A32790  26.320   6.990  18.260
 1367BOLB   C3A32791  26.460   6.870  18.670
 1367BOLB   C4A32792  26.550   6.750  19.040
 1367BOLB   C1B32793  26.420   7.470  18.010
 1367BOLB   C2B32794  26.810   7.340  17.850
 1367BOLB   C3B32795  27.260   7.380  17.760
 1367BOLB   C4B32796  27.660   7.380  18.000
 1367BOLB   NC232797  27.580   6.100  21.030
 1367BOLB   PO232798  27.980   6.050  20.810
 1367BOLB   GL332799  27.720   6.280  20.590
 1367BOLB   GL432800  27.820   6.620  20.510
 1367BOLB   C1C32801  27.470   6.140  20.220
 1367BOLB   C2C32802  27.020   6.230  20.040
 1367BOLB   C3C32803  26.780   6.500  19.840
 1367BOLB   C4C32804  26.770   6.620  19.440
 1367BOLB   C1D32805  27.630   6.800  20.230
 1367BOLB   C2D32806  27.550   7.060  19.990
 1367BOLB   C3D32807  27.590   7.120  19.630
 1367BOLB   C4D32808  27.540   7.210  19.280
 1368BOLB   NC132809  19.090   4.920  13.980
 1368BOLB   PO132810  19.370   4.750  13.700
 1368BOLB   GL132811  19.010   4.480  13.590
 1368BOLB   GL232812  19.020   4.370  13.250
 1368BOLB   C1A32813  18.880   3.970  13.640
 1368BOLB   C2A32814  18.670   3.630  13.770
 1368BOLB   C3A32815  18.510   3.280  14.010
 1368BOLB   C4A32816  18.650   2.890  14.260
 1368BOLB   C1B32817  19.070   3.960  13.050
 1368BOLB   C2B32818  19.000   3.570  13.230
 1368BOLB   C3B32819  18.920   3.210  13.450
 1368BOLB   C4B32820  18.930   2.940  13.780
 1368BOLB   NC232821  18.730   0.390  15.480
 1368BOLB   PO232822  19.070   0.750  15.330
 1368BOLB   GL332823  18.980   1.090  15.050
 1368BOLB   GL432824  19.280   1.140  14.810
 1368BOLB   C1C32825  18.900   1.550  14.990
 1368BOLB   C2C32826  19.120   1.920  14.730
 1368BOLB   C3C32827  18.980   2.340  14.620
 1368BOLB   C4C32828  18.680   2.480  14.380
 1368BOLB   C1D32829  19.740   1.210  14.950
 1368BOLB   C2D32830  19.990   1.550  14.740
 1368BOLB   C3D32831  20.100   1.990  14.590
 1368BOLB   C4D32832  20.180   2.440  14.610
 1369BOLB   NC132833  15.080  12.240   7.980
 1369BOLB   PO132834  15.070  12.630   8.100
 1369BOLB   GL132835  14.680  12.570   7.860
 1369BOLB   GL232836  14.420  12.700   7.930
 1369BOLB   C1A32837  14.600  12.470   7.440
 1369BOLB   C2A32838  14.400  12.350   7.050
 1369BOLB   C3A32839  14.080  11.990   6.840
 1369BOLB   C4A32840  13.790  11.730   6.640
 1369BOLB   C1B32841  14.180  12.380   7.750
 1369BOLB   C2B32842  13.980  12.410   7.370
 1369BOLB   C3B32843  13.630  12.050   7.120
 1369BOLB   C4B32844  13.530  12.220   6.740
 1369BOLB   NC232845  11.860  11.920   4.720
 1369BOLB   PO232846  12.150  11.770   4.990
 1369BOLB   GL332847  12.460  11.990   5.120
 1369BOLB   GL432848  12.350  12.260   5.270
 1369BOLB   C1C32849  12.780  11.810   5.410
 1369BOLB   C2C32850  13.020  11.790   5.730
 1369BOLB   C3C32851  13.030  11.890   6.230
 1369BOLB   C4C32852  13.510  11.930   6.330
 1369BOLB   C1D32853  12.210  12.320   5.730
 1369BOLB   C2D32854  12.300  12.450   6.160
 1369BOLB   C3D32855  12.550  12.770   6.230
 1369BOLB   C4D32856  12.560  13.050   6.530
 1370BOLB   NC132857  18.870   6.190  11.180
 1370BOLB   PO132858  18.560   5.960  11.040
 1370BOLB   GL132859  18.570   5.590  10.890
 1370BOLB   GL232860  18.610   5.520  10.490
 1370BOLB   C1A32861  18.670   5.180  10.960
 1370BOLB   C2A32862  18.920   4.840  11.170
 1370BOLB   C3A32863  19.210   4.550  10.910
 1370BOLB   C4A32864  19.140   4.120  10.720
 1370BOLB   C1B32865  18.610   5.160  10.150
 1370BOLB   C2B32866  18.780   4.820  10.000
 1370BOLB   C3B32867  19.150   4.690   9.920
 1370BOLB   C4B32868  19.620   4.560   9.890
 1370BOLB   NC232869  19.210   2.060   9.300
 1370BOLB   PO232870  19.300   2.490   9.180
 1370BOLB   GL332871  19.290   2.820   9.500
 1370BOLB   GL432872  19.620   2.790   9.480
 1370BOLB   C1C32873  19.270   2.980   9.880
 1370BOLB   C2C32874  19.020   3.140  10.140
 1370BOLB   C3C32875  19.130   3.340  10.510
 1370BOLB   C4C32876  18.970   3.710  10.750
 1370BOLB   C1D32877  19.580   3.220   9.570
 1370BOLB   C2D32878  19.460   3.450   9.990
 1370BOLB   C3D32879  19.370   3.750  10.370
 1370BOLB   C4D32880  19.510   3.740  10.800
 1371BOLB   NC132881  11.300  10.670  13.800
 1371BOLB   PO132882  11.190  11.040  13.950
 1371BOLB   GL132883  10.910  11.000  13.650
 1371BOLB   GL232884  10.780  10.660  13.720
 1371BOLB   C1A32885  10.570  11.040  13.500
 1371BOLB   C2A32886  10.160  11.100  13.410
 1371BOLB   C3A32887   9.810  10.820  13.370
 1371BOLB   C4A32888   9.660  10.420  13.310
 1371BOLB   C1B32889  10.280  10.560  13.670
 1371BOLB   C2B32890   9.850  10.490  13.810
 1371BOLB   C3B32891   9.460  10.260  13.930
 1371BOLB   C4B32892   9.160   9.970  14.220
 1371BOLB   NC232893   7.430   9.320  14.430
 1371BOLB   PO232894   7.620   9.310  14.030
 1371BOLB   GL332895   8.040   9.370  13.910
 1371BOLB   GL432896   8.030   9.670  13.690
 1371BOLB   C1C32897   8.520   9.580  13.770
 1371BOLB   C2C32898   8.800   9.770  13.620
 1371BOLB   C3C32899   9.090  10.060  13.620
 1371BOLB   C4C32900   9.270  10.380  13.310
 1371BOLB   C1D32901   8.240   9.900  14.100
 1371BOLB   C2D32902   8.650   9.920  14.340
 1371BOLB   C3D32903   8.850  10.080  14.600
 1371BOLB   C4D32904   9.220   9.920  14.750
 1372BOLB   NC132905  15.450  16.530   7.710
 1372BOLB   PO132906  15.800  16.910   7.680
 1372BOLB   GL132907  15.500  16.890   7.380
 1372BOLB   GL232908  15.530  17.190   7.200
 1372BOLB   C1A32909  15.220  16.880   7.070
 1372BOLB   C2A32910  14.780  16.830   6.970
 1372BOLB   C3A32911  14.580  16.900   6.570
 1372BOLB   C4A32912  14.210  16.670   6.430
 1372BOLB   C1B32913  15.580  17.190   6.740
 1372BOLB   C2B32914  15.640  16.960   6.420
 1372BOLB   C3B32915  15.590  16.800   6.030
 1372BOLB   C4B32916  15.600  16.790   5.650
 1372BOLB   NC232917  13.150  17.160   4.520
 1372BOLB   PO232918  13.380  17.510   4.530
 1372BOLB   GL332919  13.230  17.430   4.910
 1372BOLB   GL432920  12.830  17.320   5.040
 1372BOLB   C1C32921  13.390  17.290   5.310
 1372BOLB   C2C32922  13.430  16.970   5.650
 1372BOLB   C3C32923  13.660  16.750   5.990
 1372BOLB   C4C32924  13.870  16.520   6.240
 1372BOLB   C1D32925  12.940  17.090   5.340
 1372BOLB   C2D32926  12.970  16.790   5.600
 1372BOLB   C3D32927  13.160  16.680   5.920
 1372BOLB   C4D32928  13.230  16.810   6.340
 1373BOLB   NC132929  13.690  19.570   9.720
 1373BOLB   PO132930  13.690  19.760   9.340
 1373BOLB   GL132931  13.360  20.000   9.270
 1373BOLB   GL232932  13.220  20.170   9.410
 1373BOLB   C1A32933  13.070  20.190   8.850
 1373BOLB   C2A32934  12.970  20.630   8.860
 1373BOLB   C3A32935  12.960  21.080   8.750
 1373BOLB   C4A32936  12.800  21.200   8.340
 1373BOLB   C1B32937  12.860  20.380   9.300
 1373BOLB   C2B32938  12.500  20.610   9.200
 1373BOLB   C3B32939  12.150  20.630   9.000
 1373BOLB   C4B32940  11.830  20.710   8.820
 1373BOLB   NC232941  11.830  22.610   6.880
 1373BOLB   PO232942  11.370  22.750   7.010
 1373BOLB   GL332943  11.590  22.490   7.290
 1373BOLB   GL432944  11.750  22.700   7.390
 1373BOLB   C1C32945  11.900  22.220   7.580
 1373BOLB   C2C32946  12.160  21.940   7.690
 1373BOLB   C3C32947  12.260  21.570   7.920
 1373BOLB   C4C32948  12.510  21.400   8.010
 1373BOLB   C1D32949  12.070  22.620   7.750
 1373BOLB   C2D32950  12.120  22.540   8.190
 1373BOLB   C3D32951  12.260  22.290   8.510
 1373BOLB   C4D32952  12.550  22.070   8.730
 1374BOLB   NC132953  11.550  19.360  13.690
 1374BOLB   PO132954  11.210  19.260  13.880
 1374BOLB   GL132955  10.800  19.350  13.920
 1374BOLB   GL232956  10.470  19.260  13.760
 1374BOLB   C1A32957  10.560  19.480  14.260
 1374BOLB   C2A32958  10.200  19.440  14.170
 1374BOLB   C3A32959   9.810  19.600  14.170
 1374BOLB   C4A32960   9.580  19.840  13.940
 1374BOLB   C1B32961  10.110  19.510  13.700
 1374BOLB   C2B32962   9.950  19.800  13.440
 1374BOLB   C3B32963   9.690  19.850  13.080
 1374BOLB   C4B32964   9.620  20.020  12.640
 1374BOLB   NC232965   7.700  20.890  14.420
 1374BOLB   PO232966   7.880  21.180  14.690
 1374BOLB   GL332967   8.250  21.100  14.500
 1374BOLB   GL432968   8.160  20.960  14.280
 1374BOLB   C1C32969   8.590  20.920  14.580
 1374BOLB   C2C32970   8.820  20.630  14.310
 1374BOLB   C3C32971   9.050  20.290  14.260
 1374BOLB   C4C32972   9.200  20.040  13.970
 1374BOLB   C1D32973   8.490  20.890  13.940
 1374BOLB   C2D32974   8.630  20.910  13.470
 1374BOLB   C3D32975   8.760  20.470  13.240
 1374BOLB   C4D32976   8.740  20.030  12.930
 1375BOLB   NC132977  14.550   9.030  10.390
 1375BOLB   PO132978  14.480   9.330  10.070
 1375BOLB   GL132979  14.460   8.850   9.900
 1375BOLB   GL232980  14.450   8.580  10.160
 1375BOLB   C1A32981  14.350   8.770   9.440
 1375BOLB   C2A32982  14.110   8.570   9.240
 1375BOLB   C3A32983  14.050   8.280   8.960
 1375BOLB   C4A32984  13.960   8.170   8.530
 1375BOLB   C1B32985  14.620   8.400   9.730
 1375BOLB   C2B32986  14.570   8.240   9.250
 1375BOLB   C3B32987  14.560   8.350   8.840
 1375BOLB   C4B32988  14.500   8.000   8.490
 1375BOLB   NC232989  12.750   7.920   6.110
 1375BOLB   PO232990  13.080   7.630   6.280
 1375BOLB   GL332991  13.420   7.750   6.530
 1375BOLB   GL432992  13.640   8.020   6.460
 1375BOLB   C1C32993  13.780   8.020   6.920
 1375BOLB   C2C32994  13.890   8.130   7.250
 1375BOLB   C3C32995  13.870   8.190   7.700
 1375BOLB   C4C32996  13.980   8.180   8.140
 1375BOLB   C1D32997  14.030   8.130   6.480
 1375BOLB   C2D32998  14.160   8.570   6.490
 1375BOLB   C3D32999  14.250   8.790   6.810
 1375BOLB   C4D33000  14.410   9.010   7.120
 1376BOLB   NC133001  25.440  14.600   8.780
 1376BOLB   PO133002  25.790  14.510   8.860
 1376BOLB   GL133003  26.020  14.620   8.600
 1376BOLB   GL233004  26.230  15.040   8.520
 1376BOLB   C1A33005  26.120  14.650   8.110
 1376BOLB   C2A33006  26.060  14.510   7.800
 1376BOLB   C3A33007  26.070  14.620   7.400
 1376BOLB   C4A33008  26.070  14.860   7.080
 1376BOLB   C1B33009  26.320  15.100   8.190
 1376BOLB   C2B33010  26.490  14.980   7.780
 1376BOLB   C3B33011  26.570  14.870   7.420
 1376BOLB   C4B33012  26.710  14.560   7.000
 1376BOLB   NC233013  28.310  15.340   5.770
 1376BOLB   PO233014  28.370  15.000   5.650
 1376BOLB   GL333015  27.970  15.000   5.900
 1376BOLB   GL433016  27.880  15.310   6.020
 1376BOLB   C1C33017  27.580  14.930   6.170
 1376BOLB   C2C33018  27.240  14.730   6.260
 1376BOLB   C3C33019  26.900  14.810   6.570
 1376BOLB   C4C33020  26.440  14.930   6.840
 1376BOLB   C1D33021  27.610  15.350   6.420
 1376BOLB   C2D33022  27.260  15.560   6.720
 1376BOLB   C3D33023  27.320  15.470   7.190
 1376BOLB   C4D33024  27.210  15.340   7.470
 1377BOLB   NC133025  25.640  16.550   8.920
 1377BOLB   PO133026  25.890  16.840   9.240
 1377BOLB   GL133027  26.220  16.610   9.120
 1377BOLB   GL233028  26.180  16.560   8.820
 1377BOLB   C1A33029  26.610  16.770   8.950
 1377BOLB   C2A33030  26.820  16.950   8.600
 1377BOLB   C3A33031  27.270  16.850   8.500
 1377BOLB   C4A33032  27.760  16.700   8.360
 1377BOLB   C1B33033  26.480  16.610   8.460
 1377BOLB   C2B33034  26.500  16.770   8.190
 1377BOLB   C3B33035  26.700  17.110   8.100
 1377BOLB   C4B33036  27.020  17.330   8.390
 1377BOLB   NC233037  29.870  17.170   7.800
 1377BOLB   PO233038  29.710  16.970   7.570
 1377BOLB   GL333039  29.390  16.870   7.770
 1377BOLB   GL433040  29.150  16.920   8.000
 1377BOLB   C1C33041  29.230  16.490   7.770
 1377BOLB   C2C33042  28.840  16.360   8.040
 1377BOLB   C3C33043  28.580  16.270   8.270
 1377BOLB   C4C33044  28.190  16.490   8.360
 1377BOLB   C1D33045  28.660  16.880   8.090
 1377BOLB   C2D33046  28.290  16.990   8.200
 1377BOLB   C3D33047  27.870  17.290   8.210
 1377BOLB   C4D33048  27.540  17.500   8.200
 1378BOLB   NC133049  23.910  14.940   7.980
 1378BOLB   PO133050  23.710  15.330   7.830
 1378BOLB   GL133051  23.800  15.320   7.420
 1378BOLB   GL233052  23.970  15.660   7.340
 1378BOLB   C1A33053  24.100  15.190   7.110
 1378BOLB   C2A33054  24.300  14.900   6.760
 1378BOLB   C3A33055  24.220  14.820   6.310
 1378BOLB   C4A33056  23.940  14.900   6.000
 1378BOLB   C1B33057  23.840  15.850   7.000
 1378BOLB   C2B33058  24.100  15.950   6.660
 1378BOLB   C3B33059  24.280  15.850   6.340
 1378BOLB   C4B33060  24.410  16.090   6.010
 1378BOLB   NC233061  23.700  14.670   3.480
 1378BOLB   PO233062  24.090  14.660   3.530
 1378BOLB   GL333063  24.070  14.490   3.860
 1378BOLB   GL433064  23.710  14.530   3.960
 1378BOLB   C1C33065  24.110  14.560   4.260
 1378BOLB   C2C33066  24.110  14.740   4.640
 1378BOLB   C3C33067  24.200  14.830   5.110
 1378BOLB   C4C33068  23.990  15.020   5.520
 1378BOLB   C1D33069  23.750  14.950   4.230
 1378BOLB   C2D33070  23.760  15.290   4.310
 1378BOLB   C3D33071  23.810  15.670   4.210
 1378BOLB   C4D33072  23.910  16.140   4.260
 1379BOLB   NC133073  15.990  10.230   8.570
 1379BOLB   PO133074  15.940  10.550   8.250
 1379BOLB   GL133075  15.880  10.230   8.020
 1379BOLB   GL233076  15.910  10.020   8.170
 1379BOLB   C1A33077  15.530   9.980   7.770
 1379BOLB   C2A33078  15.460   9.690   7.500
 1379BOLB   C3A33079  15.530   9.270   7.330
 1379BOLB   C4A33080  15.700   9.050   7.050
 1379BOLB   C1B33081  15.890   9.670   8.010
 1379BOLB   C2B33082  15.860   9.240   7.640
 1379BOLB   C3B33083  15.930   8.900   7.450
 1379BOLB   C4B33084  16.360   8.650   7.340
 1379BOLB   NC233085  15.660   7.300   5.600
 1379BOLB   PO233086  15.260   7.290   5.680
 1379BOLB   GL333087  15.330   7.620   6.130
 1379BOLB   GL433088  15.620   7.580   6.240
 1379BOLB   C1C33089  15.340   7.750   6.640
 1379BOLB   C2C33090  15.490   8.050   6.850
 1379BOLB   C3C33091  15.840   8.290   6.890
 1379BOLB   C4C33092  15.910   8.600   7.020
 1379BOLB   C1D33093  15.680   7.400   6.650
 1379BOLB   C2D33094  15.760   7.600   6.990
 1379BOLB   C3D33095  15.700   7.930   7.360
 1379BOLB   C4D33096  15.900   8.390   7.470
 1380BOLB   NC133097  23.420   8.970   9.490
 1380BOLB   PO133098  23.030   8.790   9.220
 1380BOLB   GL133099  23.030   8.570   8.820
 1380BOLB   GL233100  23.130   8.300   8.910
 1380BOLB   C1A33101  23.060   8.440   8.430
 1380BOLB   C2A33102  23.410   8.210   8.200
 1380BOLB   C3A33103  23.410   7.870   7.910
 1380BOLB   C4A33104  23.410   7.520   7.680
 1380BOLB   C1B33105  23.440   8.020   8.720
 1380BOLB   C2B33106  23.450   7.710   8.410
 1380BOLB   C3B33107  23.580   7.420   8.200
 1380BOLB   C4B33108  23.820   7.120   7.860
 1380BOLB   NC233109  22.560   6.740   5.470
 1380BOLB   PO233110  22.370   6.330   5.680
 1380BOLB   GL333111  22.510   6.570   6.030
 1380BOLB   GL433112  22.340   6.680   6.110
 1380BOLB   C1C33113  22.860   6.730   6.400
 1380BOLB   C2C33114  22.950   6.900   6.820
 1380BOLB   C3C33115  23.320   6.920   7.050
 1380BOLB   C4C33116  23.330   7.300   7.290
 1380BOLB   C1D33117  22.360   6.510   6.550
 1380BOLB   C2D33118  22.500   6.670   6.880
 1380BOLB   C3D33119  22.510   6.920   7.210
 1380BOLB   C4D33120  22.580   7.300   7.390
 1381BOLB   NC133121  15.710  12.110   8.100
 1381BOLB   PO133122  15.450  11.880   7.790
 1381BOLB   GL133123  15.380  11.990   7.440
 1381BOLB   GL233124  15.100  12.180   7.460
 1381BOLB   C1A33125  15.330  11.990   7.010
 1381BOLB   C2A33126  15.030  11.900   6.730
 1381BOLB   C3A33127  14.610  12.130   6.650
 1381BOLB   C4A33128  14.250  12.430   6.550
 1381BOLB   C1B33129  14.920  12.360   7.060
 1381BOLB   C2B33130  15.120  12.380   6.690
 1381BOLB   C3B33131  15.070  12.220   6.230
 1381BOLB   C4B33132  15.370  12.360   5.840
 1381BOLB   NC233133  13.630  12.420   4.210
 1381BOLB   PO233134  13.940  12.300   4.470
 1381BOLB   GL333135  13.880  12.520   4.850
 1381BOLB   GL433136  14.010  12.760   4.690
 1381BOLB   C1C33137  13.790  12.490   5.260
 1381BOLB   C2C33138  13.750  12.290   5.620
 1381BOLB   C3C33139  13.840  12.200   6.030
 1381BOLB   C4C33140  13.920  12.340   6.430
 1381BOLB   C1D33141  13.960  12.980   5.130
 1381BOLB   C2D33142  14.270  13.210   5.430
 1381BOLB   C3D33143  14.390  13.570   5.750
 1381BOLB   C4D33144  14.670  13.880   5.930
 1382BOLB   NC133145  24.680  13.440   8.830
 1382BOLB   PO133146  24.880  13.420   8.360
 1382BOLB   GL133147  25.150  13.410   8.010
 1382BOLB   GL233148  25.300  13.660   7.920
 1382BOLB   C1A33149  25.250  13.150   7.580
 1382BOLB   C2A33150  25.470  13.010   7.270
 1382BOLB   C3A33151  25.820  13.040   6.950
 1382BOLB   C4A33152  26.140  12.910   6.720
 1382BOLB   C1B33153  25.670  13.660   7.710
 1382BOLB   C2B33154  25.970  13.460   7.400
 1382BOLB   C3B33155  26.150  13.440   7.060
 1382BOLB   C4B33156  26.590  13.200   6.850
 1382BOLB   NC233157  28.460  13.570   5.690
 1382BOLB   PO233158  28.220  13.220   5.630
 1382BOLB   GL333159  27.960  13.000   5.850
 1382BOLB   GL433160  27.690  12.940   5.660
 1382BOLB   C1C33161  27.690  12.740   6.150
 1382BOLB   C2C33162  27.400  12.410   6.310
 1382BOLB   C3C33163  26.990  12.560   6.580
 1382BOLB   C4C33164  26.560  12.740   6.570
 1382BOLB   C1D33165  27.320  12.830   5.520
 1382BOLB   C2D33166  27.030  12.440   5.520
 1382BOLB   C3D33167  26.800  12.010   5.490
 1382BOLB   C4D33168  26.440  11.670   5.590
 1383BOLB   NC133169  12.070  10.770  17.040
 1383BOLB   PO133170  11.820  10.880  17.420
 1383BOLB   GL133171  11.590  10.910  17.710
 1383BOLB   GL233172  11.420  10.690  17.700
 1383BOLB   C1A33173  11.670  10.850  18.150
 1383BOLB   C2A33174  11.550  10.570  18.470
 1383BOLB   C3A33175  11.200  10.530  18.710
 1383BOLB   C4A33176  10.840  10.390  18.960
 1383BOLB   C1B33177  11.210  10.720  18.000
 1383BOLB   C2B33178  10.890  10.590  18.350
 1383BOLB   C3B33179  10.600  10.420  18.560
 1383BOLB   C4B33180  10.430  10.160  18.940
 1383BOLB   NC233181   9.390  10.640  20.400
 1383BOLB   PO233182   9.120  11.010  20.570
 1383BOLB   GL333183   9.480  11.160  20.420
 1383BOLB   GL433184   9.380  11.140  20.100
 1383BOLB   C1C33185   9.920  11.140  20.140
 1383BOLB   C2C33186  10.270  11.140  19.780
 1383BOLB   C3C33187  10.390  10.850  19.460
 1383BOLB   C4C33188  10.500  10.580  19.190
 1383BOLB   C1D33189   9.600  11.410  19.930
 1383BOLB   C2D33190   9.930  11.530  19.750
 1383BOLB   C3D33191  10.180  11.680  19.470
 1383BOLB   C4D33192  10.240  11.680  19.010
 1384BOLB   NC133193  13.210   9.230  11.240
 1384BOLB   PO133194  12.850   9.620  11.520
 1384BOLB   GL133195  12.570   9.280  11.310
 1384BOLB   GL233196  12.420   9.180  11.540
 1384BOLB   C1A33197  12.080   9.200  11.030
 1384BOLB   C2A33198  11.830   8.940  10.820
 1384BOLB   C3A33199  11.630   8.510  10.570
 1384BOLB   C4A33200  11.240   8.240  10.420
 1384BOLB   C1B33201  12.310   8.850  11.300
 1384BOLB   C2B33202  12.230   8.390  11.180
 1384BOLB   C3B33203  12.160   8.160  10.770
 1384BOLB   C4B33204  11.730   8.060  10.530
 1384BOLB   NC233205   9.810   7.390   8.980
 1384BOLB   PO233206   9.650   7.310   9.340
 1384BOLB   GL333207  10.000   7.540   9.500
 1384BOLB   GL433208  10.090   7.570   9.740
 1384BOLB   C1C33209  10.190   8.030   9.480
 1384BOLB   C2C33210  10.480   8.280   9.510
 1384BOLB   C3C33211  10.800   8.340   9.820
 1384BOLB   C4C33212  10.940   8.140  10.140
 1384BOLB   C1D33213  10.320   7.830  10.020
 1384BOLB   C2D33214  10.690   7.690  10.370
 1384BOLB   C3D33215  11.100   7.790  10.640
 1384BOLB   C4D33216  11.420   7.650  10.580
 1385BOLB   NC133217  22.390  21.590   9.860
 1385BOLB   PO133218  22.680  21.780   9.940
 1385BOLB   GL133219  22.830  22.010   9.570
 1385BOLB   GL233220  22.580  21.920   9.380
 1385BOLB   C1A33221  23.130  22.330   9.580
 1385BOLB   C2A33222  23.400  22.690   9.570
 1385BOLB   C3A33223  23.690  22.890   9.670
 1385BOLB   C4A33224  24.000  23.150   9.700
 1385BOLB   C1B33225  22.750  22.330   9.210
 1385BOLB   C2B33226  22.940  22.760   9.420
 1385BOLB   C3B33227  23.220  23.160   9.400
 1385BOLB   C4B33228  23.360  23.580   9.370
 1385BOLB   NC233229  25.020  24.860   8.080
 1385BOLB   PO233230  24.990  24.410   7.920
 1385BOLB   GL333231  24.790  23.940   8.130
 1385BOLB   GL433232  24.450  23.780   8.220
 1385BOLB   C1C33233  24.810  23.500   8.330
 1385BOLB   C2C33234  24.690  23.260   8.700
 1385BOLB   C3C33235  24.590  23.200   9.090
 1385BOLB   C4C33236  24.330  23.140   9.530
 1385BOLB   C1D33237  24.340  23.310   8.290
 1385BOLB   C2D33238  24.220  22.910   8.400
 1385BOLB   C3D33239  23.860  22.960   8.530
 1385BOLB   C4D33240  23.470  23.040   8.850
 1386BOLB   NC133241  13.160  11.360  10.510
 1386BOLB   PO133242  12.780  11.350  10.570
 1386BOLB   GL133243  12.520  11.270  10.310
 1386BOLB   GL233244  12.420  11.360  10.000
 1386BOLB   C1A33245  12.120  10.970  10.170
 1386BOLB   C2A33246  11.820  10.820   9.780
 1386BOLB   C3A33247  11.880  10.640   9.390
 1386BOLB   C4A33248  11.640  10.320   9.090
 1386BOLB   C1B33249  12.180  11.310   9.690
 1386BOLB   C2B33250  11.920  11.130   9.360
 1386BOLB   C3B33251  11.680  10.930   8.980
 1386BOLB   C4B33252  11.460  10.670   8.790
 1386BOLB   NC233253  10.120   9.740   7.620
 1386BOLB   PO233254  10.300  10.010   7.250
 1386BOLB   GL333255  10.690  10.240   7.370
 1386BOLB   GL433256  10.700  10.600   7.330
 1386BOLB   C1C33257  10.980  10.220   7.570
 1386BOLB   C2C33258  11.110  10.030   7.960
 1386BOLB   C3C33259  11.450  10.210   8.310
 1386BOLB   C4C33260  11.640  10.110   8.710
 1386BOLB   C1D33261  11.130  10.660   7.330
 1386BOLB   C2D33262  11.480  10.930   7.300
 1386BOLB   C3D33263  11.720  11.120   7.520
 1386BOLB   C4D33264  12.000  11.340   7.610
 1387BOLB   NC133265  14.120  14.710   8.440
 1387BOLB   PO133266  13.830  14.330   8.440
 1387BOLB   GL133267  13.650  14.120   8.110
 1387BOLB   GL233268  13.400  14.190   8.040
 1387BOLB   C1A33269  13.580  13.890   7.710
 1387BOLB   C2A33270  13.420  13.750   7.220
 1387BOLB   C3A33271  13.320  13.530   6.850
 1387BOLB   C4A33272  13.050  13.340   6.450
 1387BOLB   C1B33273  13.420  14.360   7.670
 1387BOLB   C2B33274  13.360  14.320   7.220
 1387BOLB   C3B33275  13.210  14.120   6.900
 1387BOLB   C4B33276  12.890  13.960   6.800
 1387BOLB   NC233277  10.690  12.940   5.530
 1387BOLB   PO233278  10.740  13.380   5.460
 1387BOLB   GL333279  11.100  13.280   5.600
 1387BOLB   GL433280  11.220  13.460   5.910
 1387BOLB   C1C33281  11.600  13.140   5.770
 1387BOLB   C2C33282  12.060  13.130   5.620
 1387BOLB   C3C33283  12.460  13.170   5.780
 1387BOLB   C4C33284  12.850  13.340   6.060
 1387BOLB   C1D33285  11.290  13.350   6.300
 1387BOLB   C2D33286  11.470  13.460   6.690
 1387BOLB   C3D33287  11.770  13.420   7.090
 1387BOLB   C4D33288  11.960  13.700   7.390
 1388BOLB   NC133289  23.270   6.010  16.800
 1388BOLB   PO133290  22.880   5.810  16.920
 1388BOLB   GL133291  23.020   5.470  17.220
 1388BOLB   GL233292  23.300   5.370  17.220
 1388BOLB   C1A33293  22.800   5.240  17.550
 1388BOLB   C2A33294  22.610   4.970  17.900
 1388BOLB   C3A33295  22.280   4.690  18.080
 1388BOLB   C4A33296  22.310   4.340  18.190
 1388BOLB   C1B33297  23.340   5.420  17.600
 1388BOLB   C2B33298  23.150   5.310  17.940
 1388BOLB   C3B33299  23.040   5.070  18.250
 1388BOLB   C4B33300  23.130   4.880  18.650
 1388BOLB   NC233301  23.300   2.350  19.330
 1388BOLB   PO233302  23.010   2.650  19.340
 1388BOLB   GL333303  22.570   2.750  19.070
 1388BOLB   GL433304  22.330   2.520  18.990
 1388BOLB   C1C33305  22.460   3.020  18.740
 1388BOLB   C2C33306  22.360   3.520  18.770
 1388BOLB   C3C33307  22.440   3.920  18.810
 1388BOLB   C4C33308  22.440   4.140  18.500
 1388BOLB   C1D33309  22.150   2.930  19.200
 1388BOLB   C2D33310  22.020   3.390  19.230
 1388BOLB   C3D33311  21.930   3.610  19.040
 1388BOLB   C4D33312  21.670   3.880  18.920
 1389BOLB   NC133313  19.650  23.490  11.900
 1389BOLB   PO133314  19.680  23.520  12.270
 1389BOLB   GL133315  19.980  23.880  12.150
 1389BOLB   GL233316  20.260  23.890  12.090
 1389BOLB   C1A33317  20.000  24.320  12.080
 1389BOLB   C2A33318  20.050  24.750  12.010
 1389BOLB   C3A33319  19.840  25.100  12.010
 1389BOLB   C4A33320  19.700  25.400  11.810
 1389BOLB   C1B33321  20.450  24.250  11.840
 1389BOLB   C2B33322  20.540  24.710  11.680
 1389BOLB   C3B33323  20.390  25.100  11.780
 1389BOLB   C4B33324  20.690  25.430  11.800
 1389BOLB   NC233325  18.630  27.380  11.080
 1389BOLB   PO233326  19.110  27.300  11.000
 1389BOLB   GL333327  19.400  27.050  10.940
 1389BOLB   GL433328  19.200  26.840  10.770
 1389BOLB   C1C33329  19.640  26.750  11.030
 1389BOLB   C2C33330  19.650  26.410  11.230
 1389BOLB   C3C33331  19.720  26.030  11.460
 1389BOLB   C4C33332  19.670  25.610  11.560
 1389BOLB   C1D33333  19.290  26.380  10.730
 1389BOLB   C2D33334  19.310  26.060  11.020
 1389BOLB   C3D33335  19.220  25.710  11.300
 1389BOLB   C4D33336  19.150  25.550  11.670
 1390BOLB   NC133337  23.210   6.090  12.040
 1390BOLB   PO133338  23.650   6.250  12.030
 1390BOLB   GL133339  23.780   5.980  11.910
 1390BOLB   GL233340  23.960   5.720  12.070
 1390BOLB   C1A33341  23.570   5.670  11.760
 1390BOLB   C2A33342  23.360   5.540  11.410
 1390BOLB   C3A33343  23.280   5.190  11.190
 1390BOLB   C4A33344  23.280   4.830  10.950
 1390BOLB   C1B33345  23.980   5.270  11.960
 1390BOLB   C2B33346  24.320   5.040  12.060
 1390BOLB   C3B33347  24.470   4.660  12.140
 1390BOLB   C4B33348  24.840   4.570  12.190
 1390BOLB   NC233349  22.570   2.790   9.180
 1390BOLB   PO233350  22.950   2.890   9.430
 1390BOLB   GL333351  22.800   3.240   9.450
 1390BOLB   GL433352  22.740   3.270   9.110
 1390BOLB   C1C33353  22.800   3.690   9.800
 1390BOLB   C2C33354  22.870   3.840  10.250
 1390BOLB   C3C33355  22.940   4.260  10.460
 1390BOLB   C4C33356  23.240   4.510  10.620
 1390BOLB   C1D33357  22.470   3.580   9.390
 1390BOLB   C2D33358  22.410   4.010   9.570
 1390BOLB   C3D33359  22.630   4.420   9.430
 1390BOLB   C4D33360  22.970   4.600   9.710
 1391BOLB   NC133361  13.540  16.340   8.200
 1391BOLB   PO133362  13.140  16.450   8.190
 1391BOLB   GL133363  12.910  16.520   7.850
 1391BOLB   GL233364  13.140  16.760   7.790
 1391BOLB   C1A33365  13.020  16.300   7.450
 1391BOLB   C2A33366  13.300  16.220   7.140
 1391BOLB   C3A33367  13.530  15.970   6.810
 1391BOLB   C4A33368  13.450  15.790   6.480
 1391BOLB   C1B33369  12.830  16.820   7.480
 1391BOLB   C2B33370  12.710  17.050   7.190
 1391BOLB   C3B33371  12.800  17.270   6.810
 1391BOLB   C4B33372  13.050  17.200   6.610
 1391BOLB   NC233373  12.270  15.000   4.640
 1391BOLB   PO233374  12.560  14.710   4.670
 1391BOLB   GL333375  12.590  14.610   5.100
 1391BOLB   GL433376  12.680  14.280   5.200
 1391BOLB   C1C33377  12.610  14.930   5.410
 1391BOLB   C2C33378  12.750  15.330   5.570
 1391BOLB   C3C33379  13.110  15.440   5.700
 1391BOLB   C4C33380  13.370  15.630   5.960
 1391BOLB   C1D33381  12.750  14.460   5.570
 1391BOLB   C2D33382  12.730  14.360   6.020
 1391BOLB   C3D33383  12.880  14.130   6.310
 1391BOLB   C4D33384  13.240  13.780   6.290
 1392BOLB   NC133385  14.720   6.810  16.970
 1392BOLB   PO133386  14.440   6.970  16.770
 1392BOLB   GL133387  14.180   6.680  16.940
 1392BOLB   GL233388  14.070   6.490  16.850
 1392BOLB   C1A33389  14.080   6.540  17.400
 1392BOLB   C2A33390  13.840   6.180  17.620
 1392BOLB   C3A33391  13.830   5.780  17.750
 1392BOLB   C4A33392  13.790   5.300  17.780
 1392BOLB   C1B33393  13.690   6.350  17.150
 1392BOLB   C2B33394  13.280   6.330  17.380
 1392BOLB   C3B33395  12.970   6.600  17.720
 1392BOLB   C4B33396  12.810   6.850  18.030
 1392BOLB   NC233397  13.500   3.870  19.740
 1392BOLB   PO233398  13.720   3.600  19.440
 1392BOLB   GL333399  14.010   3.800  19.160
 1392BOLB   GL433400  14.220   3.960  19.280
 1392BOLB   C1C33401  13.970   3.870  18.720
 1392BOLB   C2C33402  13.940   4.240  18.460
 1392BOLB   C3C33403  13.970   4.700  18.370
 1392BOLB   C4C33404  13.750   4.850  17.980
 1392BOLB   C1D33405  14.410   4.470  19.320
 1392BOLB   C2D33406  14.610   4.840  19.130
 1392BOLB   C3D33407  14.490   5.290  19.070
 1392BOLB   C4D33408  14.190   5.770  19.030
 1393BOLB   NC133409  10.880  18.870  13.660
 1393BOLB   PO133410  11.110  19.140  13.400
 1393BOLB   GL133411  11.010  19.470  13.380
 1393BOLB   GL233412  11.040  19.680  13.600
 1393BOLB   C1A33413  10.540  19.590  13.370
 1393BOLB   C2A33414  10.100  19.420  13.170
 1393BOLB   C3A33415   9.660  19.300  13.140
 1393BOLB   C4A33416   9.530  19.110  12.750
 1393BOLB   C1B33417  10.580  19.780  13.800
 1393BOLB   C2B33418  10.170  19.900  14.000
 1393BOLB   C3B33419   9.870  20.170  13.770
 1393BOLB   C4B33420   9.540  20.180  13.440
 1393BOLB   NC233421   7.200  18.920  11.640
 1393BOLB   PO233422   7.220  19.220  11.910
 1393BOLB   GL333423   7.560  19.070  12.020
 1393BOLB   GL433424   7.550  18.790  12.150
 1393BOLB   C1C33425   7.950  19.190  12.150
 1393BOLB   C2C33426   8.330  19.060  12.150
 1393BOLB   C3C33427   8.840  18.910  12.170
 1393BOLB   C4C33428   9.220  18.780  12.510
 1393BOLB   C1D33429   8.000  18.680  11.970
 1393BOLB   C2D33430   8.320  18.770  11.720
 1393BOLB   C3D33431   8.640  18.990  11.670
 1393BOLB   C4D33432   8.750  19.390  11.920
 1394BOLB   NC133433  25.880   9.920  18.580
 1394BOLB   PO133434  25.600   9.710  18.780
 1394BOLB   GL133435  25.530   9.640  19.160
 1394BOLB   GL233436  25.490   9.960  19.410
 1394BOLB   C1A33437  25.440   9.350  19.550
 1394BOLB   C2A33438  25.490   9.120  19.930
 1394BOLB   C3A33439  25.770   8.840  20.100
 1394BOLB   C4A33440  26.150   8.820  20.390
 1394BOLB   C1B33441  25.830  10.030  19.670
 1394BOLB   C2B33442  26.030   9.950  20.050
 1394BOLB   C3B33443  26.140   9.990  20.340
 1394BOLB   C4B33444  26.180  10.430  20.600
 1394BOLB   NC233445  27.180   9.100  22.430
 1394BOLB   PO233446  27.230   8.620  22.410
 1394BOLB   GL333447  27.210   8.710  22.040
 1394BOLB   GL433448  27.350   8.590  21.760
 1394BOLB   C1C33449  26.910   9.050  21.870
 1394BOLB   C2C33450  26.700   9.290  21.530
 1394BOLB   C3C33451  26.510   9.270  21.160
 1394BOLB   C4C33452  26.240   9.050  20.790
 1394BOLB   C1D33453  27.350   9.000  21.660
 1394BOLB   C2D33454  27.190   9.360  21.440
 1394BOLB   C3D33455  26.980   9.430  21.050
 1394BOLB   C4D33456  27.060   9.380  20.600
 1395BOLB   NC133457  16.450   7.260  11.600
 1395BOLB   PO133458  16.710   6.790  11.490
 1395BOLB   GL133459  16.450   6.580  11.290
 1395BOLB   GL233460  16.300   6.330  11.530
 1395BOLB   C1A33461  16.130   6.580  10.960
 1395BOLB   C2A33462  15.870   6.250  10.690
 1395BOLB   C3A33463  15.750   5.970  10.430
 1395BOLB   C4A33464  15.550   5.550  10.280
 1395BOLB   C1B33465  16.200   6.060  11.330
 1395BOLB   C2B33466  16.160   5.610  11.180
 1395BOLB   C3B33467  16.070   5.270  10.910
 1395BOLB   C4B33468  15.730   4.890  10.840
 1395BOLB   NC233469  14.160   3.810   8.800
 1395BOLB   PO233470  14.050   4.120   9.080
 1395BOLB   GL333471  14.290   4.350   9.330
 1395BOLB   GL433472  14.150   4.650   9.440
 1395BOLB   C1C33473  14.560   4.600   9.720
 1395BOLB   C2C33474  14.480   4.890  10.050
 1395BOLB   C3C33475  14.620   5.290  10.280
 1395BOLB   C4C33476  15.120   5.390  10.340
 1395BOLB   C1D33477  14.040   4.880   9.830
 1395BOLB   C2D33478  14.100   5.240  10.050
 1395BOLB   C3D33479  13.830   5.610  10.090
 1395BOLB   C4D33480  13.720   6.030   9.950
 1396BOLB   NC133481  14.420   9.900  10.070
 1396BOLB   PO133482  13.990   9.990   9.750
 1396BOLB   GL133483  13.950   9.910   9.350
 1396BOLB   GL233484  13.990   9.630   9.220
 1396BOLB   C1A33485  13.650   9.930   8.970
 1396BOLB   C2A33486  13.510   9.790   8.670
 1396BOLB   C3A33487  13.260   9.810   8.270
 1396BOLB   C4A33488  13.230   9.610   7.880
 1396BOLB   C1B33489  13.550   9.440   9.200
 1396BOLB   C2B33490  13.260   9.050   9.200
 1396BOLB   C3B33491  12.900   8.820   9.180
 1396BOLB   C4B33492  12.510   8.820   9.380
 1396BOLB   NC233493  12.310   8.130   6.540
 1396BOLB   PO233494  11.880   8.110   6.600
 1396BOLB   GL333495  12.050   8.470   6.910
 1396BOLB   GL433496  11.830   8.730   7.020
 1396BOLB   C1C33497  12.460   8.680   6.970
 1396BOLB   C2C33498  12.680   9.010   7.170
 1396BOLB   C3C33499  12.840   9.250   7.420
 1396BOLB   C4C33500  13.190   9.210   7.560
 1396BOLB   C1D33501  12.120   8.940   7.320
 1396BOLB   C2D33502  12.140   9.030   7.700
 1396BOLB   C3D33503  12.160   9.270   8.160
 1396BOLB   C4D33504  12.410   9.140   8.540
 1397BOLB   NC133505  11.440  18.420  13.440
 1397BOLB   PO133506  11.190  18.640  13.150
 1397BOLB   GL133507  10.760  18.800  13.130
 1397BOLB   GL233508  10.690  19.100  13.140
 1397BOLB   C1A33509  10.450  18.730  12.790
 1397BOLB   C2A33510  10.220  18.910  12.470
 1397BOLB   C3A33511   9.850  19.060  12.370
 1397BOLB   C4A33512   9.720  19.210  11.920
 1397BOLB   C1B33513  10.370  19.010  13.330
 1397BOLB   C2B33514   9.910  19.050  13.520
 1397BOLB   C3B33515   9.550  19.180  13.720
 1397BOLB   C4B33516   9.140  19.180  13.990
 1397BOLB   NC233517   8.040  20.250  10.760
 1397BOLB   PO233518   8.190  20.270  10.390
 1397BOLB   GL333519   8.370  19.900  10.620
 1397BOLB   GL433520   8.750  19.740  10.510
 1397BOLB   C1C33521   8.400  19.720  11.070
 1397BOLB   C2C33522   8.540  19.510  11.370
 1397BOLB   C3C33523   8.950  19.290  11.450
 1397BOLB   C4C33524   9.270  19.330  11.710
 1397BOLB   C1D33525   8.460  19.370  10.390
 1397BOLB   C2D33526   8.540  18.850  10.550
 1397BOLB   C3D33527   8.990  18.810  10.500
 1397BOLB   C4D33528   9.170  18.490  10.800
 1398BOLB   NC133529  12.580  18.510  17.440
 1398BOLB   PO133530  12.410  18.310  17.170
 1398BOLB   GL133531  12.070  18.330  17.490
 1398BOLB   GL233532  11.980  18.690  17.440
 1398BOLB   C1A33533  11.670  18.270  17.530
 1398BOLB   C2A33534  11.180  18.210  17.650
 1398BOLB   C3A33535  10.800  18.330  17.750
 1398BOLB   C4A33536  10.340  18.370  17.650
 1398BOLB   C1B33537  11.450  18.750  17.580
 1398BOLB   C2B33538  11.020  18.820  17.780
 1398BOLB   C3B33539  10.630  18.790  17.860
 1398BOLB   C4B33540  10.580  18.510  18.230
 1398BOLB   NC233541   8.460  19.170  19.010
 1398BOLB   PO233542   8.550  19.350  18.620
 1398BOLB   GL333543   8.960  19.350  18.440
 1398BOLB   GL433544   9.110  19.520  18.610
 1398BOLB   C1C33545   9.280  19.070  18.410
 1398BOLB   C2C33546   9.630  19.060  18.150
 1398BOLB   C3C33547   9.810  18.980  17.660
 1398BOLB   C4C33548  10.140  18.690  17.510
 1398BOLB   C1D33549   9.500  19.690  18.290
 1398BOLB   C2D33550   9.660  19.500  17.900
 1398BOLB   C3D33551   9.650  19.570  17.500
 1398BOLB   C4D33552   9.900  19.800  17.180
 1399BOLB   NC133553  26.180   7.580  14.760
 1399BOLB   PO133554  26.020   7.200  14.700
 1399BOLB   GL133555  26.240   6.850  14.640
 1399BOLB   GL233556  26.590   6.940  14.610
 1399BOLB   C1A33557  26.220   6.480  14.580
 1399BOLB   C2A33558  26.330   6.100  14.860
 1399BOLB   C3A33559  26.530   5.980  15.330
 1399BOLB   C4A33560  26.760   5.540  15.210
 1399BOLB   C1B33561  26.980   6.930  14.590
 1399BOLB   C2B33562  27.240   6.680  14.460
 1399BOLB   C3B33563  27.620   6.720  14.570
 1399BOLB   C4B33564  28.110   6.880  14.350
 1399BOLB   NC233565  27.470   2.710  15.900
 1399BOLB   PO233566  27.510   3.230  15.880
 1399BOLB   GL333567  27.360   3.730  15.880
 1399BOLB   GL433568  27.420   3.970  16.050
 1399BOLB   C1C33569  27.000   3.980  15.750
 1399BOLB   C2C33570  26.750   4.420  15.690
 1399BOLB   C3C33571  26.730   4.860  15.610
 1399BOLB   C4C33572  26.610   5.220  15.370
 1399BOLB   C1D33573  27.420   4.350  15.830
 1399BOLB   C2D33574  27.230   4.690  15.590
 1399BOLB   C3D33575  26.980   4.720  15.250
 1399BOLB   C4D33576  26.700   4.900  14.990
 1400BOLB   NC133577  10.380  16.840  12.740
 1400BOLB   PO133578  10.530  16.460  12.610
 1400BOLB   GL133579  10.200  16.500  12.400
 1400BOLB   GL233580   9.950  16.810  12.390
 1400BOLB   C1A33581   9.870  16.560  11.990
 1400BOLB   C2A33582   9.400  16.580  11.780
 1400BOLB   C3A33583   9.240  16.910  11.590
 1400BOLB   C4A33584   8.850  16.640  11.520
 1400BOLB   C1B33585   9.760  17.100  12.130
 1400BOLB   C2B33586   9.600  17.450  12.310
 1400BOLB   C3B33587   9.420  17.550  12.640
 1400BOLB   C4B33588   8.980  17.640  12.880
 1400BOLB   NC233589   7.090  16.760  10.860
 1400BOLB   PO233590   6.790  16.460  10.960
 1400BOLB   GL333591   7.090  16.160  10.800
 1400BOLB   GL433592   7.220  16.280  10.590
 1400BOLB   C1C33593   7.370  16.190  11.110
 1400BOLB   C2C33594   7.600  16.510  11.320
 1400BOLB   C3C33595   7.970  16.540  11.620
 1400BOLB   C4C33596   8.410  16.720  11.570
 1400BOLB   C1D33597   7.740  16.130  10.560
 1400BOLB   C2D33598   8.050  15.970  10.920
 1400BOLB   C3D33599   8.370  15.700  10.980
 1400BOLB   C4D33600   8.830  15.820  10.990
 1401BOLB   NC133601  19.360  20.030   7.690
 1401BOLB   PO133602  19.480  19.590   7.570
 1401BOLB   GL133603  19.420  19.820   7.210
 1401BOLB   GL233604  19.080  19.930   7.140
 1401BOLB   C1A33605  19.500  19.920   6.740
 1401BOLB   C2A33606  19.640  20.000   6.350
 1401BOLB   C3A33607  19.600  19.900   5.990
 1401BOLB   C4A33608  19.330  20.070   5.590
 1401BOLB   C1B33609  19.000  19.990   6.710
 1401BOLB   C2B33610  18.810  20.380   6.640
 1401BOLB   C3B33611  18.850  20.760   6.390
 1401BOLB   C4B33612  18.770  21.090   6.060
 1401BOLB   NC233613  18.900  22.050   3.750
 1401BOLB   PO233614  18.870  21.610   3.850
 1401BOLB   GL333615  19.020  21.400   4.260
 1401BOLB   GL433616  18.680  21.420   4.320
 1401BOLB   C1C33617  19.060  21.030   4.490
 1401BOLB   C2C33618  18.940  20.750   4.810
 1401BOLB   C3C33619  18.830  20.480   5.210
 1401BOLB   C4C33620  19.070  20.380   5.510
 1401BOLB   C1D33621  18.930  21.550   4.790
 1401BOLB   C2D33622  18.960  21.800   5.130
 1401BOLB   C3D33623  18.940  22.190   5.170
 1401BOLB   C4D33624  18.890  22.610   5.170
 1402BOLB   NC133625  25.700   7.590  12.910
 1402BOLB   PO133626  25.750   7.600  13.360
 1402BOLB   GL133627  26.040   7.250  13.310
 1402BOLB   GL233628  26.270   7.300  13.450
 1402BOLB   C1A33629  26.390   7.030  13.040
 1402BOLB   C2A33630  26.760   6.860  13.170
 1402BOLB   C3A33631  27.200   6.700  13.130
 1402BOLB   C4A33632  27.410   6.450  12.860
 1402BOLB   C1B33633  26.610   7.030  13.590
 1402BOLB   C2B33634  27.030   6.860  13.570
 1402BOLB   C3B33635  27.280   6.590  13.640
 1402BOLB   C4B33636  27.640   6.400  13.670
 1402BOLB   NC233637  29.630   5.160  11.790
 1402BOLB   PO233638  29.180   5.450  11.690
 1402BOLB   GL333639  28.830   5.720  11.800
 1402BOLB   GL433640  28.790   5.840  11.520
 1402BOLB   C1C33641  28.720   6.040  12.040
 1402BOLB   C2C33642  28.360   6.330  12.020
 1402BOLB   C3C33643  27.940   6.430  12.240
 1402BOLB   C4C33644  27.620   6.480  12.490
 1402BOLB   C1D33645  28.780   6.290  11.470
 1402BOLB   C2D33646  28.480   6.610  11.490
 1402BOLB   C3D33647  28.080   6.700  11.710
 1402BOLB   C4D33648  27.690   6.630  11.800
 1403BOLB   NC133649  13.120   7.610  16.960
 1403BOLB   PO133650  13.060   7.260  16.760
 1403BOLB   GL133651  13.290   6.870  16.760
 1403BOLB   GL233652  13.500   6.780  16.540
 1403BOLB   C1A33653  13.200   6.490  16.910
 1403BOLB   C2A33654  12.930   6.210  17.080
 1403BOLB   C3A33655  12.980   5.770  17.170
 1403BOLB   C4A33656  13.110   5.370  17.280
 1403BOLB   C1B33657  13.290   6.540  16.410
 1403BOLB   C2B33658  13.090   6.280  16.110
 1403BOLB   C3B33659  12.710   6.140  16.200
 1403BOLB   C4B33660  12.440   6.100  16.010
 1403BOLB   NC233661  11.850   3.780  17.720
 1403BOLB   PO233662  12.190   3.510  17.670
 1403BOLB   GL333663  12.350   3.950  17.710
 1403BOLB   GL433664  12.190   4.160  17.830
 1403BOLB   C1C33665  12.810   4.160  17.500
 1403BOLB   C2C33666  12.890   4.540  17.530
 1403BOLB   C3C33667  13.160   4.790  17.710
 1403BOLB   C4C33668  13.290   5.090  17.560
 1403BOLB   C1D33669  12.600   4.390  17.890
 1403BOLB   C2D33670  12.610   4.790  17.970
 1403BOLB   C3D33671  12.370   5.270  18.020
 1403BOLB   C4D33672  12.210   5.460  17.760
 1404BOLB   NC133673  12.700  18.460  10.610
 1404BOLB   PO133674  12.140  18.740  10.580
 1404BOLB   GL133675  11.780  18.820  10.390
 1404BOLB   GL233676  11.550  18.950  10.540
 1404BOLB   C1A33677  11.530  18.890  10.060
 1404BOLB   C2A33678  11.530  19.090   9.680
 1404BOLB   C3A33679  11.340  18.950   9.300
 1404BOLB   C4A33680  11.000  18.940   9.080
 1404BOLB   C1B33681  11.340  19.270  10.330
 1404BOLB   C2B33682  11.300  19.510   9.880
 1404BOLB   C3B33683  11.060  19.620   9.580
 1404BOLB   C4B33684  11.030  19.500   9.190
 1404BOLB   NC233685   9.200  19.800   8.070
 1404BOLB   PO233686   8.990  19.450   8.020
 1404BOLB   GL333687   9.260  19.380   8.360
 1404BOLB   GL433688   9.480  19.150   8.210
 1404BOLB   C1C33689   9.540  19.220   8.780
 1404BOLB   C2C33690   9.710  18.970   9.170
 1404BOLB   C3C33691  10.240  18.870   9.280
 1404BOLB   C4C33692  10.640  18.990   9.200
 1404BOLB   C1D33693   9.900  19.030   8.380
 1404BOLB   C2D33694  10.100  19.150   8.750
 1404BOLB   C3D33695  10.340  19.400   9.070
 1404BOLB   C4D33696  10.590  19.610   8.880
 1405BOLB   NC133697  17.050   7.600  10.870
 1405BOLB   PO133698  17.290   7.230  10.930
 1405BOLB   GL133699  17.000   7.180  10.550
 1405BOLB   GL233700  17.070   7.190  10.260
 1405BOLB   C1A33701  16.570   7.130  10.470
 1405BOLB   C2A33702  16.280   7.000  10.110
 1405BOLB   C3A33703  16.060   6.660   9.780
 1405BOLB   C4A33704  15.820   6.350   9.590
 1405BOLB   C1B33705  16.800   6.850   9.980
 1405BOLB   C2B33706  16.510   6.490   9.990
 1405BOLB   C3B33707  16.270   6.200   9.700
 1405BOLB   C4B33708  16.200   6.010   9.340
 1405BOLB   NC233709  14.660   4.570   7.360
 1405BOLB   PO233710  14.550   5.000   7.530
 1405BOLB   GL333711  14.680   5.180   7.880
 1405BOLB   GL433712  14.610   5.480   7.870
 1405BOLB   C1C33713  15.110   5.380   8.100
 1405BOLB   C2C33714  15.320   5.750   8.430
 1405BOLB   C3C33715  15.380   5.910   8.840
 1405BOLB   C4C33716  15.670   6.090   9.200
 1405BOLB   C1D33717  14.750   5.670   8.230
 1405BOLB   C2D33718  15.000   6.090   8.410
 1405BOLB   C3D33719  14.950   6.190   8.820
 1405BOLB   C4D33720  15.150   6.400   9.100
 1406BOLB   NC133721  11.820  20.310  14.730
 1406BOLB   PO133722  12.180  20.300  14.420
 1406BOLB   GL133723  11.890  20.660  14.410
 1406BOLB   GL233724  12.020  20.950  14.400
 1406BOLB   C1A33725  11.410  20.610  14.420
 1406BOLB   C2A33726  11.060  20.820  14.260
 1406BOLB   C3A33727  10.750  20.750  13.740
 1406BOLB   C4A33728  10.360  21.050  13.650
 1406BOLB   C1B33729  12.050  21.340  14.260
 1406BOLB   C2B33730  11.710  21.600  14.230
 1406BOLB   C3B33731  11.380  21.970  14.020
 1406BOLB   C4B33732  11.160  22.310  13.880
 1406BOLB   NC233733   8.500  22.770  13.210
 1406BOLB   PO233734   8.790  22.640  12.840
 1406BOLB   GL333735   9.070  22.390  13.060
 1406BOLB   GL433736   9.250  22.540  13.160
 1406BOLB   C1C33737   9.230  21.970  13.150
 1406BOLB   C2C33738   9.470  21.590  13.180
 1406BOLB   C3C33739   9.810  21.370  13.230
 1406BOLB   C4C33740   9.920  21.070  13.480
 1406BOLB   C1D33741   9.550  22.250  12.820
 1406BOLB   C2D33742   9.760  22.150  12.390
 1406BOLB   C3D33743   9.610  21.730  12.330
 1406BOLB   C4D33744   9.160  21.510  12.310
 1407BOLB   NC133745  24.970  15.940   8.260
 1407BOLB   PO133746  24.990  16.360   8.220
 1407BOLB   GL133747  25.090  16.610   8.020
 1407BOLB   GL233748  25.030  16.880   7.800
 1407BOLB   C1A33749  25.470  16.780   8.070
 1407BOLB   C2A33750  25.700  17.200   8.010
 1407BOLB   C3A33751  25.940  17.350   7.620
 1407BOLB   C4A33752  26.080  17.610   7.210
 1407BOLB   C1B33753  25.320  16.920   7.580
 1407BOLB   C2B33754  25.690  16.930   7.230
 1407BOLB   C3B33755  25.960  16.860   6.990
 1407BOLB   C4B33756  25.860  16.430   6.750
 1407BOLB   NC233757  27.800  17.500   5.510
 1407BOLB   PO233758  27.800  17.030   5.590
 1407BOLB   GL333759  27.590  17.170   6.030
 1407BOLB   GL433760  27.260  17.070   5.940
 1407BOLB   C1C33761  27.460  17.240   6.460
 1407BOLB   C2C33762  27.110  17.510   6.710
 1407BOLB   C3C33763  26.750  17.680   6.930
 1407BOLB   C4C33764  26.400  17.840   7.150
 1407BOLB   C1D33765  27.010  16.740   6.140
 1407BOLB   C2D33766  26.920  17.090   6.520
 1407BOLB   C3D33767  26.720  17.210   6.810
 1407BOLB   C4D33768  26.340  17.220   6.970
 1408BOLB   NC133769  10.360  14.420  13.710
 1408BOLB   PO133770  10.270  14.520  13.260
 1408BOLB   GL133771   9.930  14.430  13.140
 1408BOLB   GL233772  10.000  14.180  13.000
 1408BOLB   C1A33773   9.450  14.370  13.090
 1408BOLB   C2A33774   9.070  14.560  13.080
 1408BOLB   C3A33775   8.550  14.380  13.020
 1408BOLB   C4A33776   8.310  14.260  12.840
 1408BOLB   C1B33777   9.670  13.890  12.940
 1408BOLB   C2B33778   9.380  13.930  12.530
 1408BOLB   C3B33779   9.110  14.190  12.300
 1408BOLB   C4B33780   8.660  14.300  12.240
 1408BOLB   NC233781   6.040  15.030  12.140
 1408BOLB   PO233782   5.980  14.540  12.140
 1408BOLB   GL333783   6.410  14.450  12.070
 1408BOLB   GL433784   6.420  14.860  11.890
 1408BOLB   C1C33785   6.860  14.440  12.010
 1408BOLB   C2C33786   7.210  14.450  12.380
 1408BOLB   C3C33787   7.540  14.380  12.620
 1408BOLB   C4C33788   7.940  14.450  12.800
 1408BOLB   C1D33789   6.750  14.980  12.260
 1408BOLB   C2D33790   7.050  14.970  12.410
 1408BOLB   C3D33791   7.490  14.910  12.430
 1408BOLB   C4D33792   7.960  15.010  12.620
 1409BOLB   NC133793  21.350   9.940   8.690
 1409BOLB   PO133794  21.650   9.930   8.300
 1409BOLB   GL133795  21.590   9.770   7.890
 1409BOLB   GL233796  21.570  10.220   7.920
 1409BOLB   C1A33797  21.700   9.580   7.670
 1409BOLB   C2A33798  21.900   9.500   7.280
 1409BOLB   C3A33799  21.840   9.270   6.910
 1409BOLB   C4A33800  21.670   9.180   6.590
 1409BOLB   C1B33801  21.390   9.980   7.520
 1409BOLB   C2B33802  21.300   9.990   7.070
 1409BOLB   C3B33803  21.240   9.970   6.590
 1409BOLB   C4B33804  21.380   9.880   6.200
 1409BOLB   NC233805  21.840   7.650   4.370
 1409BOLB   PO233806  22.050   7.630   4.620
 1409BOLB   GL333807  21.980   7.910   4.920
 1409BOLB   GL433808  22.260   7.970   5.050
 1409BOLB   C1C33809  21.830   8.380   5.160
 1409BOLB   C2C33810  21.880   8.670   5.480
 1409BOLB   C3C33811  21.640   8.680   5.920
 1409BOLB   C4C33812  21.490   8.950   6.250
 1409BOLB   C1D33813  22.730   7.880   5.330
 1409BOLB   C2D33814  22.740   7.750   5.700
 1409BOLB   C3D33815  22.690   7.580   6.140
 1409BOLB   C4D33816  22.540   7.670   6.520
 1410BOLB   NC133817  19.720  18.390   8.170
 1410BOLB   PO133818  19.850  18.500   7.660
 1410BOLB   GL133819  19.890  18.580   7.230
 1410BOLB   GL233820  19.640  18.540   6.980
 1410BOLB   C1A33821  20.140  18.700   6.830
 1410BOLB   C2A33822  20.140  18.670   6.400
 1410BOLB   C3A33823  20.350  18.860   6.020
 1410BOLB   C4A33824  20.400  18.720   5.480
 1410BOLB   C1B33825  19.700  18.610   6.570
 1410BOLB   C2B33826  19.640  18.820   6.210
 1410BOLB   C3B33827  19.460  18.800   5.770
 1410BOLB   C4B33828  19.350  19.030   5.360
 1410BOLB   NC233829  20.230  19.360   3.360
 1410BOLB   PO233830  20.670  19.300   3.190
 1410BOLB   GL333831  20.640  19.470   3.700
 1410BOLB   GL433832  20.870  19.710   3.930
 1410BOLB   C1C33833  20.860  19.210   4.090
 1410BOLB   C2C33834  20.850  19.110   4.500
 1410BOLB   C3C33835  20.900  19.010   4.920
 1410BOLB   C4C33836  20.730  18.930   5.270
 1410BOLB   C1D33837  21.130  19.790   4.260
 1410BOLB   C2D33838  21.090  19.930   4.530
 1410BOLB   C3D33839  21.150  19.910   4.980
 1410BOLB   C4D33840  20.920  20.070   5.370
 1411BOLB   NC133841  11.590  16.580  10.350
 1411BOLB   PO133842  11.200  16.600  10.600
 1411BOLB   GL133843  10.930  16.500  10.260
 1411BOLB   GL233844  11.070  16.470   9.950
 1411BOLB   C1A33845  10.460  16.540  10.090
 1411BOLB   C2A33846  10.090  16.390   9.950
 1411BOLB   C3A33847   9.880  16.270   9.610
 1411BOLB   C4A33848   9.630  16.290   9.310
 1411BOLB   C1B33849  10.790  16.420   9.640
 1411BOLB   C2B33850  10.430  16.640   9.580
 1411BOLB   C3B33851  10.010  16.670   9.380
 1411BOLB   C4B33852   9.590  16.730   9.500
 1411BOLB   NC233853   7.410  16.190   8.300
 1411BOLB   PO233854   7.810  16.140   8.560
 1411BOLB   GL333855   8.270  16.270   8.550
 1411BOLB   GL433856   8.340  16.320   8.830
 1411BOLB   C1C33857   8.560  16.060   8.380
 1411BOLB   C2C33858   8.890  15.700   8.560
 1411BOLB   C3C33859   9.200  15.690   8.900
 1411BOLB   C4C33860   9.320  16.090   9.060
 1411BOLB   C1D33861   8.680  16.320   9.110
 1411BOLB   C2D33862   8.760  16.190   9.500
 1411BOLB   C3D33863   8.940  16.050   9.820
 1411BOLB   C4D33864   9.010  16.280  10.170
 1412BOLB   NC133865  27.000   8.610  14.710
 1412BOLB   PO133866  27.020   8.550  15.090
 1412BOLB   GL133867  27.390   8.340  15.000
 1412BOLB   GL233868  27.670   8.480  14.910
 1412BOLB   C1A33869  27.770   8.030  14.940
 1412BOLB   C2A33870  28.190   7.740  14.970
 1412BOLB   C3A33871  28.440   7.850  15.310
 1412BOLB   C4A33872  28.800   7.870  15.610
 1412BOLB   C1B33873  28.150   8.340  15.080
 1412BOLB   C2B33874  28.540   8.340  15.070
 1412BOLB   C3B33875  29.000   8.190  15.150
 1412BOLB   C4B33876  29.280   8.190  15.530
 1412BOLB   NC233877  31.350   7.210  15.460
 1412BOLB   PO233878  31.060   6.780  15.360
 1412BOLB   GL333879  30.680   6.930  15.410
 1412BOLB   GL433880  30.510   6.590  15.320
 1412BOLB   C1C33881  30.320   7.320  15.600
 1412BOLB   C2C33882  30.030   7.500  15.860
 1412BOLB   C3C33883  29.610   7.410  15.850
 1412BOLB   C4C33884  29.200   7.550  15.740
 1412BOLB   C1D33885  30.170   6.900  15.240
 1412BOLB   C2D33886  29.860   7.220  15.390
 1412BOLB   C3D33887  29.470   7.480  15.360
 1412BOLB   C4D33888  29.060   7.580  15.240
 1413BOLB   NC133889  20.350  13.570   7.250
 1413BOLB   PO133890  20.030  13.850   7.040
 1413BOLB   GL133891  19.900  13.750   6.640
 1413BOLB   GL233892  19.750  14.090   6.590
 1413BOLB   C1A33893  19.740  13.630   6.240
 1413BOLB   C2A33894  19.950  13.480   5.870
 1413BOLB   C3A33895  20.020  13.350   5.530
 1413BOLB   C4A33896  19.880  13.540   5.240
 1413BOLB   C1B33897  19.400  14.220   6.380
 1413BOLB   C2B33898  19.510  14.300   5.930
 1413BOLB   C3B33899  19.630  14.410   5.570
 1413BOLB   C4B33900  19.560  14.380   5.170
 1413BOLB   NC233901  18.820  12.810   3.210
 1413BOLB   PO233902  19.160  12.840   3.500
 1413BOLB   GL333903  19.110  13.020   3.840
 1413BOLB   GL433904  19.010  13.380   3.840
 1413BOLB   C1C33905  19.180  13.020   4.220
 1413BOLB   C2C33906  19.390  13.420   4.460
 1413BOLB   C3C33907  19.670  13.710   4.560
 1413BOLB   C4C33908  19.740  13.800   4.990
 1413BOLB   C1D33909  18.970  13.720   4.130
 1413BOLB   C2D33910  19.220  13.990   4.450
 1413BOLB   C3D33911  19.520  14.270   4.650
 1413BOLB   C4D33912  19.890  14.210   4.790
 1414BOLB   NC133913  17.970  22.210   9.490
 1414BOLB   PO133914  18.000  22.040   9.200
 1414BOLB   GL133915  18.070  22.480   9.010
 1414BOLB   GL233916  17.850  22.610   9.130
 1414BOLB   C1A33917  18.370  22.700   8.820
 1414BOLB   C2A33918  18.440  22.970   8.490
 1414BOLB   C3A33919  18.770  23.170   8.230
 1414BOLB   C4A33920  18.930  23.590   8.160
 1414BOLB   C1B33921  17.940  22.970   8.770
 1414BOLB   C2B33922  18.010  23.350   8.450
 1414BOLB   C3B33923  18.020  23.740   8.300
 1414BOLB   C4B33924  18.040  23.950   7.950
 1414BOLB   NC233925  18.530  25.860   6.620
 1414BOLB   PO233926  18.570  25.610   7.030
 1414BOLB   GL333927  18.860  25.360   7.110
 1414BOLB   GL433928  19.170  25.350   7.080
 1414BOLB   C1C33929  18.920  24.990   7.370
 1414BOLB   C2C33930  18.990  24.510   7.430
 1414BOLB   C3C33931  19.120  24.310   7.750
 1414BOLB   C4C33932  19.030  23.900   7.970
 1414BOLB   C1D33933  19.070  24.900   6.930
 1414BOLB   C2D33934  18.820  24.640   6.940
 1414BOLB   C3D33935  18.960  24.170   7.000
 1414BOLB   C4D33936  19.210  23.920   7.180
 1415BOLB   NC133937  10.520  16.600  13.600
 1415BOLB   PO133938  10.400  16.880  13.230
 1415BOLB   GL133939  10.010  16.930  13.250
 1415BOLB   GL233940   9.950  16.810  13.480
 1415BOLB   C1A33941   9.610  16.770  13.110
 1415BOLB   C2A33942   9.250  16.700  12.910
 1415BOLB   C3A33943   8.810  16.630  12.860
 1415BOLB   C4A33944   8.400  16.700  12.990
 1415BOLB   C1B33945   9.590  16.870  13.610
 1415BOLB   C2B33946   9.180  16.800  13.440
 1415BOLB   C3B33947   8.830  16.860  13.330
 1415BOLB   C4B33948   8.410  16.850  13.520
 1415BOLB   NC233949   6.280  17.540  12.450
 1415BOLB   PO233950   6.250  17.190  12.250
 1415BOLB   GL333951   6.690  17.250  12.410
 1415BOLB   GL433952   6.740  16.880  12.590
 1415BOLB   C1C33953   6.980  17.360  12.680
 1415BOLB   C2C33954   7.350  17.520  12.900
 1415BOLB   C3C33955   7.690  17.250  12.990
 1415BOLB   C4C33956   8.090  17.010  13.130
 1415BOLB   C1D33957   7.190  16.990  12.400
 1415BOLB   C2D33958   7.480  16.650  12.390
 1415BOLB   C3D33959   7.770  16.410  12.540
 1415BOLB   C4D33960   8.080  16.270  12.910
 1416BOLB   NC133961  20.460   5.070  14.290
 1416BOLB   PO133962  20.070   5.070  14.470
 1416BOLB   GL133963  20.090   4.680  14.330
 1416BOLB   GL233964  20.340   4.630  14.130
 1416BOLB   C1A33965  20.070   4.230  14.150
 1416BOLB   C2A33966  20.150   3.880  14.350
 1416BOLB   C3A33967  19.980   3.470  14.500
 1416BOLB   C4A33968  20.240   3.100  14.430
 1416BOLB   C1B33969  20.570   4.190  14.280
 1416BOLB   C2B33970  20.560   3.830  14.120
 1416BOLB   C3B33971  20.530   3.520  14.490
 1416BOLB   C4B33972  20.360   3.340  14.870
 1416BOLB   NC233973  21.230   0.520  13.820
 1416BOLB   PO233974  20.960   0.770  13.880
 1416BOLB   GL333975  20.720   1.190  14.020
 1416BOLB   GL433976  20.450   1.310  13.840
 1416BOLB   C1C33977  20.820   1.660  14.150
 1416BOLB   C2C33978  20.660   2.090  14.270
 1416BOLB   C3C33979  20.480   2.480  14.210
 1416BOLB   C4C33980  20.450   2.840  14.330
 1416BOLB   C1D33981  20.430   1.780  13.850
 1416BOLB   C2D33982  20.170   2.060  14.060
 1416BOLB   C3D33983  20.070   2.470  13.870
 1416BOLB   C4D33984  20.150   2.880  13.850
 1417BOLB   NC133985  20.540  17.000   7.830
 1417BOLB   PO133986  20.670  16.990   7.360
 1417BOLB   GL133987  20.830  17.050   6.870
 1417BOLB   GL233988  21.200  16.990   6.820
 1417BOLB   C1A33989  21.100  17.450   6.680
 1417BOLB   C2A33990  21.340  17.580   6.500
 1417BOLB   C3A33991  21.410  17.710   6.120
 1417BOLB   C4A33992  21.500  17.860   5.740
 1417BOLB   C1B33993  21.410  16.660   6.480
 1417BOLB   C2B33994  21.710  16.840   6.180
 1417BOLB   C3B33995  21.580  17.010   5.760
 1417BOLB   C4B33996  21.270  16.870   5.430
 1417BOLB   NC233997  21.450  18.120   3.240
 1417BOLB   PO233998  21.220  17.750   3.250
 1417BOLB   GL333999  21.120  17.950   3.630
 1417BOLB   GL434000  20.790  18.010   3.670
 1417BOLB   C1C34001  21.210  18.010   4.180
 1417BOLB   C2C34002  21.490  17.820   4.460
 1417BOLB   C3C34003  21.730  18.020   4.880
 1417BOLB   C4C34004  21.700  17.940   5.350
 1417BOLB   C1D34005  20.690  18.010   4.140
 1417BOLB   C2D34006  20.600  18.080   4.520
 1417BOLB   C3D34007  20.730  18.210   4.900
 1417BOLB   C4D34008  20.990  18.420   5.150
 1418BOLB   NC134009  20.330  17.370   7.470
 1418BOLB   PO134010  20.760  17.430   7.610
 1418BOLB   GL134011  20.850  17.570   7.200
 1418BOLB   GL234012  20.610  17.460   6.990
 1418BOLB   C1A34013  20.890  17.880   6.830
 1418BOLB   C2A34014  20.850  17.990   6.320
 1418BOLB   C3A34015  20.990  17.840   5.890
 1418BOLB   C4A34016  20.970  17.900   5.380
 1418BOLB   C1B34017  20.680  17.470   6.460
 1418BOLB   C2B34018  20.770  17.390   6.020
 1418BOLB   C3B34019  20.840  17.020   5.870
 1418BOLB   C4B34020  21.200  16.660   6.010
 1418BOLB   NC234021  22.170  17.960   3.340
 1418BOLB   PO234022  21.870  18.430   3.420
 1418BOLB   GL334023  21.900  18.210   3.720
 1418BOLB   GL434024  21.580  18.080   3.730
 1418BOLB   C1C34025  21.810  18.110   4.170
 1418BOLB   C2C34026  21.560  18.320   4.510
 1418BOLB   C3C34027  21.210  18.210   4.750
 1418BOLB   C4C34028  21.220  17.970   5.100
 1418BOLB   C1D34029  21.620  17.670   4.010
 1418BOLB   C2D34030  21.440  17.400   4.210
 1418BOLB   C3D34031  21.420  17.270   4.570
 1418BOLB   C4D34032  21.520  17.020   5.040
 1419BOLB   NC134033  17.270  21.470   9.440
 1419BOLB   PO134034  16.970  21.730   9.470
 1419BOLB   GL134035  16.980  22.090   9.120
 1419BOLB   GL234036  16.650  22.380   9.030
 1419BOLB   C1A34037  17.070  22.380   8.790
 1419BOLB   C2A34038  16.810  22.490   8.500
 1419BOLB   C3A34039  16.580  22.760   8.230
 1419BOLB   C4A34040  16.220  22.930   8.050
 1419BOLB   C1B34041  16.500  22.730   8.820
 1419BOLB   C2B34042  16.270  23.030   8.610
 1419BOLB   C3B34043  15.940  23.410   8.620
 1419BOLB   C4B34044  15.510  23.690   8.510
 1419BOLB   NC234045  15.750  23.920   5.980
 1419BOLB   PO234046  15.560  23.610   6.130
 1419BOLB   GL334047  15.620  23.650   6.560
 1419BOLB   GL434048  15.870  23.640   6.730
 1419BOLB   C1C34049  15.400  23.660   6.990
 1419BOLB   C2C34050  15.690  23.590   7.230
 1419BOLB   C3C34051  15.880  23.290   7.440
 1419BOLB   C4C34052  16.040  22.980   7.710
 1419BOLB   C1D34053  16.170  23.420   7.060
 1419BOLB   C2D34054  16.330  23.310   7.480
 1419BOLB   C3D34055  16.230  23.390   7.950
 1419BOLB   C4D34056  16.400  23.510   8.460
 1420BOLB   NC134057  19.350  18.210   7.570
 1420BOLB   PO134058  19.180  18.260   7.210
 1420BOLB   GL134059  19.110  18.500   6.790
 1420BOLB   GL234060  18.720  18.550   6.680
 1420BOLB   C1A34061  19.210  18.650   6.290
 1420BOLB   C2A34062  19.140  18.440   5.900
 1420BOLB   C3A34063  18.680  18.340   5.630
 1420BOLB   C4A34064  18.200  18.200   5.490
 1420BOLB   C1B34065  18.720  18.710   6.300
 1420BOLB   C2B34066  18.730  18.790   5.840
 1420BOLB   C3B34067  18.990  18.710   5.540
 1420BOLB   C4B34068  19.320  18.490   5.390
 1420BOLB   NC234069  17.260  18.400   3.690
 1420BOLB   PO234070  17.350  18.880   3.450
 1420BOLB   GL334071  17.370  18.860   3.810
 1420BOLB   GL434072  17.060  18.750   3.950
 1420BOLB   C1C34073  17.660  18.980   4.180
 1420BOLB   C2C34074  17.540  18.940   4.610
 1420BOLB   C3C34075  17.670  18.570   4.780
 1420BOLB   C4C34076  18.020  18.450   5.170
 1420BOLB   C1D34077  17.370  18.580   4.310
 1420BOLB   C2D34078  17.540  18.250   4.450
 1420BOLB   C3D34079  17.920  18.000   4.650
 1420BOLB   C4D34080  17.980  17.940   5.140
 1421BOLB   NC134081  20.760   6.740  11.150
 1421BOLB   PO134082  20.850   6.300  11.050
 1421BOLB   GL134083  20.810   5.860  10.940
 1421BOLB   GL234084  20.520   5.840  10.790
 1421BOLB   C1A34085  20.930   5.600  10.710
 1421BOLB   C2A34086  20.880   5.220  10.400
 1421BOLB   C3A34087  20.900   4.930  10.150
 1421BOLB   C4A34088  20.770   4.600   9.880
 1421BOLB   C1B34089  20.490   5.580  10.410
 1421BOLB   C2B34090  20.520   5.200  10.090
 1421BOLB   C3B34091  20.600   4.990   9.690
 1421BOLB   C4B34092  20.730   5.050   9.380
 1421BOLB   NC234093  20.400   3.580   7.690
 1421BOLB   PO234094  20.840   3.520   7.820
 1421BOLB   GL334095  20.680   3.830   8.010
 1421BOLB   GL434096  20.350   3.780   8.120
 1421BOLB   C1C34097  20.660   4.180   8.150
 1421BOLB   C2C34098  20.670   4.330   8.680
 1421BOLB   C3C34099  20.860   4.210   9.120
 1421BOLB   C4C34100  20.870   4.310   9.550
 1421BOLB   C1D34101  20.490   3.830   8.560
 1421BOLB   C2D34102  20.340   4.050   8.940
 1421BOLB   C3D34103  19.950   4.350   9.040
 1421BOLB   C4D34104  19.760   4.830   8.980
 1422BOLB   NC134105  26.920  17.300  10.790
 1422BOLB   PO134106  26.900  16.890  10.710
 1422BOLB   GL134107  27.370  16.750  10.670
 1422BOLB   GL234108  27.520  16.430  10.730
 1422BOLB   C1A34109  27.740  16.920  10.440
 1422BOLB   C2A34110  28.060  17.270  10.400
 1422BOLB   C3A34111  28.160  17.510  10.120
 1422BOLB   C4A34112  28.130  17.850   9.790
 1422BOLB   C1B34113  27.930  16.230  10.840
 1422BOLB   C2B34114  28.330  16.240  10.760
 1422BOLB   C3B34115  28.620  16.190  10.480
 1422BOLB   C4B34116  28.960  16.470  10.320
 1422BOLB   NC234117  29.210  18.560   7.530
 1422BOLB   PO234118  29.450  18.450   7.840
 1422BOLB   GL334119  29.210  18.530   8.200
 1422BOLB   GL434120  29.210  18.770   8.450
 1422BOLB   C1C34121  29.210  18.290   8.530
 1422BOLB   C2C34122  28.880  18.180   8.790
 1422BOLB   C3C34123  28.460  18.200   9.080
 1422BOLB   C4C34124  28.210  18.210   9.480
 1422BOLB   C1D34125  29.000  18.630   8.850
 1422BOLB   C2D34126  28.720  18.630   9.140
 1422BOLB   C3D34127  28.590  18.520   9.460
 1422BOLB   C4D34128  28.520  18.310   9.860
 1423BOLB   NC134129  13.120  12.910   8.830
 1423BOLB   PO134130  13.480  12.950   8.560
 1423BOLB   GL134131  13.080  12.910   8.260
 1423BOLB   GL234132  12.880  12.660   8.410
 1423BOLB   C1A34133  12.840  13.210   8.170
 1423BOLB   C2A34134  12.390  13.100   8.030
 1423BOLB   C3A34135  11.950  13.020   8.030
 1423BOLB   C4A34136  11.560  12.690   7.900
 1423BOLB   C1B34137  12.450  12.750   8.450
 1423BOLB   C2B34138  12.190  12.540   8.150
 1423BOLB   C3B34139  12.160  12.260   7.730
 1423BOLB   C4B34140  11.920  11.940   7.470
 1423BOLB   NC234141  10.620  11.090   6.350
 1423BOLB   PO234142  10.630  10.730   6.700
 1423BOLB   GL334143  10.770  11.050   6.980
 1423BOLB   GL434144  10.860  11.240   6.740
 1423BOLB   C1C34145  10.880  11.150   7.360
 1423BOLB   C2C34146  11.260  11.360   7.410
 1423BOLB   C3C34147  11.380  11.810   7.650
 1423BOLB   C4C34148  11.530  12.250   7.700
 1423BOLB   C1D34149  11.200  11.630   6.830
 1423BOLB   C2D34150  11.500  11.790   7.140
 1423BOLB   C3D34151  11.630  12.210   7.120
 1423BOLB   C4D34152  11.840  12.530   7.150
 1424BOLB   NC134153  16.370  15.380   7.430
 1424BOLB   PO134154  16.440  15.030   7.610
 1424BOLB   GL134155  16.250  14.770   7.270
 1424BOLB   GL234156  16.350  14.450   7.230
 1424BOLB   C1A34157  16.350  14.740   6.810
 1424BOLB   C2A34158  16.200  14.980   6.420
 1424BOLB   C3A34159  16.280  15.120   6.040
 1424BOLB   C4A34160  16.130  15.250   5.660
 1424BOLB   C1B34161  16.490  14.260   6.840
 1424BOLB   C2B34162  16.260  14.390   6.380
 1424BOLB   C3B34163  16.420  14.650   6.070
 1424BOLB   C4B34164  16.410  14.870   5.570
 1424BOLB   NC234165  15.890  15.240   3.150
 1424BOLB   PO234166  16.130  15.480   3.440
 1424BOLB   GL334167  16.160  15.710   3.850
 1424BOLB   GL434168  15.850  15.850   3.800
 1424BOLB   C1C34169  16.220  15.560   4.160
 1424BOLB   C2C34170  15.990  15.220   4.270
 1424BOLB   C3C34171  16.050  15.130   4.740
 1424BOLB   C4C34172  16.070  15.150   5.210
 1424BOLB   C1D34173  15.700  15.630   4.090
 1424BOLB   C2D34174  15.510  15.440   4.520
 1424BOLB   C3D34175  15.650  15.360   5.040
 1424BOLB   C4D34176  15.680  15.300   5.510
 1425BOLB   NC134177  25.340  18.710   8.800
 1425BOLB   PO134178  25.430  18.660   9.180
 1425BOLB   GL134179  25.590  19.040   9.090
 1425BOLB   GL234180  25.540  19.200   9.430
 1425BOLB   C1A34181  25.680  19.280   8.670
 1425BOLB   C2A34182  25.910  19.390   8.290
 1425BOLB   C3A34183  26.200  19.710   8.260
 1425BOLB   C4A34184  26.390  20.000   8.290
 1425BOLB   C1B34185  25.550  19.530   9.070
 1425BOLB   C2B34186  25.720  19.810   8.720
 1425BOLB   C3B34187  26.140  19.830   8.720
 1425BOLB   C4B34188  26.310  20.180   8.890
 1425BOLB   NC234189  28.070  21.710   8.460
 1425BOLB   PO234190  28.150  21.320   8.120
 1425BOLB   GL334191  27.880  21.200   8.370
 1425BOLB   GL434192  27.970  21.150   8.680
 1425BOLB   C1C34193  27.450  21.270   8.270
 1425BOLB   C2C34194  26.970  21.170   8.050
 1425BOLB   C3C34195  26.820  20.780   8.120
 1425BOLB   C4C34196  26.760  20.270   8.230
 1425BOLB   C1D34197  27.620  21.080   8.980
 1425BOLB   C2D34198  27.250  20.940   9.050
 1425BOLB   C3D34199  26.970  20.760   9.380
 1425BOLB   C4D34200  26.500  20.510   9.500
 1426BOLB   NC134201  15.690  17.510   8.380
 1426BOLB   PO134202  15.700  17.610   7.930
 1426BOLB   GL134203  15.550  17.760   7.470
 1426BOLB   GL234204  15.230  17.760   7.320
 1426BOLB   C1A34205  15.590  17.760   7.020
 1426BOLB   C2A34206  15.390  17.670   6.660
 1426BOLB   C3A34207  15.050  17.460   6.260
 1426BOLB   C4A34208  14.870  17.370   5.860
 1426BOLB   C1B34209  15.040  17.930   6.970
 1426BOLB   C2B34210  14.850  17.720   6.610
 1426BOLB   C3B34211  14.530  17.640   6.330
 1426BOLB   C4B34212  14.150  17.500   6.230
 1426BOLB   NC234213  14.740  19.070   4.030
 1426BOLB   PO234214  14.760  18.680   3.670
 1426BOLB   GL334215  14.800  18.350   3.910
 1426BOLB   GL434216  14.500  18.120   4.020
 1426BOLB   C1C34217  14.930  18.180   4.330
 1426BOLB   C2C34218  14.780  18.170   4.720
 1426BOLB   C3C34219  14.760  17.830   5.090
 1426BOLB   C4C34220  14.760  17.560   5.440
 1426BOLB   C1D34221  14.560  17.870   4.320
 1426BOLB   C2D34222  14.670  17.680   4.630
 1426BOLB   C3D34223  14.670  17.290   4.890
 1426BOLB   C4D34224  14.850  16.930   5.180
 1427BOLB   NC134225  12.510  14.010   9.160
 1427BOLB   PO134226  12.480  14.000   9.540
 1427BOLB   GL134227  12.100  13.800   9.390
 1427BOLB   GL234228  12.200  13.600   9.210
 1427BOLB   C1A34229  11.640  13.740   9.100
 1427BOLB   C2A34230  11.190  13.690   8.980
 1427BOLB   C3A34231  10.770  13.670   8.790
 1427BOLB   C4A34232  10.370  13.630   8.740
 1427BOLB   C1B34233  11.930  13.360   9.140
 1427BOLB   C2B34234  11.740  13.100   9.060
 1427BOLB   C3B34235  11.290  13.120   9.090
 1427BOLB   C4B34236  10.820  13.090   9.040
 1427BOLB   NC234237   8.480  12.350   7.880
 1427BOLB   PO234238   8.920  12.110   7.820
 1427BOLB   GL334239   9.200  12.420   7.900
 1427BOLB   GL434240   9.480  12.480   7.660
 1427BOLB   C1C34241   9.380  12.550   8.270
 1427BOLB   C2C34242   9.530  12.610   8.630
 1427BOLB   C3C34243   9.910  12.910   8.700
 1427BOLB   C4C34244  10.100  13.260   8.640
 1427BOLB   C1D34245   9.680  12.210   7.850
 1427BOLB   C2D34246  10.040  12.230   7.950
 1427BOLB   C3D34247  10.450  12.380   8.090
 1427BOLB   C4D34248  10.770  12.490   8.480
 1428BOLB   NC134249  24.220  10.890   8.740
 1428BOLB   PO134250  24.190  11.150   8.370
 1428BOLB   GL134251  24.360  11.020   7.920
 1428BOLB   GL234252  24.570  11.220   7.750
 1428BOLB   C1A34253  24.710  10.750   7.670
 1428BOLB   C2A34254  24.570  10.570   7.300
 1428BOLB   C3A34255  24.370  10.420   6.950
 1428BOLB   C4A34256  24.340  10.170   6.590
 1428BOLB   C1B34257  24.810  11.310   7.340
 1428BOLB   C2B34258  25.210  11.070   7.060
 1428BOLB   C3B34259  25.330  10.760   6.880
 1428BOLB   C4B34260  25.180  10.480   6.540
 1428BOLB   NC234261  25.620   9.020   4.700
 1428BOLB   PO234262  25.230   9.020   4.830
 1428BOLB   GL334263  25.270   9.320   5.220
 1428BOLB   GL434264  25.390   9.600   5.150
 1428BOLB   C1C34265  25.260   9.540   5.630
 1428BOLB   C2C34266  25.170   9.980   5.830
 1428BOLB   C3C34267  25.080   9.980   6.270
 1428BOLB   C4C34268  24.750  10.190   6.500
 1428BOLB   C1D34269  24.950   9.890   5.280
 1428BOLB   C2D34270  24.840  10.280   5.570
 1428BOLB   C3D34271  24.600  10.190   5.950
 1428BOLB   C4D34272  24.140  10.370   6.140
 1429BOLB   NC134273  14.080  17.610   8.320
 1429BOLB   PO134274  13.840  17.520   8.660
 1429BOLB   GL134275  13.620  17.880   8.500
 1429BOLB   GL234276  13.710  17.900   8.100
 1429BOLB   C1A34277  13.210  17.780   8.310
 1429BOLB   C2A34278  13.130  18.000   7.970
 1429BOLB   C3A34279  12.770  18.170   7.720
 1429BOLB   C4A34280  12.610  18.020   7.360
 1429BOLB   C1B34281  13.560  18.110   7.800
 1429BOLB   C2B34282  13.360  18.330   7.610
 1429BOLB   C3B34283  13.050  18.240   7.340
 1429BOLB   C4B34284  12.760  18.230   6.930
 1429BOLB   NC234285  10.650  17.900   5.880
 1429BOLB   PO234286  10.980  18.100   5.680
 1429BOLB   GL334287  11.350  18.230   5.810
 1429BOLB   GL434288  11.340  18.140   6.110
 1429BOLB   C1C34289  11.870  18.160   5.850
 1429BOLB   C2C34290  12.220  18.140   6.110
 1429BOLB   C3C34291  12.350  18.200   6.580
 1429BOLB   C4C34292  12.290  18.150   7.040
 1429BOLB   C1D34293  11.410  17.900   6.510
 1429BOLB   C2D34294  11.250  17.900   6.930
 1429BOLB   C3D34295  10.830  17.780   7.050
 1429BOLB   C4D34296  10.440  17.760   7.130
 1430BOLB   NC134297  10.930  14.870  16.780
 1430BOLB   PO134298  11.100  15.000  17.080
 1430BOLB   GL134299  10.950  15.040  17.470
 1430BOLB   GL234300  11.210  15.040  17.690
 1430BOLB   C1A34301  10.630  15.110  17.760
 1430BOLB   C2A34302  10.130  15.280  17.920
 1430BOLB   C3A34303   9.780  15.180  18.200
 1430BOLB   C4A34304   9.370  15.500  18.230
 1430BOLB   C1B34305  11.000  15.040  18.090
 1430BOLB   C2B34306  10.910  15.020  18.530
 1430BOLB   C3B34307  10.810  14.680  18.870
 1430BOLB   C4B34308  10.360  14.520  18.940
 1430BOLB   NC234309   7.990  15.390  19.470
 1430BOLB   PO234310   7.870  15.820  19.270
 1430BOLB   GL334311   8.190  15.850  19.020
 1430BOLB   GL434312   8.440  16.020  18.820
 1430BOLB   C1C34313   8.360  15.480  18.850
 1430BOLB   C2C34314   8.600  15.280  18.500
 1430BOLB   C3C34315   8.890  15.280  18.250
 1430BOLB   C4C34316   9.060  15.630  18.200
 1430BOLB   C1D34317   8.970  16.020  18.700
 1430BOLB   C2D34318   9.390  15.930  18.420
 1430BOLB   C3D34319   9.640  16.270  18.180
 1430BOLB   C4D34320  10.000  16.540  18.030
 1431BOLB   NC134321  10.730  12.300  13.260
 1431BOLB   PO134322  10.620  12.030  13.480
 1431BOLB   GL134323  10.230  12.040  13.410
 1431BOLB   GL234324  10.220  12.110  13.110
 1431BOLB   C1A34325   9.800  11.970  13.450
 1431BOLB   C2A34326   9.450  11.800  13.380
 1431BOLB   C3A34327   9.180  11.450  13.200
 1431BOLB   C4A34328   9.190  11.080  12.850
 1431BOLB   C1B34329   9.840  12.040  12.890
 1431BOLB   C2B34330   9.400  12.070  12.700
 1431BOLB   C3B34331   9.080  12.130  12.380
 1431BOLB   C4B34332   8.800  12.050  12.040
 1431BOLB   NC234333   8.080   9.180  11.520
 1431BOLB   PO234334   7.860   9.470  11.270
 1431BOLB   GL334335   7.950   9.730  11.580
 1431BOLB   GL434336   7.840   9.850  11.840
 1431BOLB   C1C34337   8.350   9.850  11.850
 1431BOLB   C2C34338   8.670  10.170  11.920
 1431BOLB   C3C34339   8.870  10.360  12.260
 1431BOLB   C4C34340   9.100  10.680  12.520
 1431BOLB   C1D34341   7.960  10.190  12.070
 1431BOLB   C2D34342   8.290  10.480  12.040
 1431BOLB   C3D34343   8.450  10.870  11.990
 1431BOLB   C4D34344   8.950  11.030  12.190
 1432BOLB   NC134345  20.260  10.630   8.570
 1432BOLB   PO134346  20.060  10.580   8.090
 1432BOLB   GL134347  19.990  10.640   7.700
 1432BOLB   GL234348  19.950  10.900   7.560
 1432BOLB   C1A34349  20.250  10.520   7.420
 1432BOLB   C2A34350  20.160  10.400   7.020
 1432BOLB   C3A34351  20.290  10.230   6.590
 1432BOLB   C4A34352  20.450   9.990   6.310
 1432BOLB   C1B34353  19.950  10.810   7.090
 1432BOLB   C2B34354  19.860  10.690   6.690
 1432BOLB   C3B34355  19.920  10.430   6.250
 1432BOLB   C4B34356  20.110  10.300   5.830
 1432BOLB   NC234357  19.110   8.780   4.430
 1432BOLB   PO234358  19.510   8.570   4.500
 1432BOLB   GL334359  19.870   8.660   4.840
 1432BOLB   GL434360  19.970   8.400   4.980
 1432BOLB   C1C34361  19.970   8.820   5.230
 1432BOLB   C2C34362  20.170   8.970   5.620
 1432BOLB   C3C34363  20.290   9.320   5.820
 1432BOLB   C4C34364  20.290   9.690   6.200
 1432BOLB   C1D34365  19.800   8.380   5.360
 1432BOLB   C2D34366  19.770   8.220   5.820
 1432BOLB   C3D34367  19.770   8.150   6.290
 1432BOLB   C4D34368  19.520   7.760   6.410
 1433BOLB   NC134369  15.540   7.270  11.250
 1433BOLB   PO134370  15.080   7.220  11.270
 1433BOLB   GL134371  15.090   7.010  10.970
 1433BOLB   GL234372  14.930   7.220  10.690
 1433BOLB   C1A34373  15.020   6.660  10.650
 1433BOLB   C2A34374  14.560   6.830  10.590
 1433BOLB   C3A34375  14.160   7.040  10.560
 1433BOLB   C4A34376  13.770   6.850  10.360
 1433BOLB   C1B34377  14.820   7.100  10.280
 1433BOLB   C2B34378  14.840   6.670  10.190
 1433BOLB   C3B34379  15.010   6.260  10.290
 1433BOLB   C4B34380  14.730   5.840  10.210
 1433BOLB   NC234381  12.120   5.850   8.940
 1433BOLB   PO234382  12.540   5.630   8.950
 1433BOLB   GL334383  12.890   5.810   9.120
 1433BOLB   GL434384  12.820   5.640   9.380
 1433BOLB   C1C34385  13.320   5.840   9.230
 1433BOLB   C2C34386  13.740   5.960   9.460
 1433BOLB   C3C34387  13.940   6.370   9.640
 1433BOLB   C4C34388  13.800   6.620   9.920
 1433BOLB   C1D34389  12.930   5.790   9.680
 1433BOLB   C2D34390  12.750   5.840  10.120
 1433BOLB   C3D34391  12.420   5.820  10.370
 1433BOLB   C4D34392  12.340   5.570  10.720
 1434BOLB   NC134393  17.230   6.350  12.170
 1434BOLB   PO134394  17.450   6.020  11.960
 1434BOLB   GL134395  17.290   5.770  11.710
 1434BOLB   GL234396  17.000   5.830  11.750
 1434BOLB   C1A34397  17.340   5.620  11.290
 1434BOLB   C2A34398  17.100   5.320  11.160
 1434BOLB   C3A34399  16.830   5.030  10.910
 1434BOLB   C4A34400  16.650   4.670  10.650
 1434BOLB   C1B34401  16.870   5.500  11.650
 1434BOLB   C2B34402  16.680   5.090  11.440
 1434BOLB   C3B34403  16.650   4.640  11.190
 1434BOLB   C4B34404  16.650   4.140  11.160
 1434BOLB   NC234405  16.070   2.790   9.620
 1434BOLB   PO234406  15.760   2.980   9.400
 1434BOLB   GL334407  15.820   3.250   9.670
 1434BOLB   GL434408  15.830   3.560   9.440
 1434BOLB   C1C34409  15.990   3.540   9.920
 1434BOLB   C2C34410  16.100   3.830  10.120
 1434BOLB   C3C34411  16.350   4.190  10.160
 1434BOLB   C4C34412  16.400   4.330  10.590
 1434BOLB   C1D34413  16.340   3.670   9.450
 1434BOLB   C2D34414  16.520   4.020   9.590
 1434BOLB   C3D34415  16.780   4.430   9.560
 1434BOLB   C4D34416  16.790   4.770   9.660
 1435BOLB   NC134417  24.710   7.850  17.880
 1435BOLB   PO134418  24.950   7.460  17.890
 1435BOLB   GL134419  25.090   7.120  18.130
 1435BOLB   GL234420  25.210   7.290  18.570
 1435BOLB   C1A34421  25.410   6.920  18.370
 1435BOLB   C2A34422  25.800   6.670  18.190
 1435BOLB   C3A34423  26.090   6.420  18.090
 1435BOLB   C4A34424  26.410   6.350  18.330
 1435BOLB   C1B34425  25.300   7.660  18.870
 1435BOLB   C2B34426  25.260   7.740  19.410
 1435BOLB   C3B34427  25.550   7.540  19.710
 1435BOLB   C4B34428  25.720   7.640  20.010
 1435BOLB   NC234429  28.040   4.740  19.420
 1435BOLB   PO234430  27.710   5.030  19.450
 1435BOLB   GL334431  27.330   5.200  19.280
 1435BOLB   GL434432  27.020   5.180  19.490
 1435BOLB   C1C34433  27.060   5.390  19.040
 1435BOLB   C2C34434  26.930   5.270  18.660
 1435BOLB   C3C34435  26.580   5.400  18.510
 1435BOLB   C4C34436  26.450   5.910  18.490
 1435BOLB   C1D34437  26.650   5.350  19.360
 1435BOLB   C2D34438  26.280   5.180  19.220
 1435BOLB   C3D34439  25.900   4.980  19.090
 1435BOLB   C4D34440  25.430   4.830  19.120
 1436BOLB   NC134441  16.480   6.300  12.150
 1436BOLB   PO134442  16.520   5.940  12.370
 1436BOLB   GL134443  16.610   5.620  12.080
 1436BOLB   GL234444  16.530   5.890  11.740
 1436BOLB   C1A34445  16.510   5.220  11.980
 1436BOLB   C2A34446  16.280   4.840  11.890
 1436BOLB   C3A34447  16.400   4.550  11.830
 1436BOLB   C4A34448  16.490   4.280  11.970
 1436BOLB   C1B34449  16.410   5.520  11.580
 1436BOLB   C2B34450  16.170   5.100  11.410
 1436BOLB   C3B34451  15.860   4.790  11.360
 1436BOLB   C4B34452  15.520   4.490  11.310
 1436BOLB   NC234453  15.340   3.110   9.780
 1436BOLB   PO234454  15.310   2.910  10.210
 1436BOLB   GL334455  15.640   3.080  10.400
 1436BOLB   GL434456  15.770   3.080  10.120
 1436BOLB   C1C34457  15.890   3.190  10.760
 1436BOLB   C2C34458  16.170   3.480  10.990
 1436BOLB   C3C34459  16.270   3.690  11.350
 1436BOLB   C4C34460  16.460   3.970  11.760
 1436BOLB   C1D34461  16.110   3.340  10.360
 1436BOLB   C2D34462  16.420   3.620  10.470
 1436BOLB   C3D34463  16.690   3.960  10.670
 1436BOLB   C4D34464  17.010   4.220  10.810
 1437BOLB   NC134465  18.790  12.220   7.500
 1437BOLB   PO134466  18.960  11.990   7.740
 1437BOLB   GL134467  19.070  11.800   7.400
 1437BOLB   GL234468  18.820  11.760   7.280
 1437BOLB   C1A34469  19.090  12.000   6.980
 1437BOLB   C2A34470  19.190  11.850   6.520
 1437BOLB   C3A34471  19.090  11.610   6.140
 1437BOLB   C4A34472  19.010  11.780   5.850
 1437BOLB   C1B34473  18.730  11.350   7.040
 1437BOLB   C2B34474  18.900  11.080   6.700
 1437BOLB   C3B34475  18.860  10.740   6.400
 1437BOLB   C4B34476  18.570  10.840   6.210
 1437BOLB   NC234477  18.930  11.300   3.140
 1437BOLB   PO234478  18.940  11.170   3.550
 1437BOLB   GL334479  18.940  11.450   3.860
 1437BOLB   GL434480  18.680  11.610   4.060
 1437BOLB   C1C34481  19.120  11.730   4.200
 1437BOLB   C2C34482  19.050  12.070   4.520
 1437BOLB   C3C34483  19.010  12.020   5.020
 1437BOLB   C4C34484  18.980  12.080   5.520
 1437BOLB   C1D34485  18.650  11.680   4.510
 1437BOLB   C2D34486  18.710  11.670   4.890
 1437BOLB   C3D34487  18.510  11.320   5.010
 1437BOLB   C4D34488  18.420  11.240   5.440
 1438BOLB   NC134489  24.320  16.730  19.240
 1438BOLB   PO134490  24.360  16.390  19.430
 1438BOLB   GL134491  24.400  16.250  19.860
 1438BOLB   GL234492  24.190  16.470  20.080
 1438BOLB   C1A34493  24.760  16.300  20.180
 1438BOLB   C2A34494  24.890  16.460  20.410
 1438BOLB   C3A34495  24.720  16.750  20.560
 1438BOLB   C4A34496  24.750  16.800  21.010
 1438BOLB   C1B34497  24.330  16.420  20.490
 1438BOLB   C2B34498  24.390  16.530  20.850
 1438BOLB   C3B34499  24.400  16.560  21.340
 1438BOLB   C4B34500  24.120  16.770  21.710
 1438BOLB   NC234501  25.870  16.170  23.370
 1438BOLB   PO234502  25.570  16.540  23.140
 1438BOLB   GL334503  25.290  16.470  22.930
 1438BOLB   GL434504  25.220  16.720  22.890
 1438BOLB   C1C34505  25.080  16.470  22.510
 1438BOLB   C2C34506  24.920  16.620  22.090
 1438BOLB   C3C34507  24.780  16.650  21.720
 1438BOLB   C4C34508  24.880  16.780  21.400
 1438BOLB   C1D34509  25.550  16.560  22.520
 1438BOLB   C2D34510  25.480  16.230  22.300
 1438BOLB   C3D34511  25.650  16.120  21.910
 1438BOLB   C4D34512  25.690  16.390  21.570
 1439BOLB   NC134513  16.620   7.980  11.050
 1439BOLB   PO134514  16.090   7.810  10.990
 1439BOLB   GL134515  15.900   7.440  10.720
 1439BOLB   GL234516  15.870   7.050  10.970
 1439BOLB   C1A34517  16.030   7.030  10.510
 1439BOLB   C2A34518  16.010   6.650  10.340
 1439BOLB   C3A34519  15.910   6.290  10.070
 1439BOLB   C4A34520  15.880   5.930   9.920
 1439BOLB   C1B34521  15.600   6.690  10.700
 1439BOLB   C2B34522  15.440   6.420  10.310
 1439BOLB   C3B34523  15.430   6.070  10.080
 1439BOLB   C4B34524  15.110   5.840   9.890
 1439BOLB   NC234525  13.990   4.720   8.010
 1439BOLB   PO234526  13.930   4.870   8.510
 1439BOLB   GL334527  14.220   5.100   8.770
 1439BOLB   GL434528  14.440   4.910   8.890
 1439BOLB   C1C34529  14.560   5.390   9.020
 1439BOLB   C2C34530  15.020   5.310   9.180
 1439BOLB   C3C34531  15.270   5.590   9.490
 1439BOLB   C4C34532  15.550   5.630   9.800
 1439BOLB   C1D34533  14.740   4.820   9.210
 1439BOLB   C2D34534  14.930   4.970   9.560
 1439BOLB   C3D34535  15.270   4.720   9.750
 1439BOLB   C4D34536  15.440   4.600  10.020
 1440BOLB   NC134537   9.980  14.910  13.420
 1440BOLB   PO134538  10.190  15.180  13.220
 1440BOLB   GL134539  10.020  14.970  12.940
 1440BOLB   GL234540  10.020  14.940  12.600
 1440BOLB   C1A34541   9.570  14.820  12.880
 1440BOLB   C2A34542   9.210  14.970  12.640
 1440BOLB   C3A34543   8.800  15.220  12.510
 1440BOLB   C4A34544   8.700  15.340  12.160
 1440BOLB   C1B34545   9.660  15.150  12.380
 1440BOLB   C2B34546   9.210  15.190  12.190
 1440BOLB   C3B34547   8.900  14.900  12.040
 1440BOLB   C4B34548   8.580  14.790  11.890
 1440BOLB   NC234549   6.430  16.260  11.820
 1440BOLB   PO234550   6.420  16.230  12.230
 1440BOLB   GL334551   6.760  16.180  12.260
 1440BOLB   GL434552   6.850  16.360  12.480
 1440BOLB   C1C34553   7.200  16.390  12.110
 1440BOLB   C2C34554   7.640  16.210  12.060
 1440BOLB   C3C34555   8.060  15.920  11.990
 1440BOLB   C4C34556   8.500  15.680  12.090
 1440BOLB   C1D34557   7.180  16.490  12.700
 1440BOLB   C2D34558   7.510  16.280  12.920
 1440BOLB   C3D34559   7.500  15.800  12.900
 1440BOLB   C4D34560   7.350  15.540  13.250
 1441BOLB   NC134561  12.550   9.910  11.770
 1441BOLB   PO134562  12.230  10.130  11.560
 1441BOLB   GL134563  11.890  10.140  11.390
 1441BOLB   GL234564  11.750  10.380  11.460
 1441BOLB   C1A34565  11.560  10.060  11.060
 1441BOLB   C2A34566  11.330   9.940  10.750
 1441BOLB   C3A34567  11.260   9.860  10.370
 1441BOLB   C4A34568  11.140   9.630   9.970
 1441BOLB   C1B34569  11.320  10.520  11.260
 1441BOLB   C2B34570  10.940  10.270  11.000
 1441BOLB   C3B34571  10.820   9.840  10.820
 1441BOLB   C4B34572  11.000   9.500  10.720
 1441BOLB   NC234573   9.570   9.000   8.810
 1441BOLB   PO234574   9.610   8.890   8.350
 1441BOLB   GL334575  10.020   9.050   8.470
 1441BOLB   GL434576   9.920   9.330   8.730
 1441BOLB   C1C34577  10.320   9.010   8.720
 1441BOLB   C2C34578  10.510   9.060   9.080
 1441BOLB   C3C34579  10.710   9.140   9.490
 1441BOLB   C4C34580  11.000   9.400   9.660
 1441BOLB   C1D34581  10.020   9.090   9.150
 1441BOLB   C2D34582  10.200   9.200   9.590
 1441BOLB   C3D34583  10.390   9.170  10.010
 1441BOLB   C4D34584  10.450   9.350  10.390
 1442BOLB   NC134585  21.490  14.890   7.240
 1442BOLB   PO134586  21.640  15.350   7.190
 1442BOLB   GL134587  21.850  15.020   6.910
 1442BOLB   GL234588  22.130  14.870   6.820
 1442BOLB   C1A34589  21.900  15.200   6.440
 1442BOLB   C2A34590  21.740  15.180   6.080
 1442BOLB   C3A34591  21.940  15.110   5.710
 1442BOLB   C4A34592  22.230  15.070   5.340
 1442BOLB   C1B34593  22.520  15.010   6.520
 1442BOLB   C2B34594  22.820  15.320   6.230
 1442BOLB   C3B34595  22.660  15.710   5.970
 1442BOLB   C4B34596  22.780  15.810   5.470
 1442BOLB   NC234597  22.650  15.730   2.880
 1442BOLB   PO234598  22.850  16.090   3.130
 1442BOLB   GL334599  22.940  16.110   3.600
 1442BOLB   GL434600  23.200  16.360   3.780
 1442BOLB   C1C34601  22.790  15.910   3.980
 1442BOLB   C2C34602  22.690  15.710   4.360
 1442BOLB   C3C34603  22.430  15.700   4.790
 1442BOLB   C4C34604  22.420  15.440   5.150
 1442BOLB   C1D34605  23.470  16.370   4.160
 1442BOLB   C2D34606  23.550  16.250   4.570
 1442BOLB   C3D34607  23.170  16.340   4.950
 1442BOLB   C4D34608  22.910  16.410   5.330
 1443BOLB   NC134609  20.690   4.930  13.470
 1443BOLB   PO134610  20.340   4.910  13.720
 1443BOLB   GL134611  20.410   4.470  13.640
 1443BOLB   GL234612  20.700   4.400  13.480
 1443BOLB   C1A34613  20.270   4.060  13.670
 1443BOLB   C2A34614  20.330   3.670  13.510
 1443BOLB   C3A34615  20.510   3.280  13.590
 1443BOLB   C4A34616  20.660   2.870  13.720
 1443BOLB   C1B34617  20.710   4.020  13.420
 1443BOLB   C2B34618  20.830   3.740  13.680
 1443BOLB   C3B34619  21.070   3.350  13.530
 1443BOLB   C4B34620  21.030   3.190  13.820
 1443BOLB   NC234621  20.620   0.990  13.500
 1443BOLB   PO234622  20.190   1.110  13.410
 1443BOLB   GL334623  20.190   1.510  13.460
 1443BOLB   GL434624  20.010   1.610  13.710
 1443BOLB   C1C34625  20.480   1.830  13.290
 1443BOLB   C2C34626  20.870   1.930  13.140
 1443BOLB   C3C34627  20.890   2.320  13.280
 1443BOLB   C4C34628  20.890   2.600  13.640
 1443BOLB   C1D34629  19.960   2.000  13.550
 1443BOLB   C2D34630  19.860   2.430  13.440
 1443BOLB   C3D34631  19.820   2.740  13.370
 1443BOLB   C4D34632  20.040   3.160  13.490
 1444BOLB   NC134633  15.340  21.940  12.290
 1444BOLB   PO134634  14.940  22.280  12.310
 1444BOLB   GL134635  14.920  22.660  12.150
 1444BOLB   GL234636  14.590  22.630  12.080
 1444BOLB   C1A34637  14.850  23.090  12.060
 1444BOLB   C2A34638  14.780  23.450  11.850
 1444BOLB   C3A34639  14.740  23.820  11.620
 1444BOLB   C4A34640  14.620  24.200  11.280
 1444BOLB   C1B34641  14.420  23.020  12.240
 1444BOLB   C2B34642  14.320  23.550  12.010
 1444BOLB   C3B34643  14.240  24.000  12.130
 1444BOLB   C4B34644  14.070  24.370  12.030
 1444BOLB   NC234645  12.210  25.200  10.810
 1444BOLB   PO234646  12.580  25.090  10.770
 1444BOLB   GL334647  12.900  24.830  10.680
 1444BOLB   GL434648  12.800  24.580  10.910
 1444BOLB   C1C34649  13.330  24.810  10.890
 1444BOLB   C2C34650  13.650  24.590  10.900
 1444BOLB   C3C34651  14.080  24.560  10.850
 1444BOLB   C4C34652  14.460  24.580  11.150
 1444BOLB   C1D34653  13.070  24.280  11.070
 1444BOLB   C2D34654  13.190  23.820  11.270
 1444BOLB   C3D34655  13.410  23.540  11.130
 1444BOLB   C4D34656  13.560  23.120  11.100
 1445BOLB   NC134657  13.160  16.310   8.680
 1445BOLB   PO134658  13.180  15.820   8.830
 1445BOLB   GL134659  12.850  15.840   8.450
 1445BOLB   GL234660  12.810  16.140   8.360
 1445BOLB   C1A34661  12.540  15.700   8.150
 1445BOLB   C2A34662  12.240  15.920   7.830
 1445BOLB   C3A34663  11.920  15.950   7.580
 1445BOLB   C4A34664  11.660  15.920   7.170
 1445BOLB   C1B34665  12.540  16.270   8.030
 1445BOLB   C2B34666  12.450  16.310   7.600
 1445BOLB   C3B34667  12.270  16.220   7.210
 1445BOLB   C4B34668  12.510  16.110   6.810
 1445BOLB   NC234669  10.550  15.480   5.510
 1445BOLB   PO234670  10.640  15.050   5.500
 1445BOLB   GL334671  10.880  14.890   5.890
 1445BOLB   GL434672  10.700  14.800   6.100
 1445BOLB   C1C34673  11.200  14.900   6.210
 1445BOLB   C2C34674  11.370  15.000   6.520
 1445BOLB   C3C34675  11.350  15.170   6.850
 1445BOLB   C4C34676  11.350  15.670   7.010
 1445BOLB   C1D34677  10.850  14.900   6.530
 1445BOLB   C2D34678  11.010  14.870   6.930
 1445BOLB   C3D34679  11.280  14.930   7.320
 1445BOLB   C4D34680  11.410  15.260   7.460
 1446BOLB   NC134681  21.590   5.010  13.540
 1446BOLB   PO134682  21.790   4.830  13.840
 1446BOLB   GL134683  21.600   4.510  13.770
 1446BOLB   GL234684  21.300   4.540  13.590
 1446BOLB   C1A34685  21.490   4.100  13.910
 1446BOLB   C2A34686  21.630   3.800  13.600
 1446BOLB   C3A34687  21.560   3.590  13.410
 1446BOLB   C4A34688  21.470   3.210  13.230
 1446BOLB   C1B34689  21.270   4.140  13.470
 1446BOLB   C2B34690  21.110   3.750  13.210
 1446BOLB   C3B34691  21.150   3.480  12.990
 1446BOLB   C4B34692  21.110   3.450  12.560
 1446BOLB   NC234693  22.590   1.610  11.640
 1446BOLB   PO234694  22.650   1.270  11.920
 1446BOLB   GL334695  22.590   1.660  12.200
 1446BOLB   GL434696  22.790   1.950  12.290
 1446BOLB   C1C34697  22.210   1.940  12.450
 1446BOLB   C2C34698  22.210   2.180  12.730
 1446BOLB   C3C34699  21.990   2.430  12.950
 1446BOLB   C4C34700  21.760   2.830  12.940
 1446BOLB   C1D34701  22.710   2.270  12.630
 1446BOLB   C2D34702  22.400   2.590  12.500
 1446BOLB   C3D34703  22.100   2.810  12.580
 1446BOLB   C4D34704  22.120   3.150  12.790
 1447BOLB   NC134705  11.150  11.440  13.570
 1447BOLB   PO134706  11.470  11.540  13.260
 1447BOLB   GL134707  11.170  11.370  13.080
 1447BOLB   GL234708  10.830  11.470  13.190
 1447BOLB   C1A34709  11.050  10.900  12.960
 1447BOLB   C2A34710  10.640  10.770  12.810
 1447BOLB   C3A34711  10.340  10.520  12.550
 1447BOLB   C4A34712  10.040  10.180  12.450
 1447BOLB   C1B34713  10.510  11.190  13.050
 1447BOLB   C2B34714  10.090  11.060  12.890
 1447BOLB   C3B34715   9.700  11.100  13.000
 1447BOLB   C4B34716   9.330  10.970  13.330
 1447BOLB   NC234717   8.400   8.340  11.680
 1447BOLB   PO234718   8.510   8.780  11.590
 1447BOLB   GL334719   8.520   9.040  11.890
 1447BOLB   GL434720   8.210   9.320  12.020
 1447BOLB   C1C34721   8.760   9.050  12.300
 1447BOLB   C2C34722   9.090   9.230  12.420
 1447BOLB   C3C34723   9.290   9.640  12.610
 1447BOLB   C4C34724   9.720   9.780  12.510
 1447BOLB   C1D34725   8.600   9.480  12.170
 1447BOLB   C2D34726   8.840   9.770  12.240
 1447BOLB   C3D34727   8.960  10.030  12.570
 1447BOLB   C4D34728   9.070  10.270  12.890
 1448BOLB   NC134729  23.000   6.900  18.280
 1448BOLB   PO134730  23.100   7.300  18.420
 1448BOLB   GL134731  23.070   7.070  18.760
 1448BOLB   GL234732  22.770   7.090  18.790
 1448BOLB   C1A34733  23.170   6.690  18.870
 1448BOLB   C2A34734  23.310   6.460  19.260
 1448BOLB   C3A34735  23.670   6.200  19.450
 1448BOLB   C4A34736  24.140   6.090  19.650
 1448BOLB   C1B34737  22.800   6.820  19.170
 1448BOLB   C2B34738  22.830   6.490  19.440
 1448BOLB   C3B34739  22.880   6.190  19.720
 1448BOLB   C4B34740  23.040   5.920  19.970
 1448BOLB   NC234741  24.930   4.360  21.750
 1448BOLB   PO234742  24.620   4.550  21.370
 1448BOLB   GL334743  24.810   4.710  21.030
 1448BOLB   GL434744  24.690   4.540  20.800
 1448BOLB   C1C34745  24.850   5.200  20.810
 1448BOLB   C2C34746  24.550   5.370  20.480
 1448BOLB   C3C34747  24.440   5.470  20.100
 1448BOLB   C4C34748  24.310   5.850  20.000
 1448BOLB   C1D34749  24.420   4.910  20.720
 1448BOLB   C2D34750  24.260   5.260  20.850
 1448BOLB   C3D34751  23.910   5.500  21.040
 1448BOLB   C4D34752  23.890   5.890  21.370
 1449BOLB   NC134753  17.790   8.440   9.430
 1449BOLB   PO134754  18.310   8.550   9.340
 1449BOLB   GL134755  18.270   8.430   9.030
 1449BOLB   GL234756  17.980   8.290   8.980
 1449BOLB   C1A34757  18.270   8.380   8.570
 1449BOLB   C2A34758  17.960   8.240   8.300
 1449BOLB   C3A34759  17.650   8.150   7.960
 1449BOLB   C4A34760  17.590   8.040   7.490
 1449BOLB   C1B34761  17.900   7.990   8.710
 1449BOLB   C2B34762  17.730   7.790   8.410
 1449BOLB   C3B34763  17.830   7.430   8.080
 1449BOLB   C4B34764  17.790   7.140   7.880
 1449BOLB   NC234765  16.900   7.420   5.010
 1449BOLB   PO234766  16.750   7.180   5.410
 1449BOLB   GL334767  16.900   7.120   5.850
 1449BOLB   GL434768  16.780   6.850   5.960
 1449BOLB   C1C34769  17.120   7.110   6.350
 1449BOLB   C2C34770  17.340   7.220   6.740
 1449BOLB   C3C34771  17.450   7.610   6.830
 1449BOLB   C4C34772  17.380   7.950   7.150
 1449BOLB   C1D34773  16.770   6.750   6.360
 1449BOLB   C2D34774  17.060   6.800   6.790
 1449BOLB   C3D34775  17.180   6.830   7.140
 1449BOLB   C4D34776  17.040   7.160   7.270
 1450BOLB   NC134777  23.490  21.770  11.210
 1450BOLB   PO134778  23.640  21.850  11.680
 1450BOLB   GL134779  23.860  22.090  11.580
 1450BOLB   GL234780  24.170  21.980  11.540
 1450BOLB   C1A34781  24.110  22.390  11.340
 1450BOLB   C2A34782  24.210  22.380  10.950
 1450BOLB   C3A34783  24.440  22.650  10.760
 1450BOLB   C4A34784  24.530  22.910  10.460
 1450BOLB   C1B34785  24.550  22.340  11.650
 1450BOLB   C2B34786  24.530  22.600  11.350
 1450BOLB   C3B34787  24.840  22.780  11.110
 1450BOLB   C4B34788  25.270  22.760  11.080
 1450BOLB   NC234789  26.860  24.680  10.290
 1450BOLB   PO234790  26.660  24.210  10.160
 1450BOLB   GL334791  26.380  23.800  10.290
 1450BOLB   GL434792  26.410  23.470  10.090
 1450BOLB   C1C34793  25.890  23.590  10.240
 1450BOLB   C2C34794  25.460  23.690  10.230
 1450BOLB   C3C34795  25.150  23.590  10.570
 1450BOLB   C4C34796  24.700  23.400  10.480
 1450BOLB   C1D34797  26.230  23.240   9.730
 1450BOLB   C2D34798  26.100  22.890   9.700
 1450BOLB   C3D34799  25.620  22.690   9.700
 1450BOLB   C4D34800  25.390  22.390   9.870
 1451BOLB   NC134801  18.430  19.180   7.780
 1451BOLB   PO134802  18.710  19.260   7.480
 1451BOLB   GL134803  18.400  19.460   7.290
 1451BOLB   GL234804  18.170  19.550   7.560
 1451BOLB   C1A34805  18.350  19.500   6.900
 1451BOLB   C2A34806  18.590  19.680   6.580
 1451BOLB   C3A34807  18.710  19.750   6.200
 1451BOLB   C4A34808  18.660  19.540   5.740
 1451BOLB   C1B34809  18.080  19.800   7.160
 1451BOLB   C2B34810  18.040  20.110   7.030
 1451BOLB   C3B34811  17.950  20.350   6.670
 1451BOLB   C4B34812  17.910  20.780   6.340
 1451BOLB   NC234813  18.630  19.070   2.840
 1451BOLB   PO234814  18.380  18.930   3.240
 1451BOLB   GL334815  18.420  18.680   3.620
 1451BOLB   GL434816  18.690  18.550   3.690
 1451BOLB   C1C34817  18.450  18.680   4.150
 1451BOLB   C2C34818  18.630  18.770   4.640
 1451BOLB   C3C34819  18.670  19.070   5.060
 1451BOLB   C4C34820  18.790  19.200   5.450
 1451BOLB   C1D34821  18.900  18.570   4.120
 1451BOLB   C2D34822  18.970  18.400   4.480
 1451BOLB   C3D34823  18.850  18.160   4.840
 1451BOLB   C4D34824  18.960  18.200   5.260
 1452BOLB   NC134825  10.360  14.580  12.700
 1452BOLB   PO134826  10.540  14.130  12.700
 1452BOLB   GL134827  10.190  14.130  12.540
 1452BOLB   GL234828  10.180  14.020  12.250
 1452BOLB   C1A34829   9.690  14.400  12.640
 1452BOLB   C2A34830   9.280  14.490  12.630
 1452BOLB   C3A34831   8.840  14.620  12.560
 1452BOLB   C4A34832   8.460  14.820  12.440
 1452BOLB   C1B34833   9.760  14.260  12.080
 1452BOLB   C2B34834   9.360  14.150  11.840
 1452BOLB   C3B34835   9.020  13.820  11.740
 1452BOLB   C4B34836   8.580  13.760  11.700
 1452BOLB   NC234837   6.270  15.520  11.280
 1452BOLB   PO234838   6.380  15.730  11.730
 1452BOLB   GL334839   6.600  15.800  12.020
 1452BOLB   GL434840   6.700  15.710  12.240
 1452BOLB   C1C34841   7.090  15.870  11.990
 1452BOLB   C2C34842   7.550  15.680  12.050
 1452BOLB   C3C34843   7.860  15.420  12.320
 1452BOLB   C4C34844   8.280  15.220  12.320
 1452BOLB   C1D34845   6.970  15.440  12.360
 1452BOLB   C2D34846   7.430  15.460  12.550
 1452BOLB   C3D34847   7.720  15.370  12.900
 1452BOLB   C4D34848   8.200  15.350  13.190
 1453BOLB   NC134849  19.160  11.330  20.700
 1453BOLB   PO134850  19.370  11.640  20.700
 1453BOLB   GL134851  19.420  11.450  21.110
 1453BOLB   GL234852  19.360  11.730  21.260
 1453BOLB   C1A34853  19.550  11.190  21.540
 1453BOLB   C2A34854  19.530  10.950  21.890
 1453BOLB   C3A34855  19.400  10.870  22.190
 1453BOLB   C4A34856  19.590  10.620  22.620
 1453BOLB   C1B34857  19.210  11.700  21.640
 1453BOLB   C2B34858  19.280  11.530  22.030
 1453BOLB   C3B34859  19.550  11.340  22.320
 1453BOLB   C4B34860  20.000  11.400  22.280
 1453BOLB   NC234861  20.570   9.740  25.030
 1453BOLB   PO234862  20.480  10.030  24.830
 1453BOLB   GL334863  20.380  10.340  24.470
 1453BOLB   GL434864  20.670  10.340  24.310
 1453BOLB   C1C34865  20.260  10.160  24.060
 1453BOLB   C2C34866  20.160   9.960  23.690
 1453BOLB   C3C34867  19.970  10.120  23.270
 1453BOLB   C4C34868  19.820  10.380  22.970
 1453BOLB   C1D34869  20.580  10.490  24.000
 1453BOLB   C2D34870  20.480  10.460  23.590
 1453BOLB   C3D34871  20.350  10.490  23.230
 1453BOLB   C4D34872  20.670  10.760  22.970
 1454BOLB   NC134873  14.330  15.840   8.190
 1454BOLB   PO134874  14.430  16.230   8.020
 1454BOLB   GL134875  14.350  16.050   7.620
 1454BOLB   GL234876  14.240  16.240   7.420
 1454BOLB   C1A34877  14.280  15.700   7.350
 1454BOLB   C2A34878  14.360  15.510   6.930
 1454BOLB   C3A34879  14.510  15.610   6.480
 1454BOLB   C4A34880  14.590  15.510   6.020
 1454BOLB   C1B34881  14.240  16.040   7.060
 1454BOLB   C2B34882  14.020  15.990   6.720
 1454BOLB   C3B34883  13.850  16.010   6.270
 1454BOLB   C4B34884  13.600  16.080   5.950
 1454BOLB   NC234885  13.380  15.520   3.700
 1454BOLB   PO234886  13.750  15.880   3.700
 1454BOLB   GL334887  14.050  15.870   4.070
 1454BOLB   GL434888  14.230  15.560   4.060
 1454BOLB   C1C34889  14.090  15.930   4.530
 1454BOLB   C2C34890  14.370  15.810   4.820
 1454BOLB   C3C34891  14.500  15.650   5.250
 1454BOLB   C4C34892  14.750  15.470   5.540
 1454BOLB   C1D34893  14.020  15.370   4.490
 1454BOLB   C2D34894  14.270  15.210   4.920
 1454BOLB   C3D34895  14.490  15.100   5.270
 1454BOLB   C4D34896  14.850  14.970   5.360
 1455BOLB   NC134897  24.980  11.020   8.570
 1455BOLB   PO134898  25.080  11.440   8.440
 1455BOLB   GL134899  25.080  11.420   7.950
 1455BOLB   GL234900  24.920  11.610   7.890
 1455BOLB   C1A34901  25.150  11.040   7.600
 1455BOLB   C2A34902  25.020  10.720   7.300
 1455BOLB   C3A34903  24.970  10.350   7.010
 1455BOLB   C4A34904  25.130   9.970   6.860
 1455BOLB   C1B34905  25.210  11.580   7.490
 1455BOLB   C2B34906  25.260  11.580   7.090
 1455BOLB   C3B34907  25.560  11.620   6.710
 1455BOLB   C4B34908  25.800  11.600   6.400
 1455BOLB   NC234909  26.440   9.180   5.020
 1455BOLB   PO234910  26.060   8.950   5.040
 1455BOLB   GL334911  25.620   8.940   5.180
 1455BOLB   GL434912  25.290   8.760   5.190
 1455BOLB   C1C34913  25.420   8.980   5.610
 1455BOLB   C2C34914  25.460   9.160   5.900
 1455BOLB   C3C34915  25.320   9.530   6.170
 1455BOLB   C4C34916  25.140   9.580   6.610
 1455BOLB   C1D34917  24.980   8.740   5.570
 1455BOLB   C2D34918  25.070   8.750   6.010
 1455BOLB   C3D34919  25.010   8.640   6.460
 1455BOLB   C4D34920  25.060   8.770   6.860
 1456BOLB   NC134921  26.150  12.500   9.250
 1456BOLB   PO134922  25.810  12.520   9.070
 1456BOLB   GL134923  25.950  12.590   8.740
 1456BOLB   GL234924  26.020  12.380   8.560
 1456BOLB   C1A34925  26.230  12.830   8.450
 1456BOLB   C2A34926  26.510  12.940   8.210
 1456BOLB   C3A34927  26.790  12.820   7.790
 1456BOLB   C4A34928  26.960  12.770   7.390
 1456BOLB   C1B34929  26.230  12.240   8.160
 1456BOLB   C2B34930  26.450  12.010   7.830
 1456BOLB   C3B34931  26.620  11.930   7.350
 1456BOLB   C4B34932  26.680  11.800   6.860
 1456BOLB   NC234933  27.100  13.620   4.650
 1456BOLB   PO234934  27.460  13.570   4.930
 1456BOLB   GL334935  27.310  13.340   5.280
 1456BOLB   GL434936  27.020  13.460   5.190
 1456BOLB   C1C34937  27.260  13.220   5.770
 1456BOLB   C2C34938  27.390  13.160   6.210
 1456BOLB   C3C34939  27.400  13.020   6.570
 1456BOLB   C4C34940  27.130  12.910   6.930
 1456BOLB   C1D34941  27.050  13.790   5.590
 1456BOLB   C2D34942  26.660  14.040   5.620
 1456BOLB   C3D34943  26.410  14.410   5.650
 1456BOLB   C4D34944  26.600  14.780   5.590
 1457BOLB   NC134945  10.390  12.900  14.100
 1457BOLB   PO134946  10.330  13.240  14.420
 1457BOLB   GL134947  10.050  12.890  14.510
 1457BOLB   GL234948   9.800  12.900  14.790
 1457BOLB   C1A34949   9.670  12.630  14.380
 1457BOLB   C2A34950   9.320  12.450  14.390
 1457BOLB   C3A34951   9.050  12.230  14.260
 1457BOLB   C4A34952   8.760  11.960  14.320
 1457BOLB   C1B34953   9.420  12.830  14.800
 1457BOLB   C2B34954   8.990  12.590  14.730
 1457BOLB   C3B34955   9.030  12.130  14.820
 1457BOLB   C4B34956   9.410  11.870  14.960
 1457BOLB   NC234957   6.910  11.150  12.910
 1457BOLB   PO234958   6.880  10.800  13.100
 1457BOLB   GL334959   7.380  10.920  13.110
 1457BOLB   GL434960   7.610  10.670  12.930
 1457BOLB   C1C34961   7.580  11.070  13.420
 1457BOLB   C2C34962   7.760  11.510  13.520
 1457BOLB   C3C34963   8.080  11.630  13.800
 1457BOLB   C4C34964   8.370  11.670  14.160
 1457BOLB   C1D34965   7.940  10.800  13.100
 1457BOLB   C2D34966   8.230  11.070  12.990
 1457BOLB   C3D34967   8.620  11.110  13.020
 1457BOLB   C4D34968   8.880  11.050  13.380
 1458BOLB   NC134969  20.270  18.210   7.420
 1458BOLB   PO134970  20.420  17.860   7.330
 1458BOLB   GL134971  20.360  17.920   6.990
 1458BOLB   GL234972  20.010  18.180   6.920
 1458BOLB   C1A34973  20.460  17.870   6.610
 1458BOLB   C2A34974  20.250  17.710   6.280
 1458BOLB   C3A34975  20.340  17.710   5.820
 1458BOLB   C4A34976  20.400  17.590   5.370
 1458BOLB   C1B34977  19.890  18.170   6.510
 1458BOLB   C2B34978  20.050  18.240   6.100
 1458BOLB   C3B34979  20.130  18.390   5.700
 1458BOLB   C4B34980  19.830  18.610   5.490
 1458BOLB   NC234981  20.770  17.500   2.790
 1458BOLB   PO234982  20.990  17.230   3.020
 1458BOLB   GL334983  21.000  17.390   3.470
 1458BOLB   GL434984  21.340  17.420   3.630
 1458BOLB   C1C34985  20.940  17.590   3.930
 1458BOLB   C2C34986  21.000  17.580   4.300
 1458BOLB   C3C34987  20.950  17.770   4.710
 1458BOLB   C4C34988  20.630  17.720   5.050
 1458BOLB   C1D34989  21.220  17.080   3.960
 1458BOLB   C2D34990  21.010  17.080   4.360
 1458BOLB   C3D34991  21.020  17.230   4.780
 1458BOLB   C4D34992  20.920  17.370   5.230
 1459BOLB   NC134993  14.080  19.500  17.530
 1459BOLB   PO134994  14.190  19.870  17.260
 1459BOLB   GL134995  13.970  19.950  17.730
 1459BOLB   GL234996  13.690  20.100  17.710
 1459BOLB   C1A34997  13.800  20.240  18.180
 1459BOLB   C2A34998  13.810  20.520  18.490
 1459BOLB   C3A34999  13.860  20.800  18.830
 1459BOLB   C4A35000  13.710  21.030  19.250
 1459BOLB   C1B35001  13.430  20.430  17.870
 1459BOLB   C2B35002  13.220  20.710  18.060
 1459BOLB   C3B35003  12.920  20.940  18.240
 1459BOLB   C4B35004  12.570  21.100  18.350
 1459BOLB   NC235005  12.390  21.880  20.890
 1459BOLB   PO235006  12.100  21.480  20.790
 1459BOLB   GL335007  12.460  21.360  20.540
 1459BOLB   GL435008  12.580  21.100  20.630
 1459BOLB   C1C35009  12.410  21.230  20.130
 1459BOLB   C2C35010  12.800  21.260  19.920
 1459BOLB   C3C35011  13.080  21.450  19.630
 1459BOLB   C4C35012  13.350  21.340  19.250
 1459BOLB   C1D35013  12.880  20.930  20.350
 1459BOLB   C2D35014  13.100  20.810  20.040
 1459BOLB   C3D35015  13.210  20.480  19.890
 1459BOLB   C4D35016  13.590  20.290  19.950
 1460BOLB   NC135017  17.260   9.000   9.650
 1460BOLB   PO135018  17.310   8.560   9.530
 1460BOLB   GL135019  17.360   8.310   9.170
 1460BOLB   GL235020  17.630   8.070   9.210
 1460BOLB   C1A35021  17.180   8.040   8.780
 1460BOLB   C2A35022  17.260   7.600   8.580
 1460BOLB   C3A35023  17.150   7.230   8.340
 1460BOLB   C4A35024  17.050   6.840   8.060
 1460BOLB   C1B35025  17.620   7.680   8.950
 1460BOLB   C2B35026  17.540   7.320   9.000
 1460BOLB   C3B35027  17.300   7.020   8.870
 1460BOLB   C4B35028  16.930   6.900   8.660
 1460BOLB   NC235029  17.010   6.140   5.400
 1460BOLB   PO235030  16.600   6.430   5.390
 1460BOLB   GL335031  16.830   6.320   5.850
 1460BOLB   GL435032  17.100   6.470   5.880
 1460BOLB   C1C35033  16.880   6.260   6.300
 1460BOLB   C2C35034  16.730   6.380   6.760
 1460BOLB   C3C35035  16.800   6.530   7.210
 1460BOLB   C4C35036  17.010   6.730   7.620
 1460BOLB   C1D35037  17.250   6.650   6.240
 1460BOLB   C2D35038  17.610   6.720   6.560
 1460BOLB   C3D35039  17.620   6.630   7.120
 1460BOLB   C4D35040  17.490   6.900   7.480
 1461BOLB   NC135041  18.660  18.700   7.660
 1461BOLB   PO135042  18.350  18.920   7.390
 1461BOLB   GL135043  18.700  18.920   7.050
 1461BOLB   GL235044  18.880  18.800   7.180
 1461BOLB   C1A35045  18.720  19.110   6.700
 1461BOLB   C2A35046  18.810  19.220   6.350
 1461BOLB   C3A35047  18.490  19.150   6.040
 1461BOLB   C4A35048  18.240  19.350   5.660
 1461BOLB   C1B35049  19.200  19.020   6.890
 1461BOLB   C2B35050  19.360  19.020   6.590
 1461BOLB   C3B35051  19.320  19.160   6.210
 1461BOLB   C4B35052  19.100  19.140   5.840
 1461BOLB   NC235053  18.120  18.500   3.160
 1461BOLB   PO235054  18.020  18.160   3.280
 1461BOLB   GL335055  18.000  18.360   3.700
 1461BOLB   GL435056  17.770  18.570   3.780
 1461BOLB   C1C35057  17.940  18.440   4.220
 1461BOLB   C2C35058  18.080  18.670   4.570
 1461BOLB   C3C35059  18.170  18.980   4.870
 1461BOLB   C4C35060  18.160  19.260   5.250
 1461BOLB   C1D35061  17.990  18.850   3.890
 1461BOLB   C2D35062  18.170  19.050   4.270
 1461BOLB   C3D35063  18.380  19.320   4.550
 1461BOLB   C4D35064  18.300  19.610   4.910
 1462BOLB   NC135065  15.850   6.610  12.670
 1462BOLB   PO135066  15.960   6.680  12.240
 1462BOLB   GL135067  15.870   6.260  12.200
 1462BOLB   GL235068  16.080   6.040  12.160
 1462BOLB   C1A35069  15.730   5.760  12.270
 1462BOLB   C2A35070  15.370   5.550  12.070
 1462BOLB   C3A35071  15.310   5.250  11.750
 1462BOLB   C4A35072  15.260   4.890  11.610
 1462BOLB   C1B35073  16.020   5.820  11.840
 1462BOLB   C2B35074  15.880   5.650  11.610
 1462BOLB   C3B35075  15.730   5.310  11.380
 1462BOLB   C4B35076  15.440   5.070  11.220
 1462BOLB   NC235077  14.580   2.240  10.820
 1462BOLB   PO235078  14.830   2.600  10.810
 1462BOLB   GL335079  14.750   3.040  10.770
 1462BOLB   GL435080  15.010   3.210  10.510
 1462BOLB   C1C35081  14.890   3.450  10.910
 1462BOLB   C2C35082  14.940   3.800  11.140
 1462BOLB   C3C35083  14.910   4.200  11.270
 1462BOLB   C4C35084  15.070   4.490  11.560
 1462BOLB   C1D35085  15.400   3.480  10.360
 1462BOLB   C2D35086  15.750   3.680  10.500
 1462BOLB   C3D35087  16.020   3.920  10.780
 1462BOLB   C4D35088  15.990   4.380  10.920
 1463BOLB   NC135089  26.410   8.900  18.220
 1463BOLB   PO135090  26.470   9.260  18.540
 1463BOLB   GL135091  26.820   9.260  18.780
 1463BOLB   GL235092  27.060   9.320  18.710
 1463BOLB   C1A35093  26.950   9.310  19.240
 1463BOLB   C2A35094  26.900   9.440  19.700
 1463BOLB   C3A35095  26.820   9.220  20.200
 1463BOLB   C4A35096  27.030   8.750  20.140
 1463BOLB   C1B35097  27.360   9.240  18.960
 1463BOLB   C2B35098  27.400   8.890  19.110
 1463BOLB   C3B35099  27.420   8.430  18.890
 1463BOLB   C4B35100  27.530   8.350  18.460
 1463BOLB   NC235101  27.540   7.350  21.380
 1463BOLB   PO235102  27.240   7.340  21.770
 1463BOLB   GL335103  26.960   7.660  21.620
 1463BOLB   GL435104  26.620   7.540  21.620
 1463BOLB   C1C35105  26.790   8.070  21.530
 1463BOLB   C2C35106  26.820   8.350  21.200
 1463BOLB   C3C35107  26.850   8.430  20.810
 1463BOLB   C4C35108  26.980   8.390  20.380
 1463BOLB   C1D35109  26.430   7.780  21.280
 1463BOLB   C2D35110  26.410   8.030  20.900
 1463BOLB   C3D35111  26.590   8.030  20.500
 1463BOLB   C4D35112  26.620   8.120  20.160
 1464BOLB   NC135113  16.380   5.690  14.270
 1464BOLB   PO135114  16.230   5.360  14.200
 1464BOLB   GL135115  16.130   4.840  14.180
 1464BOLB   GL235116  16.440   4.600  14.130
 1464BOLB   C1A35117  15.960   4.410  14.050
 1464BOLB   C2A35118  16.080   4.020  14.190
 1464BOLB   C3A35119  16.060   3.540  14.150
 1464BOLB   C4A35120  16.310   3.170  14.030
 1464BOLB   C1B35121  16.380   4.280  13.810
 1464BOLB   C2B35122  16.380   3.920  13.560
 1464BOLB   C3B35123  16.550   3.800  13.170
 1464BOLB   C4B35124  16.660   3.430  12.930
 1464BOLB   NC235125  17.390   0.590  14.760
 1464BOLB   PO235126  17.450   0.830  14.390
 1464BOLB   GL335127  17.350   1.270  14.250
 1464BOLB   GL435128  17.360   1.280  13.960
 1464BOLB   C1C35129  17.150   1.770  14.150
 1464BOLB   C2C35130  17.140   2.160  14.210
 1464BOLB   C3C35131  16.750   2.440  14.220
 1464BOLB   C4C35132  16.480   2.750  13.950
 1464BOLB   C1D35133  17.610   1.670  14.140
 1464BOLB   C2D35134  17.930   1.840  14.430
 1464BOLB   C3D35135  17.960   2.260  14.360
 1464BOLB   C4D35136  18.060   2.560  14.190
 1465BOLB   NC135137  14.980  19.830   8.960
 1465BOLB   PO135138  15.390  20.300   8.920
 1465BOLB   GL135139  15.180  20.050   8.560
 1465BOLB   GL235140  14.810  20.150   8.570
 1465BOLB   C1A35141  15.040  19.900   8.210
 1465BOLB   C2A35142  14.840  19.860   7.780
 1465BOLB   C3A35143  14.820  20.030   7.450
 1465BOLB   C4A35144  14.830  20.230   6.990
 1465BOLB   C1B35145  14.750  20.340   8.120
 1465BOLB   C2B35146  14.550  20.610   7.800
 1465BOLB   C3B35147  14.540  20.970   7.610
 1465BOLB   C4B35148  14.390  21.390   7.510
 1465BOLB   NC235149  13.730  21.610   5.250
 1465BOLB   PO235150  13.940  21.330   5.020
 1465BOLB   GL335151  14.220  21.290   5.380
 1465BOLB   GL435152  14.570  21.430   5.420
 1465BOLB   C1C35153  14.300  21.330   5.850
 1465BOLB   C2C35154  14.500  21.050   6.120
 1465BOLB   C3C35155  14.530  20.710   6.330
 1465BOLB   C4C35156  14.740  20.360   6.630
 1465BOLB   C1D35157  14.700  21.060   5.660
 1465BOLB   C2D35158  14.960  20.880   6.090
 1465BOLB   C3D35159  15.100  20.530   6.290
 1465BOLB   C4D35160  15.370  20.190   6.480
 1466BOLB   NC135161  18.230   8.970   8.990
 1466BOLB   PO135162  18.490   9.270   8.720
 1466BOLB   GL135163  18.500   9.040   8.350
 1466BOLB   GL235164  18.290   8.950   8.360
 1466BOLB   C1A35165  18.600   8.950   7.930
 1466BOLB   C2A35166  18.490   8.770   7.590
 1466BOLB   C3A35167  18.410   8.670   7.220
 1466BOLB   C4A35168  18.320   8.370   6.940
 1466BOLB   C1B35169  18.240   8.570   8.070
 1466BOLB   C2B35170  18.170   8.350   7.750
 1466BOLB   C3B35171  18.110   8.030   7.370
 1466BOLB   C4B35172  17.840   7.680   7.210
 1466BOLB   NC235173  18.090   6.990   5.560
 1466BOLB   PO235174  17.920   6.540   5.590
 1466BOLB   GL335175  17.680   6.890   5.790
 1466BOLB   GL435176  17.370   6.890   5.810
 1466BOLB   C1C35177  17.710   7.110   6.230
 1466BOLB   C2C35178  17.740   7.460   6.500
 1466BOLB   C3C35179  18.110   7.530   6.770
 1466BOLB   C4C35180  18.120   7.910   6.910
 1466BOLB   C1D35181  17.310   7.400   6.000
 1466BOLB   C2D35182  17.390   7.780   6.060
 1466BOLB   C3D35183  17.170   8.130   6.270
 1466BOLB   C4D35184  16.820   8.360   6.420
 1467BOLB   NC135185  22.740  17.670   8.350
 1467BOLB   PO135186  22.740  17.790   7.890
 1467BOLB   GL135187  22.910  17.700   7.430
 1467BOLB   GL235188  23.150  17.830   7.350
 1467BOLB   C1A35189  23.080  17.450   7.010
 1467BOLB   C2A35190  23.190  17.660   6.590
 1467BOLB   C3A35191  23.310  17.890   6.160
 1467BOLB   C4A35192  23.500  18.050   5.830
 1467BOLB   C1B35193  23.360  17.920   7.020
 1467BOLB   C2B35194  23.140  18.140   6.690
 1467BOLB   C3B35195  22.880  18.120   6.470
 1467BOLB   C4B35196  22.760  17.660   6.310
 1467BOLB   NC235197  24.490  19.030   4.390
 1467BOLB   PO235198  24.520  19.450   4.590
 1467BOLB   GL335199  24.370  19.270   4.870
 1467BOLB   GL435200  24.090  19.030   4.720
 1467BOLB   C1C35201  24.240  19.280   5.200
 1467BOLB   C2C35202  23.780  19.200   5.160
 1467BOLB   C3C35203  23.800  18.780   5.360
 1467BOLB   C4C35204  23.700  18.490   5.660
 1467BOLB   C1D35205  23.890  18.600   4.810
 1467BOLB   C2D35206  23.490  18.540   4.960
 1467BOLB   C3D35207  23.290  18.430   5.330
 1467BOLB   C4D35208  23.080  18.050   5.510
 1468BOLB   NC135209  22.440  15.350   7.700
 1468BOLB   PO135210  22.770  15.490   7.440
 1468BOLB   GL135211  22.730  15.450   7.000
 1468BOLB   GL235212  23.010  15.310   6.950
 1468BOLB   C1A35213  22.950  15.650   6.610
 1468BOLB   C2A35214  23.210  15.660   6.160
 1468BOLB   C3A35215  23.280  15.660   5.690
 1468BOLB   C4A35216  23.140  15.300   5.420
 1468BOLB   C1B35217  23.440  15.380   7.060
 1468BOLB   C2B35218  23.740  15.360   6.800
 1468BOLB   C3B35219  24.040  15.320   6.500
 1468BOLB   C4B35220  24.160  15.340   6.130
 1468BOLB   NC235221  23.160  15.750   3.270
 1468BOLB   PO235222  23.190  15.370   3.040
 1468BOLB   GL335223  23.260  15.260   3.470
 1468BOLB   GL435224  23.030  15.530   3.700
 1468BOLB   C1C35225  23.400  15.350   3.960
 1468BOLB   C2C35226  23.080  15.320   4.250
 1468BOLB   C3C35227  22.930  15.250   4.770
 1468BOLB   C4C35228  22.910  15.440   5.160
 1468BOLB   C1D35229  22.740  15.370   3.840
 1468BOLB   C2D35230  22.610  15.160   4.240
 1468BOLB   C3D35231  22.360  15.280   4.570
 1468BOLB   C4D35232  22.050  15.100   4.850
 1469BOLB   NC135233  16.210   9.410   9.240
 1469BOLB   PO135234  15.990   9.000   9.490
 1469BOLB   GL135235  15.980   8.960   9.010
 1469BOLB   GL235236  16.190   9.220   8.800
 1469BOLB   C1A35237  15.660   8.860   8.730
 1469BOLB   C2A35238  15.420   8.760   8.360
 1469BOLB   C3A35239  15.190   8.650   8.100
 1469BOLB   C4A35240  14.790   8.540   7.940
 1469BOLB   C1B35241  16.110   9.050   8.450
 1469BOLB   C2B35242  16.050   8.870   8.050
 1469BOLB   C3B35243  16.220   8.640   7.770
 1469BOLB   C4B35244  16.460   8.330   7.760
 1469BOLB   NC235245  14.100   7.700   5.710
 1469BOLB   PO235246  13.800   7.980   5.880
 1469BOLB   GL335247  13.690   8.350   6.090
 1469BOLB   GL435248  13.770   8.630   6.050
 1469BOLB   C1C35249  13.670   8.510   6.570
 1469BOLB   C2C35250  13.860   8.550   6.960
 1469BOLB   C3C35251  14.060   8.690   7.320
 1469BOLB   C4C35252  14.450   8.860   7.630
 1469BOLB   C1D35253  13.870   8.960   6.310
 1469BOLB   C2D35254  14.050   9.190   6.450
 1469BOLB   C3D35255  14.270   9.370   6.790
 1469BOLB   C4D35256  14.550   9.560   6.980
 1470BOLB   NC135257  12.800  13.110  10.400
 1470BOLB   PO135258  12.650  13.250   9.980
 1470BOLB   GL135259  12.290  12.970   9.750
 1470BOLB   GL235260  12.280  12.680   9.600
 1470BOLB   C1A35261  11.900  13.020   9.550
 1470BOLB   C2A35262  11.520  12.810   9.420
 1470BOLB   C3A35263  11.180  12.540   9.280
 1470BOLB   C4A35264  10.930  12.210   8.990
 1470BOLB   C1B35265  11.980  12.680   9.220
 1470BOLB   C2B35266  11.550  12.620   8.880
 1470BOLB   C3B35267  11.160  12.750   8.800
 1470BOLB   C4B35268  10.690  12.640   8.970
 1470BOLB   NC235269   9.550  11.400   7.300
 1470BOLB   PO235270   9.310  11.160   7.490
 1470BOLB   GL335271   9.500  11.470   7.830
 1470BOLB   GL435272   9.730  11.290   7.980
 1470BOLB   C1C35273   9.880  11.760   7.800
 1470BOLB   C2C35274  10.280  11.790   8.040
 1470BOLB   C3C35275  10.560  11.880   8.380
 1470BOLB   C4C35276  10.780  11.950   8.740
 1470BOLB   C1D35277   9.800  11.670   8.270
 1470BOLB   C2D35278  10.100  11.870   8.570
 1470BOLB   C3D35279  10.290  11.820   9.010
 1470BOLB   C4D35280  10.340  11.800   9.410
 1471BOLB   NC135281  26.010  17.750   9.740
 1471BOLB   PO135282  26.320  17.670   9.460
 1471BOLB   GL135283  26.540  17.440   9.720
 1471BOLB   GL235284  26.680  17.810   9.740
 1471BOLB   C1A35285  26.900  17.220   9.820
 1471BOLB   C2A35286  27.250  17.350   9.860
 1471BOLB   C3A35287  27.730  17.450   9.800
 1471BOLB   C4A35288  28.130  17.310   9.650
 1471BOLB   C1B35289  27.020  17.550   9.420
 1471BOLB   C2B35290  27.370  17.730   9.140
 1471BOLB   C3B35291  27.400  17.880   8.670
 1471BOLB   C4B35292  27.430  18.150   8.360
 1471BOLB   NC235293  29.990  17.900   8.400
 1471BOLB   PO235294  30.240  17.990   8.780
 1471BOLB   GL335295  29.930  17.940   9.070
 1471BOLB   GL435296  30.030  18.060   9.450
 1471BOLB   C1C35297  29.680  17.730   9.180
 1471BOLB   C2C35298  29.290  17.610   9.250
 1471BOLB   C3C35299  28.920  17.370   9.240
 1471BOLB   C4C35300  28.560  17.370   9.490
 1471BOLB   C1D35301  29.960  18.140   9.870
 1471BOLB   C2D35302  29.750  18.040  10.230
 1471BOLB   C3D35303  29.540  18.060  10.630
 1471BOLB   C4D35304  29.290  18.140  10.810
 1472BOLB   NC135305  18.060  21.620   8.740
 1472BOLB   PO135306  18.100  21.230   8.470
 1472BOLB   GL135307  18.180  21.550   8.200
 1472BOLB   GL235308  18.410  21.820   8.380
 1472BOLB   C1A35309  17.940  21.830   7.890
 1472BOLB   C2A35310  17.810  22.140   7.640
 1472BOLB   C3A35311  17.800  22.550   7.470
 1472BOLB   C4A35312  17.680  22.950   7.180
 1472BOLB   C1B35313  18.320  22.160   8.150
 1472BOLB   C2B35314  18.190  22.460   7.760
 1472BOLB   C3B35315  18.280  22.730   7.450
 1472BOLB   C4B35316  18.150  22.960   7.110
 1472BOLB   NC235317  18.630  24.050   5.000
 1472BOLB   PO235318  18.260  23.790   5.110
 1472BOLB   GL335319  18.000  23.550   5.450
 1472BOLB   GL435320  18.200  23.270   5.660
 1472BOLB   C1C35321  17.740  23.380   5.770
 1472BOLB   C2C35322  17.630  23.130   6.120
 1472BOLB   C3C35323  17.820  22.960   6.390
 1472BOLB   C4C35324  17.800  23.020   6.760
 1472BOLB   C1D35325  17.940  22.880   5.810
 1472BOLB   C2D35326  17.810  22.620   6.020
 1472BOLB   C3D35327  17.680  22.340   6.290
 1472BOLB   C4D35328  17.490  22.200   6.620
 1473BOLB   NC135329  12.660   7.170  22.010
 1473BOLB   PO135330  13.040   6.860  21.990
 1473BOLB   GL135331  13.220   7.300  21.930
 1473BOLB   GL235332  13.030   7.410  21.750
 1473BOLB   C1A35333  13.490   7.620  21.850
 1473BOLB   C2A35334  13.680   7.730  21.450
 1473BOLB   C3A35335  13.970   7.810  21.170
 1473BOLB   C4A35336  14.350   7.850  20.830
 1473BOLB   C1B35337  13.170   7.360  21.370
 1473BOLB   C2B35338  13.410   7.270  21.000
 1473BOLB   C3B35339  13.440   7.240  20.500
 1473BOLB   C4B35340  13.410   7.620  20.140
 1473BOLB   NC235341  15.620   8.240  18.770
 1473BOLB   PO235342  15.910   8.250  19.150
 1473BOLB   GL335343  15.810   7.880  19.480
 1473BOLB   GL435344  15.890   7.580  19.580
 1473BOLB   C1C35345  15.670   7.890  19.920
 1473BOLB   C2C35346  15.450   7.830  20.290
 1473BOLB   C3C35347  15.170   7.810  20.640
 1473BOLB   C4C35348  14.750   7.880  20.840
 1473BOLB   C1D35349  15.750   7.330  19.990
 1473BOLB   C2D35350  15.590   7.150  20.320
 1473BOLB   C3D35351  15.660   7.030  20.750
 1473BOLB   C4D35352  16.120   6.840  20.850
 1474BOLB   NC135353  23.300   5.520  14.210
 1474BOLB   PO135354  23.280   5.600  13.810
 1474BOLB   GL135355  23.560   5.360  13.640
 1474BOLB   GL235356  23.480   5.340  13.330
 1474BOLB   C1A35357  23.690   5.070  13.920
 1474BOLB   C2A35358  23.940   4.760  13.730
 1474BOLB   C3A35359  24.230   4.560  13.460
 1474BOLB   C4A35360  24.650   4.410  13.410
 1474BOLB   C1B35361  23.720   4.970  13.340
 1474BOLB   C2B35362  23.840   4.620  13.050
 1474BOLB   C3B35363  24.140   4.310  12.900
 1474BOLB   C4B35364  24.420   4.470  12.600
 1474BOLB   NC235365  26.450   2.980  12.850
 1474BOLB   PO235366  26.420   2.850  13.260
 1474BOLB   GL335367  26.070   2.940  13.520
 1474BOLB   GL435368  25.910   2.790  13.750
 1474BOLB   C1C35369  25.900   3.360  13.440
 1474BOLB   C2C35370  25.650   3.720  13.400
 1474BOLB   C3C35371  25.210   3.940  13.300
 1474BOLB   C4C35372  24.920   4.240  13.190
 1474BOLB   C1D35373  25.510   2.930  13.520
 1474BOLB   C2D35374  25.300   3.120  13.190
 1474BOLB   C3D35375  25.140   3.050  12.770
 1474BOLB   C4D35376  24.730   2.870  12.560
 1475BOLB   NC135377  17.830   7.300  10.830
 1475BOLB   PO135378  18.130   7.010  10.810
 1475BOLB   GL135379  17.970   6.780  10.440
 1475BOLB   GL235380  17.760   6.600  10.440
 1475BOLB   C1A35381  17.920   6.850   9.950
 1475BOLB   C2A35382  17.700   6.680   9.680
 1475BOLB   C3A35383  17.430   6.320   9.480
 1475BOLB   C4A35384  17.110   6.110   9.350
 1475BOLB   C1B35385  17.590   6.360  10.100
 1475BOLB   C2B35386  17.390   5.970   9.850
 1475BOLB   C3B35387  17.250   5.660   9.530
 1475BOLB   C4B35388  16.980   5.380   9.290
 1475BOLB   NC235389  16.370   5.090   6.970
 1475BOLB   PO235390  16.620   5.540   7.000
 1475BOLB   GL335391  16.700   5.760   7.440
 1475BOLB   GL435392  16.890   6.060   7.600
 1475BOLB   C1C35393  16.680   5.620   7.870
 1475BOLB   C2C35394  16.680   5.820   8.240
 1475BOLB   C3C35395  16.830   5.980   8.570
 1475BOLB   C4C35396  17.050   5.950   8.970
 1475BOLB   C1D35397  16.590   6.360   7.750
 1475BOLB   C2D35398  16.560   6.710   8.030
 1475BOLB   C3D35399  16.640   7.020   8.210
 1475BOLB   C4D35400  16.720   7.320   8.570
 1476BOLB   NC135401  15.510   9.840   9.080
 1476BOLB   PO135402  15.730   9.400   9.140
 1476BOLB   GL135403  15.440   9.290   8.810
 1476BOLB   GL235404  15.280   8.950   8.970
 1476BOLB   C1A35405  15.180   9.230   8.490
 1476BOLB   C2A35406  14.810   9.090   8.190
 1476BOLB   C3A35407  14.420   9.050   8.150
 1476BOLB   C4A35408  14.040   8.960   7.910
 1476BOLB   C1B35409  14.990   8.820   8.680
 1476BOLB   C2B35410  14.730   8.680   8.400
 1476BOLB   C3B35411  14.370   8.510   8.260
 1476BOLB   C4B35412  14.300   8.450   7.830
 1476BOLB   NC235413  13.140   7.150   6.270
 1476BOLB   PO235414  12.930   7.190   6.580
 1476BOLB   GL335415  13.260   7.370   6.910
 1476BOLB   GL435416  13.240   7.130   7.240
 1476BOLB   C1C35417  13.380   7.700   7.150
 1476BOLB   C2C35418  13.450   7.950   7.470
 1476BOLB   C3C35419  13.370   8.330   7.770
 1476BOLB   C4C35420  13.750   8.610   7.920
 1476BOLB   C1D35421  13.150   7.120   7.710
 1476BOLB   C2D35422  13.360   6.850   8.110
 1476BOLB   C3D35423  13.560   6.930   8.560
 1476BOLB   C4D35424  13.760   6.850   8.990
 1477BOLB   NC135425  17.030  18.220   7.590
 1477BOLB   PO135426  16.750  18.430   7.850
 1477BOLB   GL135427  16.820  18.560   7.340
 1477BOLB   GL235428  16.920  18.300   7.080
 1477BOLB   C1A35429  16.740  18.790   6.970
 1477BOLB   C2A35430  16.890  19.020   6.630
 1477BOLB   C3A35431  16.870  18.990   6.110
 1477BOLB   C4A35432  16.860  19.040   5.650
 1477BOLB   C1B35433  16.820  18.360   6.700
 1477BOLB   C2B35434  16.800  18.410   6.260
 1477BOLB   C3B35435  16.660  18.610   5.870
 1477BOLB   C4B35436  16.400  18.950   5.820
 1477BOLB   NC235437  17.490  19.140   3.120
 1477BOLB   PO235438  17.100  19.340   3.330
 1477BOLB   GL335439  17.060  19.230   3.720
 1477BOLB   GL435440  17.210  19.600   3.760
 1477BOLB   C1C35441  17.220  19.250   4.100
 1477BOLB   C2C35442  17.110  19.290   4.440
 1477BOLB   C3C35443  17.040  19.130   4.820
 1477BOLB   C4C35444  16.900  19.190   5.290
 1477BOLB   C1D35445  16.810  19.560   4.070
 1477BOLB   C2D35446  16.630  19.310   4.400
 1477BOLB   C3D35447  16.470  19.130   4.820
 1477BOLB   C4D35448  16.300  18.900   5.260
 1478BOLB   NC135449  19.460  18.670   7.420
 1478BOLB   PO135450  19.660  19.020   7.520
 1478BOLB   GL135451  19.810  19.090   7.140
 1478BOLB   GL235452  19.900  19.410   7.170
 1478BOLB   C1A35453  19.850  19.060   6.710
 1478BOLB   C2A35454  20.090  19.150   6.280
 1478BOLB   C3A35455  20.000  19.120   5.760
 1478BOLB   C4A35456  19.870  19.120   5.390
 1478BOLB   C1B35457  19.920  19.760   6.950
 1478BOLB   C2B35458  20.010  20.080   6.690
 1478BOLB   C3B35459  20.280  20.320   6.380
 1478BOLB   C4B35460  20.710  20.620   6.370
 1478BOLB   NC235461  21.450  18.910   3.500
 1478BOLB   PO235462  21.430  18.530   3.600
 1478BOLB   GL335463  21.240  18.520   3.950
 1478BOLB   GL435464  21.280  18.830   3.990
 1478BOLB   C1C35465  21.010  18.450   4.320
 1478BOLB   C2C35466  20.800  18.640   4.630
 1478BOLB   C3C35467  20.420  18.770   4.840
 1478BOLB   C4C35468  20.050  18.970   4.990
 1478BOLB   C1D35469  21.270  18.810   4.470
 1478BOLB   C2D35470  21.310  18.710   4.940
 1478BOLB   C3D35471  21.600  18.430   5.080
 1478BOLB   C4D35472  21.960  18.340   5.370
 1479BOLB   NC135473  18.440   5.110  15.000
 1479BOLB   PO135474  18.800   4.710  14.930
 1479BOLB   GL135475  18.600   4.310  14.990
 1479BOLB   GL235476  18.890   4.190  14.790
 1479BOLB   C1A35477  18.600   3.840  14.990
 1479BOLB   C2A35478  18.780   3.440  15.060
 1479BOLB   C3A35479  18.910   3.040  15.230
 1479BOLB   C4A35480  18.980   2.750  15.430
 1479BOLB   C1B35481  19.240   4.070  14.480
 1479BOLB   C2B35482  19.110   3.680  14.190
 1479BOLB   C3B35483  19.010   3.310  14.310
 1479BOLB   C4B35484  19.430   3.070  14.460
 1479BOLB   NC235485  19.920   1.100  16.720
 1479BOLB   PO235486  20.440   1.100  16.630
 1479BOLB   GL335487  20.170   1.510  16.540
 1479BOLB   GL435488  20.270   1.580  16.840
 1479BOLB   C1C35489  19.940   1.680  16.170
 1479BOLB   C2C35490  19.690   1.940  15.820
 1479BOLB   C3C35491  19.400   2.190  15.890
 1479BOLB   C4C35492  19.030   2.340  15.570
 1479BOLB   C1D35493  20.380   2.000  16.550
 1479BOLB   C2D35494  20.180   2.240  16.300
 1479BOLB   C3D35495  20.290   2.530  16.090
 1479BOLB   C4D35496  20.460   2.880  15.880
 1480BOLB   NC135497  18.630  18.340   7.210
 1480BOLB   PO135498  18.270  18.400   7.430
 1480BOLB   GL135499  18.190  18.480   6.970
 1480BOLB   GL235500  18.120  18.820   6.830
 1480BOLB   C1A35501  18.190  18.460   6.500
 1480BOLB   C2A35502  18.270  18.690   6.100
 1480BOLB   C3A35503  18.140  18.840   5.700
 1480BOLB   C4A35504  18.380  18.800   5.330
 1480BOLB   C1B35505  18.270  19.160   6.500
 1480BOLB   C2B35506  18.220  19.530   6.150
 1480BOLB   C3B35507  18.360  19.910   5.900
 1480BOLB   C4B35508  18.150  20.320   5.900
 1480BOLB   NC235509  18.410  17.650   3.190
 1480BOLB   PO235510  18.520  18.180   3.210
 1480BOLB   GL335511  18.390  18.100   3.590
 1480BOLB   GL435512  18.270  17.850   3.690
 1480BOLB   C1C35513  18.460  18.250   3.950
 1480BOLB   C2C35514  18.400  18.310   4.470
 1480BOLB   C3C35515  18.370  18.190   4.820
 1480BOLB   C4C35516  18.560  18.500   5.090
 1480BOLB   C1D35517  18.570  17.690   3.950
 1480BOLB   C2D35518  18.440  17.350   4.200
 1480BOLB   C3D35519  18.620  17.070   4.380
 1480BOLB   C4D35520  18.950  17.120   4.740
 1481BOLB   NC135521  10.310  14.690  16.050
 1481BOLB   PO135522  10.670  14.750  16.320
 1481BOLB   GL135523  10.410  14.920  16.590
 1481BOLB   GL235524  10.170  14.670  16.620
 1481BOLB   C1A35525  10.110  15.130  16.860
 1481BOLB   C2A35526   9.780  14.910  16.990
 1481BOLB   C3A35527   9.570  14.860  17.410
 1481BOLB   C4A35528   9.330  14.590  17.650
 1481BOLB   C1B35529  10.250  14.640  17.030
 1481BOLB   C2B35530  10.000  14.460  17.250
 1481BOLB   C3B35531   9.560  14.370  17.290
 1481BOLB   C4B35532   9.410  14.040  17.260
 1481BOLB   NC235533   7.680  13.840  18.970
 1481BOLB   PO235534   7.490  13.940  18.510
 1481BOLB   GL335535   7.740  13.770  18.330
 1481BOLB   GL435536   7.720  13.740  17.920
 1481BOLB   C1C35537   8.100  14.000  18.140
 1481BOLB   C2C35538   8.530  13.800  18.010
 1481BOLB   C3C35539   8.900  13.750  17.740
 1481BOLB   C4C35540   9.070  14.170  17.620
 1481BOLB   C1D35541   8.120  13.810  17.660
 1481BOLB   C2D35542   8.440  13.620  17.380
 1481BOLB   C3D35543   8.760  13.470  17.280
 1481BOLB   C4D35544   9.210  13.590  17.380
 1482BOLB   NC135545  12.520  21.360  13.280
 1482BOLB   PO135546  12.300  21.080  12.990
 1482BOLB   GL135547  11.940  21.340  13.170
 1482BOLB   GL235548  12.080  21.620  13.040
 1482BOLB   C1A35549  11.550  21.270  13.100
 1482BOLB   C2A35550  11.210  21.260  13.340
 1482BOLB   C3A35551  10.750  21.150  13.300
 1482BOLB   C4A35552  10.320  21.320  13.090
 1482BOLB   C1B35553  11.740  21.630  12.750
 1482BOLB   C2B35554  11.420  21.650  12.580
 1482BOLB   C3B35555  10.960  21.500  12.440
 1482BOLB   C4B35556  10.550  21.460  12.530
 1482BOLB   NC235557   8.180  21.640  11.700
 1482BOLB   PO235558   8.570  21.750  11.830
 1482BOLB   GL335559   8.920  21.520  11.740
 1482BOLB   GL435560   8.760  21.340  11.510
 1482BOLB   C1C35561   9.360  21.350  11.790
 1482BOLB   C2C35562   9.680  21.200  12.050
 1482BOLB   C3C35563   9.690  21.240  12.470
 1482BOLB   C4C35564  10.080  21.300  12.780
 1482BOLB   C1D35565   8.950  21.090  11.430
 1482BOLB   C2D35566   9.300  20.910  11.470
 1482BOLB   C3D35567   9.640  21.160  11.340
 1482BOLB   C4D35568  10.000  21.120  11.070
 1483BOLB   NC135569  26.180  16.010  10.190
 1483BOLB   PO135570  26.550  15.860  10.050
 1483BOLB   GL135571  26.950  15.770   9.920
 1483BOLB   GL235572  27.010  15.960   9.590
 1483BOLB   C1A35573  27.450  15.870   9.960
 1483BOLB   C2A35574  27.720  15.700   9.710
 1483BOLB   C3A35575  28.120  15.370   9.570
 1483BOLB   C4A35576  28.420  15.270   9.330
 1483BOLB   C1B35577  27.400  16.140   9.460
 1483BOLB   C2B35578  27.920  16.100   9.400
 1483BOLB   C3B35579  28.250  16.250   9.170
 1483BOLB   C4B35580  28.450  16.190   8.800
 1483BOLB   NC235581  30.770  15.610   9.530
 1483BOLB   PO235582  30.840  15.760   9.140
 1483BOLB   GL335583  30.340  15.770   9.040
 1483BOLB   GL435584  30.230  15.530   8.830
 1483BOLB   C1C35585  29.860  15.840   8.910
 1483BOLB   C2C35586  29.540  15.660   9.050
 1483BOLB   C3C35587  29.280  15.300   9.240
 1483BOLB   C4C35588  28.810  15.270   9.290
 1483BOLB   C1D35589  30.300  15.110   8.900
 1483BOLB   C2D35590  30.060  14.620   8.920
 1483BOLB   C3D35591  30.340  14.350   9.260
 1483BOLB   C4D35592  30.120  14.030   9.440
 1484BOLB   NC135593  23.960   8.000  10.300
 1484BOLB   PO135594  24.000   7.640  10.060
 1484BOLB   GL135595  24.050   7.490   9.700
 1484BOLB   GL235596  24.080   7.760   9.480
 1484BOLB   C1A35597  24.280   7.190   9.330
 1484BOLB   C2A35598  24.690   6.900   9.220
 1484BOLB   C3A35599  24.900   6.820   8.720
 1484BOLB   C4A35600  25.190   6.560   8.690
 1484BOLB   C1B35601  23.900   7.750   9.010
 1484BOLB   C2B35602  23.890   7.630   8.600
 1484BOLB   C3B35603  24.020   7.350   8.370
 1484BOLB   C4B35604  24.260   7.050   8.120
 1484BOLB   NC235605  25.490   4.040   8.150
 1484BOLB   PO235606  25.780   4.190   8.330
 1484BOLB   GL335607  25.560   4.610   8.240
 1484BOLB   GL435608  25.330   4.460   8.320
 1484BOLB   C1C35609  25.530   5.010   8.240
 1484BOLB   C2C35610  25.460   5.510   8.230
 1484BOLB   C3C35611  25.610   5.890   8.630
 1484BOLB   C4C35612  25.470   6.200   8.610
 1484BOLB   C1D35613  25.120   4.820   8.430
 1484BOLB   C2D35614  25.440   5.120   8.690
 1484BOLB   C3D35615  25.240   5.490   8.920
 1484BOLB   C4D35616  24.880   5.540   9.210
 1485BOLB   NC135617  11.690  16.970  11.760
 1485BOLB   PO135618  11.320  17.160  11.370
 1485BOLB   GL135619  10.770  17.010  11.340
 1485BOLB   GL235620  10.590  17.150  11.480
 1485BOLB   C1A35621  10.480  17.100  10.960
 1485BOLB   C2A35622  10.190  16.960  10.690
 1485BOLB   C3A35623  10.000  16.630  10.470
 1485BOLB   C4A35624   9.710  16.540  10.260
 1485BOLB   C1B35625  10.130  17.330  11.370
 1485BOLB   C2B35626   9.900  17.570  11.160
 1485BOLB   C3B35627   9.710  17.550  10.850
 1485BOLB   C4B35628   9.360  17.440  10.640
 1485BOLB   NC235629   7.840  17.770   9.070
 1485BOLB   PO235630   7.860  17.790   9.420
 1485BOLB   GL335631   8.280  17.870   9.720
 1485BOLB   GL435632   8.630  18.120   9.700
 1485BOLB   C1C35633   8.650  17.560   9.780
 1485BOLB   C2C35634   9.000  17.300   9.890
 1485BOLB   C3C35635   9.280  17.040   9.760
 1485BOLB   C4C35636   9.490  16.810  10.020
 1485BOLB   C1D35637   9.040  18.050   9.680
 1485BOLB   C2D35638   9.310  17.660   9.730
 1485BOLB   C3D35639   9.580  17.420   9.410
 1485BOLB   C4D35640   9.840  17.170   9.390
 1486BOLB   NC135641  12.920  11.380  10.070
 1486BOLB   PO135642  12.880  11.630   9.820
 1486BOLB   GL135643  12.730  11.130   9.620
 1486BOLB   GL235644  12.940  10.970   9.420
 1486BOLB   C1A35645  12.350  10.900   9.420
 1486BOLB   C2A35646  12.230  10.780   8.930
 1486BOLB   C3A35647  11.970  10.530   8.710
 1486BOLB   C4A35648  11.770  10.590   8.410
 1486BOLB   C1B35649  12.640  11.010   8.980
 1486BOLB   C2B35650  12.270  11.250   8.590
 1486BOLB   C3B35651  12.070  11.370   8.140
 1486BOLB   C4B35652  11.670  11.550   7.940
 1486BOLB   NC235653   9.820  10.020   7.330
 1486BOLB   PO235654   9.800  10.410   7.520
 1486BOLB   GL335655  10.200  10.540   7.590
 1486BOLB   GL435656  10.360  10.210   7.720
 1486BOLB   C1C35657  10.390  10.880   7.620
 1486BOLB   C2C35658  10.720  11.010   7.900
 1486BOLB   C3C35659  10.980  11.000   8.210
 1486BOLB   C4C35660  11.360  10.730   8.310
 1486BOLB   C1D35661  10.620  10.470   7.820
 1486BOLB   C2D35662  10.710  10.570   8.200
 1486BOLB   C3D35663  10.900  10.720   8.550
 1486BOLB   C4D35664  11.190  11.080   8.710
 1487BOLB   NC135665  17.820  10.200   8.130
 1487BOLB   PO135666  17.380  10.160   8.440
 1487BOLB   GL135667  17.360   9.940   8.020
 1487BOLB   GL235668  17.480  10.150   7.740
 1487BOLB   C1A35669  17.450   9.650   7.820
 1487BOLB   C2A35670  17.170   9.430   7.610
 1487BOLB   C3A35671  17.280   9.360   7.300
 1487BOLB   C4A35672  17.060   9.240   6.940
 1487BOLB   C1B35673  17.370   9.920   7.400
 1487BOLB   C2B35674  17.390   9.680   6.950
 1487BOLB   C3B35675  17.470   9.620   6.480
 1487BOLB   C4B35676  17.550   9.290   6.180
 1487BOLB   NC235677  16.400   8.690   4.430
 1487BOLB   PO235678  16.070   8.850   4.620
 1487BOLB   GL335679  15.970   8.980   5.000
 1487BOLB   GL435680  15.880   9.370   4.990
 1487BOLB   C1C35681  16.250   9.070   5.480
 1487BOLB   C2C35682  16.350   9.030   5.910
 1487BOLB   C3C35683  16.460   9.200   6.320
 1487BOLB   C4C35684  16.690   9.260   6.740
 1487BOLB   C1D35685  15.760   9.350   5.320
 1487BOLB   C2D35686  16.040   9.640   5.530
 1487BOLB   C3D35687  16.390   9.500   5.630
 1487BOLB   C4D35688  16.750   9.390   5.540
 1488BOLB   NC135689  13.040  17.160   8.940
 1488BOLB   PO135690  13.020  16.770   8.900
 1488BOLB   GL135691  13.030  16.890   8.500
 1488BOLB   GL235692  12.750  16.960   8.440
 1488BOLB   C1A35693  13.180  17.230   8.110
 1488BOLB   C2A35694  13.420  17.580   7.920
 1488BOLB   C3A35695  13.100  17.790   7.530
 1488BOLB   C4A35696  13.030  17.700   7.120
 1488BOLB   C1B35697  12.640  16.880   7.990
 1488BOLB   C2B35698  12.290  16.840   7.740
 1488BOLB   C3B35699  12.250  16.760   7.300
 1488BOLB   C4B35700  12.070  16.620   6.850
 1488BOLB   NC235701  11.530  17.900   4.870
 1488BOLB   PO235702  11.520  17.520   5.210
 1488BOLB   GL335703  11.880  17.410   5.450
 1488BOLB   GL435704  12.030  17.150   5.650
 1488BOLB   C1C35705  12.090  17.610   5.800
 1488BOLB   C2C35706  12.350  17.670   6.090
 1488BOLB   C3C35707  12.680  17.690   6.470
 1488BOLB   C4C35708  13.000  17.710   6.770
 1488BOLB   C1D35709  12.140  17.050   6.010
 1488BOLB   C2D35710  12.340  16.760   6.380
 1488BOLB   C3D35711  12.410  16.410   6.380
 1488BOLB   C4D35712  12.640  16.100   6.320
 1489BOLB   NC135713  23.010  14.990   7.380
 1489BOLB   PO135714  22.790  14.660   7.520
 1489BOLB   GL135715  22.970  14.650   7.010
 1489BOLB   GL235716  22.780  14.830   6.890
 1489BOLB   C1A35717  23.090  14.540   6.600
 1489BOLB   C2A35718  23.020  14.820   6.250
 1489BOLB   C3A35719  22.940  14.900   5.770
 1489BOLB   C4A35720  22.950  14.800   5.280
 1489BOLB   C1B35721  23.260  15.010   6.730
 1489BOLB   C2B35722  23.380  15.280   6.380
 1489BOLB   C3B35723  23.580  15.210   5.890
 1489BOLB   C4B35724  23.650  15.340   5.590
 1489BOLB   NC235725  22.930  14.910   3.040
 1489BOLB   PO235726  23.300  14.840   3.230
 1489BOLB   GL335727  23.010  14.810   3.500
 1489BOLB   GL435728  22.640  14.950   3.590
 1489BOLB   C1C35729  23.180  14.820   3.850
 1489BOLB   C2C35730  23.220  14.840   4.350
 1489BOLB   C3C35731  23.430  14.870   4.630
 1489BOLB   C4C35732  23.230  14.830   5.020
 1489BOLB   C1D35733  22.640  14.780   3.920
 1489BOLB   C2D35734  22.660  14.600   4.320
 1489BOLB   C3D35735  22.490  14.790   4.650
 1489BOLB   C4D35736  22.550  14.840   5.050
 1490BOLB   NC135737  16.330   5.850  16.730
 1490BOLB   PO135738  15.940   5.550  16.690
 1490BOLB   GL135739  15.890   5.040  16.630
 1490BOLB   GL235740  16.170   4.860  16.780
 1490BOLB   C1A35741  15.760   4.600  16.520
 1490BOLB   C2A35742  15.750   4.250  16.270
 1490BOLB   C3A35743  15.850   3.860  15.950
 1490BOLB   C4A35744  15.530   3.600  15.540
 1490BOLB   C1B35745  15.760   4.820  17.090
 1490BOLB   C2B35746  15.510   4.470  16.960
 1490BOLB   C3B35747  15.040   4.450  17.190
 1490BOLB   C4B35748  14.820   4.310  17.590
 1490BOLB   NC235749  14.200   1.710  15.640
 1490BOLB   PO235750  14.310   1.420  15.310
 1490BOLB   GL335751  14.610   1.800  15.460
 1490BOLB   GL435752  14.620   1.960  15.600
 1490BOLB   C1C35753  14.940   2.190  15.250
 1490BOLB   C2C35754  15.180   2.480  15.260
 1490BOLB   C3C35755  15.280   2.850  15.480
 1490BOLB   C4C35756  15.350   3.290  15.400
 1490BOLB   C1D35757  14.480   2.420  15.590
 1490BOLB   C2D35758  14.850   2.670  15.750
 1490BOLB   C3D35759  15.080   3.010  15.890
 1490BOLB   C4D35760  15.270   3.350  15.980
 1491BOLB   NC135761  28.860   9.010  21.120
 1491BOLB   PO135762  28.580   9.320  21.250
 1491BOLB   GL135763  28.220   9.240  21.360
 1491BOLB   GL235764  28.080   9.290  21.600
 1491BOLB   C1A35765  27.870   9.250  21.110
 1491BOLB   C2A35766  27.490   9.110  20.860
 1491BOLB   C3A35767  27.400   9.040  20.430
 1491BOLB   C4A35768  27.350   9.240  20.080
 1491BOLB   C1B35769  27.710   9.450  21.520
 1491BOLB   C2B35770  27.570   9.590  21.040
 1491BOLB   C3B35771  27.560   9.650  20.570
 1491BOLB   C4B35772  27.530   9.920  20.190
 1491BOLB   NC235773  28.860  10.330  21.530
 1491BOLB   PO235774  28.470  10.130  21.610
 1491BOLB   GL335775  28.400   9.900  21.220
 1491BOLB   GL435776  28.140   9.730  21.190
 1491BOLB   C1C35777  28.420  10.000  20.750
 1491BOLB   C2C35778  28.310  10.030  20.250
 1491BOLB   C3C35779  28.030   9.920  19.900
 1491BOLB   C4C35780  27.590   9.500  19.840
 1491BOLB   C1D35781  28.020   9.610  20.750
 1491BOLB   C2D35782  27.930   9.540  20.260
 1491BOLB   C3D35783  27.870   9.080  20.090
 1491BOLB   C4D35784  28.010   8.730  19.910
 1492BOLB   NC135785  15.080   9.330   9.850
 1492BOLB   PO135786  14.910   9.050  10.040
 1492BOLB   GL135787  15.010   8.780   9.630
 1492BOLB   GL235788  14.950   8.770   9.330
 1492BOLB   C1A35789  15.070   8.330   9.670
 1492BOLB   C2A35790  14.900   7.930   9.480
 1492BOLB   C3A35791  14.820   7.610   9.300
 1492BOLB   C4A35792  14.490   7.400   9.130
 1492BOLB   C1B35793  15.040   8.470   9.190
 1492BOLB   C2B35794  15.020   8.120   8.990
 1492BOLB   C3B35795  14.800   7.850   8.880
 1492BOLB   C4B35796  14.570   7.470   8.640
 1492BOLB   NC235797  13.000   6.460   7.790
 1492BOLB   PO235798  13.180   6.100   7.490
 1492BOLB   GL335799  13.540   6.350   7.720
 1492BOLB   GL435800  13.440   6.680   7.610
 1492BOLB   C1C35801  13.780   6.670   7.960
 1492BOLB   C2C35802  14.080   6.930   8.180
 1492BOLB   C3C35803  14.080   7.200   8.490
 1492BOLB   C4C35804  14.140   7.260   8.870
 1492BOLB   C1D35805  13.620   7.050   7.680
 1492BOLB   C2D35806  13.670   7.250   8.060
 1492BOLB   C3D35807  13.330   7.390   8.120
 1492BOLB   C4D35808  13.050   7.640   8.250
 1493BOLB   NC135809  25.610   7.070  13.500
 1493BOLB   PO135810  25.500   7.150  13.080
 1493BOLB   GL135811  25.880   6.850  13.030
 1493BOLB   GL235812  25.960   6.740  13.400
 1493BOLB   C1A35813  26.130   6.600  12.760
 1493BOLB   C2A35814  26.520   6.650  12.520
 1493BOLB   C3A35815  26.920   6.540  12.360
 1493BOLB   C4A35816  26.880   6.160  12.000
 1493BOLB   C1B35817  26.330   6.520  13.250
 1493BOLB   C2B35818  26.670   6.320  12.880
 1493BOLB   C3B35819  27.020   6.090  12.840
 1493BOLB   C4B35820  27.510   5.980  12.910
 1493BOLB   NC235821  28.240   5.100  11.640
 1493BOLB   PO235822  28.410   5.030  11.190
 1493BOLB   GL335823  28.000   5.130  11.130
 1493BOLB   GL435824  28.040   5.360  10.910
 1493BOLB   C1C35825  27.630   5.200  11.270
 1493BOLB   C2C35826  27.610   5.300  11.770
 1493BOLB   C3C35827  27.170   5.450  12.110
 1493BOLB   C4C35828  26.940   5.760  12.110
 1493BOLB   C1D35829  27.870   5.680  11.270
 1493BOLB   C2D35830  27.980   5.700  11.740
 1493BOLB   C3D35831  28.250   5.850  12.020
 1493BOLB   C4D35832  28.260   6.020  12.390
 1494BOLB   NC135833  13.320   8.370  11.420
 1494BOLB   PO135834  13.520   8.260  11.050
 1494BOLB   GL135835  13.300   8.380  10.680
 1494BOLB   GL235836  13.300   8.320  10.260
 1494BOLB   C1A35837  13.010   7.940  10.540
 1494BOLB   C2A35838  12.780   7.530  10.690
 1494BOLB   C3A35839  12.410   7.340  10.880
 1494BOLB   C4A35840  12.170   6.930  10.810
 1494BOLB   C1B35841  12.990   8.180   9.990
 1494BOLB   C2B35842  12.630   8.080   9.710
 1494BOLB   C3B35843  12.150   8.010   9.440
 1494BOLB   C4B35844  11.700   8.130   9.530
 1494BOLB   NC235845  11.130   6.780   8.600
 1494BOLB   PO235846  11.460   6.460   8.600
 1494BOLB   GL335847  11.690   6.320   8.910
 1494BOLB   GL435848  12.030   6.300   8.740
 1494BOLB   C1C35849  11.890   6.450   9.290
 1494BOLB   C2C35850  11.970   6.480   9.770
 1494BOLB   C3C35851  12.050   6.190  10.310
 1494BOLB   C4C35852  12.130   6.540  10.600
 1494BOLB   C1D35853  12.360   6.560   8.880
 1494BOLB   C2D35854  12.700   6.850   8.900
 1494BOLB   C3D35855  12.860   7.300   9.060
 1494BOLB   C4D35856  13.100   7.490   9.090
 1495BOLB   NC135857  23.880   7.030  12.080
 1495BOLB   PO135858  24.230   6.790  12.310
 1495BOLB   GL135859  24.530   6.390  12.190
 1495BOLB   GL235860  24.470   6.150  12.480
 1495BOLB   C1A35861  24.810   6.160  12.130
 1495BOLB   C2A35862  24.960   5.890  12.090
 1495BOLB   C3A35863  25.150   5.510  11.970
 1495BOLB   C4A35864  25.480   5.250  11.840
 1495BOLB   C1B35865  24.460   5.840  12.180
 1495BOLB   C2B35866  24.580   5.470  12.060
 1495BOLB   C3B35867  24.890   5.160  12.100
 1495BOLB   C4B35868  25.230   4.870  12.000
 1495BOLB   NC235869  26.640   3.670  10.300
 1495BOLB   PO235870  26.170   3.710  10.240
 1495BOLB   GL335871  26.030   3.980  10.450
 1495BOLB   GL435872  26.160   3.980  10.730
 1495BOLB   C1C35873  25.750   4.300  10.630
 1495BOLB   C2C35874  26.080   4.580  10.980
 1495BOLB   C3C35875  26.020   4.800  11.370
 1495BOLB   C4C35876  25.720   5.060  11.530
 1495BOLB   C1D35877  25.830   3.830  10.930
 1495BOLB   C2D35878  25.550   3.800  11.320
 1495BOLB   C3D35879  25.300   3.700  11.640
 1495BOLB   C4D35880  25.310   3.830  12.080
 1496BOLB   NC135881  29.610  21.070  10.170
 1496BOLB   PO135882  29.900  20.890  10.500
 1496BOLB   GL135883  29.610  21.110  10.680
 1496BOLB   GL235884  29.360  20.900  10.610
 1496BOLB   C1A35885  29.200  21.390  10.610
 1496BOLB   C2A35886  28.860  21.370  10.480
 1496BOLB   C3A35887  28.460  21.220  10.580
 1496BOLB   C4A35888  28.510  20.740  10.490
 1496BOLB   C1B35889  28.890  20.900  10.760
 1496BOLB   C2B35890  28.520  20.790  10.990
 1496BOLB   C3B35891  28.020  20.980  11.110
 1496BOLB   C4B35892  27.630  20.740  10.940
 1496BOLB   NC235893  30.040  19.550   9.460
 1496BOLB   PO235894  30.190  19.900   9.690
 1496BOLB   GL335895  29.860  19.710   9.890
 1496BOLB   GL435896  29.900  19.580  10.270
 1496BOLB   C1C35897  29.420  19.880   9.910
 1496BOLB   C2C35898  29.130  20.040  10.250
 1496BOLB   C3C35899  28.840  19.990  10.480
 1496BOLB   C4C35900  28.520  20.310  10.600
 1496BOLB   C1D35901  29.770  19.540  10.650
 1496BOLB   C2D35902  29.440  19.710  10.900
 1496BOLB   C3D35903  28.970  19.630  10.860
 1496BOLB   C4D35904  28.590  19.500  11.240
 1497BOLB   NC135905   9.940  16.110  14.190
 1497BOLB   PO135906   9.980  15.700  14.170
 1497BOLB   GL135907   9.560  15.650  14.050
 1497BOLB   GL235908   9.400  15.930  14.250
 1497BOLB   C1A35909   9.180  15.490  14.060
 1497BOLB   C2A35910   8.800  15.540  14.060
 1497BOLB   C3A35911   8.500  15.780  14.090
 1497BOLB   C4A35912   8.060  15.850  14.060
 1497BOLB   C1B35913   8.980  16.080  14.230
 1497BOLB   C2B35914   8.620  16.230  14.520
 1497BOLB   C3B35915   8.330  16.440  14.800
 1497BOLB   C4B35916   7.970  16.180  14.890
 1497BOLB   NC235917   5.870  15.390  15.060
 1497BOLB   PO235918   6.010  14.860  14.930
 1497BOLB   GL335919   6.330  15.150  14.870
 1497BOLB   GL435920   6.230  15.330  14.650
 1497BOLB   C1C35921   6.780  15.140  14.850
 1497BOLB   C2C35922   7.050  15.460  14.720
 1497BOLB   C3C35923   7.330  15.510  14.410
 1497BOLB   C4C35924   7.700  15.580  14.180
 1497BOLB   C1D35925   6.610  15.550  14.570
 1497BOLB   C2D35926   6.910  15.840  14.370
 1497BOLB   C3D35927   7.250  16.020  14.480
 1497BOLB   C4D35928   7.720  15.990  14.490
 1498BOLB   NC135929  13.910  21.370  14.930
 1498BOLB   PO135930  13.510  21.330  15.200
 1498BOLB   GL135931  13.230  21.480  15.290
 1498BOLB   GL235932  13.250  21.750  15.160
 1498BOLB   C1A35933  12.890  21.790  15.560
 1498BOLB   C2A35934  12.630  22.110  15.530
 1498BOLB   C3A35935  12.470  22.590  15.590
 1498BOLB   C4A35936  12.460  22.970  15.320
 1498BOLB   C1B35937  13.100  22.180  15.440
 1498BOLB   C2B35938  12.970  22.620  15.470
 1498BOLB   C3B35939  12.830  22.990  15.630
 1498BOLB   C4B35940  12.850  23.360  15.840
 1498BOLB   NC235941  11.380  24.820  16.280
 1498BOLB   PO235942  11.050  24.460  16.320
 1498BOLB   GL335943  11.360  24.360  16.020
 1498BOLB   GL435944  11.320  24.350  15.670
 1498BOLB   C1C35945  11.760  24.160  15.950
 1498BOLB   C2C35946  11.880  23.890  15.700
 1498BOLB   C3C35947  12.190  23.830  15.350
 1498BOLB   C4C35948  12.470  23.450  15.320
 1498BOLB   C1D35949  11.330  23.850  15.690
 1498BOLB   C2D35950  11.230  23.400  15.720
 1498BOLB   C3D35951  11.540  23.070  15.610
 1498BOLB   C4D35952  11.780  22.800  15.190
 1499BOLB   NC135953  14.040  20.670  10.570
 1499BOLB   PO135954  13.600  20.710  10.490
 1499BOLB   GL135955  13.210  20.680  10.230
 1499BOLB   GL235956  12.930  20.700  10.440
 1499BOLB   C1A35957  13.130  20.980  10.050
 1499BOLB   C2A35958  12.800  21.220   9.770
 1499BOLB   C3A35959  12.840  21.360   9.410
 1499BOLB   C4A35960  12.640  21.560   9.020
 1499BOLB   C1B35961  12.640  20.960  10.190
 1499BOLB   C2B35962  12.520  21.390  10.180
 1499BOLB   C3B35963  12.150  21.470  10.240
 1499BOLB   C4B35964  11.750  21.250  10.230
 1499BOLB   NC235965  10.760  22.020   7.840
 1499BOLB   PO235966  10.990  22.320   7.890
 1499BOLB   GL335967  11.270  22.120   8.100
 1499BOLB   GL435968  11.210  21.810   8.040
 1499BOLB   C1C35969  11.720  22.060   8.110
 1499BOLB   C2C35970  12.040  21.900   8.260
 1499BOLB   C3C35971  12.420  21.690   8.380
 1499BOLB   C4C35972  12.500  21.410   8.680
 1499BOLB   C1D35973  11.530  21.640   8.290
 1499BOLB   C2D35974  11.870  21.390   8.250
 1499BOLB   C3D35975  12.180  21.100   8.420
 1499BOLB   C4D35976  12.490  20.800   8.680
 1500BOLB   NC135977  22.350  14.740   7.270
 1500BOLB   PO135978  22.500  15.080   7.210
 1500BOLB   GL135979  22.250  15.390   6.820
 1500BOLB   GL235980  21.990  15.540   6.890
 1500BOLB   C1A35981  22.380  15.490   6.430
 1500BOLB   C2A35982  22.220  15.450   5.990
 1500BOLB   C3A35983  22.130  15.560   5.580
 1500BOLB   C4A35984  21.940  15.710   5.210
 1500BOLB   C1B35985  22.020  15.810   6.520
 1500BOLB   C2B35986  22.200  16.000   6.180
 1500BOLB   C3B35987  22.330  16.060   5.720
 1500BOLB   C4B35988  22.340  16.010   5.310
 1500BOLB   NC235989  22.740  17.110   3.400
 1500BOLB   PO235990  22.410  16.850   3.350
 1500BOLB   GL335991  22.120  16.750   3.730
 1500BOLB   GL435992  21.980  16.370   3.710
 1500BOLB   C1C35993  21.880  16.700   4.100
 1500BOLB   C2C35994  22.080  16.500   4.340
 1500BOLB   C3C35995  22.070  16.420   4.740
 1500BOLB   C4C35996  22.040  16.100   4.880
 1500BOLB   C1D35997  21.580  16.230   4.020
 1500BOLB   C2D35998  21.690  16.210   4.500
 1500BOLB   C3D35999  21.590  15.930   4.890
 1500BOLB   C4D36000  21.340  15.720   5.250
 1501BOLB   NC136001  18.520   5.580  11.420
 1501BOLB   PO136002  18.900   5.870  11.540
 1501BOLB   GL136003  19.020   5.510  11.190
 1501BOLB   GL236004  19.420   5.380  11.120
 1501BOLB   C1A36005  19.060   5.620  10.750
 1501BOLB   C2A36006  19.150   5.450  10.340
 1501BOLB   C3A36007  19.140   5.200  10.150
 1501BOLB   C4A36008  19.110   5.160   9.780
 1501BOLB   C1B36009  19.210   5.070  10.880
 1501BOLB   C2B36010  18.870   4.960  10.580
 1501BOLB   C3B36011  18.400   5.000  10.560
 1501BOLB   C4B36012  18.060   4.970  10.200
 1501BOLB   NC236013  18.100   3.080   8.110
 1501BOLB   PO236014  18.360   3.260   8.480
 1501BOLB   GL336015  18.400   3.750   8.590
 1501BOLB   GL436016  18.710   3.740   8.710
 1501BOLB   C1C36017  18.330   4.230   8.460
 1501BOLB   C2C36018  18.500   4.710   8.560
 1501BOLB   C3C36019  18.750   4.810   8.960
 1501BOLB   C4C36020  18.920   5.030   9.330
 1501BOLB   C1D36021  18.810   4.120   8.710
 1501BOLB   C2D36022  19.000   4.520   8.630
 1501BOLB   C3D36023  19.210   4.900   8.840
 1501BOLB   C4D36024  19.230   5.340   8.750
 1502BOLB   NC136025  13.180  21.150  14.800
 1502BOLB   PO136026  12.890  21.450  14.920
 1502BOLB   GL136027  12.640  21.520  15.200
 1502BOLB   GL236028  12.570  21.860  15.060
 1502BOLB   C1A36029  12.360  21.700  15.510
 1502BOLB   C2A36030  12.130  22.060  15.260
 1502BOLB   C3A36031  12.070  22.430  15.430
 1502BOLB   C4A36032  12.050  22.840  15.580
 1502BOLB   C1B36033  12.420  22.120  14.790
 1502BOLB   C2B36034  11.960  22.280  14.820
 1502BOLB   C3B36035  11.650  22.590  14.770
 1502BOLB   C4B36036  11.440  22.970  14.850
 1502BOLB   NC236037  11.280  24.930  14.450
 1502BOLB   PO236038  10.940  24.920  14.550
 1502BOLB   GL336039  11.190  24.680  14.840
 1502BOLB   GL436040  11.150  24.440  14.570
 1502BOLB   C1C36041  11.340  24.270  14.980
 1502BOLB   C2C36042  11.520  23.990  15.190
 1502BOLB   C3C36043  11.690  23.540  15.400
 1502BOLB   C4C36044  12.020  23.190  15.420
 1502BOLB   C1D36045  11.210  24.180  14.220
 1502BOLB   C2D36046  11.460  23.840  14.180
 1502BOLB   C3D36047  11.600  23.630  14.450
 1502BOLB   C4D36048  11.610  23.420  14.880
 1503BOLB   NC136049  27.840  17.160  12.470
 1503BOLB   PO136050  27.430  17.330  12.290
 1503BOLB   GL136051  27.740  17.450  12.080
 1503BOLB   GL236052  27.980  17.690  12.240
 1503BOLB   C1A36053  28.050  17.360  11.790
 1503BOLB   C2A36054  28.410  17.350  11.470
 1503BOLB   C3A36055  28.700  17.590  11.460
 1503BOLB   C4A36056  29.040  17.810  11.300
 1503BOLB   C1B36057  28.390  17.640  12.120
 1503BOLB   C2B36058  28.840  17.680  11.980
 1503BOLB   C3B36059  29.280  17.760  12.180
 1503BOLB   C4B36060  29.680  17.920  12.280
 1503BOLB   NC236061  30.730  18.300  10.220
 1503BOLB   PO236062  30.510  18.660  10.150
 1503BOLB   GL336063  30.290  18.730  10.500
 1503BOLB   GL436064  30.150  18.400  10.250
 1503BOLB   C1C36065  30.070  18.780  10.860
 1503BOLB   C2C36066  29.660  18.830  11.020
 1503BOLB   C3C36067  29.230  18.580  11.150
 1503BOLB   C4C36068  28.970  18.240  11.240
 1503BOLB   C1D36069  29.810  18.500  10.460
 1503BOLB   C2D36070  29.430  18.570  10.590
 1503BOLB   C3D36071  29.000  18.470  10.710
 1503BOLB   C4D36072  28.530  18.430  10.850
 1504BOLB   NC136073  25.700  10.840   9.140
 1504BOLB   PO136074  25.310  10.820   8.870
 1504BOLB   GL136075  25.630  10.650   8.610
 1504BOLB   GL236076  25.750  10.910   8.540
 1504BOLB   C1A36077  25.840  10.370   8.350
 1504BOLB   C2A36078  25.920  10.150   8.010
 1504BOLB   C3A36079  26.350  10.100   7.760
 1504BOLB   C4A36080  26.670  10.330   7.560
 1504BOLB   C1B36081  25.630  10.690   8.060
 1504BOLB   C2B36082  25.650  10.860   7.510
 1504BOLB   C3B36083  25.810  10.780   7.100
 1504BOLB   C4B36084  25.960  10.750   6.660
 1504BOLB   NC236085  28.750   9.190   6.630
 1504BOLB   PO236086  28.340   8.970   6.710
 1504BOLB   GL336087  28.270   9.310   7.000
 1504BOLB   GL436088  28.360   9.640   6.820
 1504BOLB   C1C36089  28.010   9.560   7.190
 1504BOLB   C2C36090  27.660   9.890   7.080
 1504BOLB   C3C36091  27.250  10.160   7.050
 1504BOLB   C4C36092  27.100  10.380   7.320
 1504BOLB   C1D36093  28.230  10.020   7.150
 1504BOLB   C2D36094  28.100  10.290   7.450
 1504BOLB   C3D36095  27.900  10.190   7.890
 1504BOLB   C4D36096  27.490  10.090   8.070
 1505BOLB   NC136097  19.920   9.320   8.440
 1505BOLB   PO136098  20.220   9.110   8.350
 1505BOLB   GL136099  19.770   8.960   8.140
 1505BOLB   GL236100  19.760   8.630   8.140
 1505BOLB   C1A36101  19.560   8.850   7.700
 1505BOLB   C2A36102  19.780   8.520   7.430
 1505BOLB   C3A36103  19.860   8.360   7.070
 1505BOLB   C4A36104  20.180   8.450   6.700
 1505BOLB   C1B36105  19.590   8.320   7.860
 1505BOLB   C2B36106  19.460   8.110   7.660
 1505BOLB   C3B36107  19.070   7.870   7.430
 1505BOLB   C4B36108  18.610   7.880   7.620
 1505BOLB   NC236109  20.840   8.410   4.430
 1505BOLB   PO236110  20.610   7.960   4.450
 1505BOLB   GL336111  20.580   8.210   4.840
 1505BOLB   GL436112  20.830   8.070   5.170
 1505BOLB   C1C36113  20.370   8.320   5.230
 1505BOLB   C2C36114  20.290   8.390   5.620
 1505BOLB   C3C36115  20.230   8.630   5.930
 1505BOLB   C4C36116  20.010   8.580   6.250
 1505BOLB   C1D36117  20.800   8.420   5.430
 1505BOLB   C2D36118  20.640   8.780   5.780
 1505BOLB   C3D36119  20.520   9.060   6.220
 1505BOLB   C4D36120  20.050   9.040   6.160
 1506BOLB   NC136121  22.430  13.830   7.950
 1506BOLB   PO136122  22.290  13.940   7.420
 1506BOLB   GL136123  22.120  13.880   7.070
 1506BOLB   GL236124  21.770  13.790   6.990
 1506BOLB   C1A36125  22.340  13.940   6.750
 1506BOLB   C2A36126  22.280  14.020   6.320
 1506BOLB   C3A36127  22.120  14.390   6.030
 1506BOLB   C4A36128  22.030  14.580   5.630
 1506BOLB   C1B36129  21.900  13.670   6.660
 1506BOLB   C2B36130  21.920  13.640   6.310
 1506BOLB   C3B36131  22.040  13.810   5.850
 1506BOLB   C4B36132  21.890  14.060   5.490
 1506BOLB   NC236133  22.120  14.390   3.150
 1506BOLB   PO236134  21.700  14.540   3.170
 1506BOLB   GL336135  21.720  14.740   3.530
 1506BOLB   GL436136  22.010  14.910   3.550
 1506BOLB   C1C36137  21.720  14.800   3.940
 1506BOLB   C2C36138  21.590  14.820   4.470
 1506BOLB   C3C36139  21.650  14.820   4.890
 1506BOLB   C4C36140  21.810  14.770   5.280
 1506BOLB   C1D36141  22.220  15.090   3.900
 1506BOLB   C2D36142  22.250  15.510   4.040
 1506BOLB   C3D36143  22.240  15.910   3.910
 1506BOLB   C4D36144  22.450  16.340   4.070
 1507BOLB   NC136145  16.930   8.560   9.950
 1507BOLB   PO136146  17.110   8.210  10.240
 1507BOLB   GL136147  17.140   8.040   9.860
 1507BOLB   GL236148  17.330   7.900   9.650
 1507BOLB   C1A36149  16.860   7.690   9.750
 1507BOLB   C2A36150  16.690   7.540   9.390
 1507BOLB   C3A36151  16.530   7.290   8.990
 1507BOLB   C4A36152  16.340   6.900   8.740
 1507BOLB   C1B36153  17.240   7.560   9.380
 1507BOLB   C2B36154  16.990   7.250   9.170
 1507BOLB   C3B36155  16.880   6.770   9.170
 1507BOLB   C4B36156  16.770   6.430   8.770
 1507BOLB   NC236157  15.880   5.770   6.650
 1507BOLB   PO236158  15.950   5.240   6.810
 1507BOLB   GL336159  16.120   5.510   7.060
 1507BOLB   GL436160  15.860   5.870   7.200
 1507BOLB   C1C36161  16.210   5.650   7.500
 1507BOLB   C2C36162  16.320   5.960   7.880
 1507BOLB   C3C36163  16.290   6.210   8.210
 1507BOLB   C4C36164  16.260   6.360   8.580
 1507BOLB   C1D36165  15.450   5.930   7.280
 1507BOLB   C2D36166  15.270   6.300   7.560
 1507BOLB   C3D36167  14.900   6.670   7.510
 1507BOLB   C4D36168  14.610   6.890   7.800
 1508BOLB   NC136169  22.070  16.920   7.340
 1508BOLB   PO136170  22.060  17.260   7.580
 1508BOLB   GL136171  22.170  17.510   7.180
 1508BOLB   GL236172  22.510  17.530   7.170
 1508BOLB   C1A36173  22.160  17.810   6.870
 1508BOLB   C2A36174  22.280  17.980   6.410
 1508BOLB   C3A36175  22.480  18.050   6.110
 1508BOLB   C4A36176  22.850  18.130   5.970
 1508BOLB   C1B36177  22.600  17.510   6.740
 1508BOLB   C2B36178  22.550  17.140   6.330
 1508BOLB   C3B36179  22.760  17.190   5.860
 1508BOLB   C4B36180  23.000  17.180   5.490
 1508BOLB   NC236181  24.390  18.510   3.860
 1508BOLB   PO236182  24.080  18.710   4.120
 1508BOLB   GL336183  23.590  18.780   4.350
 1508BOLB   GL436184  23.380  18.780   4.220
 1508BOLB   C1C36185  23.430  19.060   4.780
 1508BOLB   C2C36186  23.330  19.000   5.190
 1508BOLB   C3C36187  23.300  18.830   5.560
 1508BOLB   C4C36188  23.160  18.440   5.830
 1508BOLB   C1D36189  23.170  18.530   4.520
 1508BOLB   C2D36190  22.990  18.420   4.910
 1508BOLB   C3D36191  22.750  18.400   5.320
 1508BOLB   C4D36192  22.450  18.360   5.700
 1509BOLB   NC136193  18.930  23.060  12.050
 1509BOLB   PO136194  19.170  23.480  12.150
 1509BOLB   GL136195  19.340  23.890  12.150
 1509BOLB   GL236196  19.480  23.990  11.930
 1509BOLB   C1A36197  19.400  24.340  12.360
 1509BOLB   C2A36198  19.220  24.790  12.480
 1509BOLB   C3A36199  19.200  25.270  12.630
 1509BOLB   C4A36200  18.940  25.630  12.800
 1509BOLB   C1B36201  19.590  24.370  11.770
 1509BOLB   C2B36202  19.630  24.810  11.720
 1509BOLB   C3B36203  19.980  25.050  11.550
 1509BOLB   C4B36204  20.410  25.250  11.300
 1509BOLB   NC236205  17.930  28.040  14.040
 1509BOLB   PO236206  17.800  27.730  13.680
 1509BOLB   GL336207  17.870  27.330  13.550
 1509BOLB   GL436208  17.820  27.190  13.750
 1509BOLB   C1C36209  18.220  26.920  13.460
 1509BOLB   C2C36210  18.410  26.460  13.600
 1509BOLB   C3C36211  18.520  26.280  13.180
 1509BOLB   C4C36212  18.500  25.800  12.890
 1509BOLB   C1D36213  17.710  26.920  13.340
 1509BOLB   C2D36214  17.540  26.840  13.000
 1509BOLB   C3D36215  17.440  26.850  12.570
 1509BOLB   C4D36216  17.370  27.010  12.280
 1510BOLB   NC136217  24.190   9.890   8.800
 1510BOLB   PO136218  24.270   9.480   8.980
 1510BOLB   GL136219  24.310   9.290   8.660
 1510BOLB   GL236220  24.320   9.530   8.460
 1510BOLB   C1A36221  24.530   9.020   8.460
 1510BOLB   C2A36222  24.700   8.830   8.050
 1510BOLB   C3A36223  24.840   8.780   7.640
 1510BOLB   C4A36224  24.970   9.020   7.340
 1510BOLB   C1B36225  24.540   9.350   8.060
 1510BOLB   C2B36226  24.640   9.300   7.640
 1510BOLB   C3B36227  24.610   9.440   7.200
 1510BOLB   C4B36228  24.380   9.340   6.880
 1510BOLB   NC236229  27.400   8.570   5.900
 1510BOLB   PO236230  27.120   8.270   6.110
 1510BOLB   GL336231  26.680   8.490   6.390
 1510BOLB   GL436232  26.610   8.400   6.720
 1510BOLB   C1C36233  26.320   8.710   6.520
 1510BOLB   C2C36234  26.010   8.890   6.770
 1510BOLB   C3C36235  25.760   9.050   7.070
 1510BOLB   C4C36236  25.420   8.930   7.250
 1510BOLB   C1D36237  26.720   8.100   7.060
 1510BOLB   C2D36238  26.770   8.070   7.630
 1510BOLB   C3D36239  27.010   8.290   8.000
 1510BOLB   C4D36240  26.780   8.450   8.330
 1511BOLB   NC136241  19.880   4.970  14.010
 1511BOLB   PO136242  19.480   4.890  14.260
 1511BOLB   GL136243  19.490   4.480  14.220
 1511BOLB   GL236244  19.700   4.500  14.050
 1511BOLB   C1A36245  19.490   3.990  14.040
 1511BOLB   C2A36246  19.890   3.690  13.990
 1511BOLB   C3A36247  20.300   3.430  14.020
 1511BOLB   C4A36248  20.650   3.250  14.120
 1511BOLB   C1B36249  19.820   4.210  13.720
 1511BOLB   C2B36250  19.860   3.770  13.480
 1511BOLB   C3B36251  19.620   3.390  13.630
 1511BOLB   C4B36252  19.370   3.050  13.470
 1511BOLB   NC236253  21.640   0.960  13.340
 1511BOLB   PO236254  21.470   0.950  13.780
 1511BOLB   GL336255  21.230   1.250  13.800
 1511BOLB   GL436256  21.220   1.290  14.090
 1511BOLB   C1C36257  21.340   1.720  13.900
 1511BOLB   C2C36258  21.200   2.050  14.190
 1511BOLB   C3C36259  21.090   2.410  14.240
 1511BOLB   C4C36260  20.910   2.870  14.160
 1511BOLB   C1D36261  21.260   1.540  14.370
 1511BOLB   C2D36262  21.100   1.700  14.680
 1511BOLB   C3D36263  21.030   1.930  15.040
 1511BOLB   C4D36264  20.740   1.890  15.370
 1512BOLB   NC136265  11.980  16.980   9.700
 1512BOLB   PO136266  12.300  17.180   9.650
 1512BOLB   GL136267  12.190  17.580   9.400
 1512BOLB   GL236268  12.160  17.850   9.530
 1512BOLB   C1A36269  11.760  17.790   9.190
 1512BOLB   C2A36270  11.400  17.890   8.870
 1512BOLB   C3A36271  11.210  18.020   8.490
 1512BOLB   C4A36272  10.880  18.320   8.300
 1512BOLB   C1B36273  12.180  18.110   9.160
 1512BOLB   C2B36274  12.110  18.300   8.840
 1512BOLB   C3B36275  11.770  18.490   8.560
 1512BOLB   C4B36276  11.450  18.500   8.340
 1512BOLB   NC236277  10.740  19.640   6.620
 1512BOLB   PO236278  10.500  20.040   6.800
 1512BOLB   GL336279  10.560  19.990   7.240
 1512BOLB   GL436280  10.790  19.710   7.170
 1512BOLB   C1C36281  10.500  19.620   7.530
 1512BOLB   C2C36282  10.750  19.340   7.730
 1512BOLB   C3C36283  10.770  19.210   8.080
 1512BOLB   C4C36284  10.900  18.700   8.130
 1512BOLB   C1D36285  11.110  19.950   7.370
 1512BOLB   C2D36286  11.440  19.820   7.710
 1512BOLB   C3D36287  11.640  19.750   8.030
 1512BOLB   C4D36288  11.900  19.590   8.350
 1513BOLB   NC136289  14.870   6.450  15.910
 1513BOLB   PO136290  14.630   6.770  15.960
 1513BOLB   GL136291  14.370   6.430  15.920
 1513BOLB   GL236292  14.050   6.470  16.070
 1513BOLB   C1A36293  14.070   6.000  16.000
 1513BOLB   C2A36294  13.880   5.770  16.330
 1513BOLB   C3A36295  13.470   5.670  16.350
 1513BOLB   C4A36296  13.080   5.790  16.280
 1513BOLB   C1B36297  13.720   6.340  16.450
 1513BOLB   C2B36298  13.380   6.050  16.650
 1513BOLB   C3B36299  13.140   5.670  16.730
 1513BOLB   C4B36300  13.000   5.370  16.530
 1513BOLB   NC236301  10.270   4.510  15.990
 1513BOLB   PO236302  10.720   4.550  16.010
 1513BOLB   GL336303  10.990   5.030  15.970
 1513BOLB   GL436304  10.820   5.140  16.200
 1513BOLB   C1C36305  11.420   5.200  15.880
 1513BOLB   C2C36306  11.850   5.380  15.860
 1513BOLB   C3C36307  12.260   5.650  15.930
 1513BOLB   C4C36308  12.520   5.640  16.250
 1513BOLB   C1D36309  11.080   5.490  16.310
 1513BOLB   C2D36310  11.240   5.770  16.070
 1513BOLB   C3D36311  11.440   6.250  15.860
 1513BOLB   C4D36312  11.620   6.680  15.770
 1514BOLB   NC136313  11.730  11.780  11.450
 1514BOLB   PO136314  11.680  11.990  11.890
 1514BOLB   GL136315  11.300  11.650  11.740
 1514BOLB   GL236316  11.310  11.540  11.370
 1514BOLB   C1A36317  10.900  11.450  11.690
 1514BOLB   C2A36318  10.640  11.110  11.510
 1514BOLB   C3A36319  10.380  11.120  11.120
 1514BOLB   C4A36320  10.150  10.900  10.740
 1514BOLB   C1B36321  11.070  11.700  11.230
 1514BOLB   C2B36322  10.670  11.660  11.310
 1514BOLB   C3B36323  10.280  11.810  11.340
 1514BOLB   C4B36324   9.870  11.940  11.120
 1514BOLB   NC236325   8.100  10.040   9.230
 1514BOLB   PO236326   8.390  10.330   9.170
 1514BOLB   GL336327   8.680  10.530   9.510
 1514BOLB   GL436328   8.700  10.380   9.740
 1514BOLB   C1C36329   8.910  10.960   9.660
 1514BOLB   C2C36330   9.070  10.950  10.010
 1514BOLB   C3C36331   9.260  10.780  10.210
 1514BOLB   C4C36332   9.660  10.910  10.490
 1514BOLB   C1D36333   9.130  10.360   9.900
 1514BOLB   C2D36334   9.520  10.380  10.080
 1514BOLB   C3D36335   9.820  10.460  10.440
 1514BOLB   C4D36336   9.870  10.490  10.810
 1515BOLB   NC136337  22.900  19.010   8.840
 1515BOLB   PO136338  23.230  19.320   8.570
 1515BOLB   GL136339  23.300  19.610   8.170
 1515BOLB   GL236340  23.550  19.650   8.220
 1515BOLB   C1A36341  23.200  19.820   7.820
 1515BOLB   C2A36342  23.360  20.050   7.530
 1515BOLB   C3A36343  23.740  20.200   7.320
 1515BOLB   C4A36344  24.050  20.240   7.060
 1515BOLB   C1B36345  23.700  19.930   7.970
 1515BOLB   C2B36346  23.800  20.310   7.810
 1515BOLB   C3B36347  23.880  20.600   7.560
 1515BOLB   C4B36348  23.600  21.030   7.400
 1515BOLB   NC236349  25.200  21.040   5.240
 1515BOLB   PO236350  24.970  20.750   4.930
 1515BOLB   GL336351  24.870  20.540   5.280
 1515BOLB   GL436352  24.860  20.190   5.210
 1515BOLB   C1C36353  24.580  20.690   5.580
 1515BOLB   C2C36354  24.410  20.490   6.010
 1515BOLB   C3C36355  24.360  20.610   6.380
 1515BOLB   C4C36356  24.240  20.520   6.760
 1515BOLB   C1D36357  24.980  19.860   5.520
 1515BOLB   C2D36358  24.870  19.700   5.830
 1515BOLB   C3D36359  24.520  19.560   6.190
 1515BOLB   C4D36360  24.590  19.290   6.510
 1516BOLB   NC136361  21.850  21.930  10.690
 1516BOLB   PO136362  21.900  22.360  10.740
 1516BOLB   GL136363  22.160  22.770  10.640
 1516BOLB   GL236364  21.960  22.900  10.900
 1516BOLB   C1A36365  22.250  23.140  10.300
 1516BOLB   C2A36366  22.590  23.470  10.120
 1516BOLB   C3A36367  22.450  23.900  10.090
 1516BOLB   C4A36368  22.660  24.210  10.200
 1516BOLB   C1B36369  22.100  23.330  10.810
 1516BOLB   C2B36370  22.210  23.730  10.850
 1516BOLB   C3B36371  22.350  24.200  11.110
 1516BOLB   C4B36372  22.470  24.410  11.550
 1516BOLB   NC236373  23.690  26.550  10.580
 1516BOLB   PO236374  23.820  26.280  10.320
 1516BOLB   GL336375  23.450  26.040  10.470
 1516BOLB   GL436376  23.430  26.000  10.790
 1516BOLB   C1C36377  23.290  25.640  10.370
 1516BOLB   C2C36378  23.140  25.310  10.330
 1516BOLB   C3C36379  22.850  25.000  10.230
 1516BOLB   C4C36380  22.740  24.670  10.210
 1516BOLB   C1D36381  23.400  25.680  11.010
 1516BOLB   C2D36382  23.210  25.370  11.170
 1516BOLB   C3D36383  22.960  25.230  11.430
 1516BOLB   C4D36384  22.630  25.240  11.590
 1517BOLB   NC136385  17.390  23.090  11.290
 1517BOLB   PO136386  17.520  23.260  10.960
 1517BOLB   GL136387  17.260  23.670  10.980
 1517BOLB   GL236388  17.380  23.960  11.190
 1517BOLB   C1A36389  17.050  23.990  10.750
 1517BOLB   C2A36390  17.040  24.500  10.750
 1517BOLB   C3A36391  17.330  24.810  10.740
 1517BOLB   C4A36392  17.380  25.200  10.670
 1517BOLB   C1B36393  17.510  24.210  10.750
 1517BOLB   C2B36394  17.850  24.490  10.720
 1517BOLB   C3B36395  17.870  24.920  10.750
 1517BOLB   C4B36396  17.700  25.170  11.070
 1517BOLB   NC236397  18.200  27.040   9.630
 1517BOLB   PO236398  18.480  27.310   9.850
 1517BOLB   GL336399  18.460  26.890  10.030
 1517BOLB   GL436400  18.780  26.820  10.190
 1517BOLB   C1C36401  18.460  26.440  10.130
 1517BOLB   C2C36402  18.080  26.100  10.240
 1517BOLB   C3C36403  17.700  25.830  10.390
 1517BOLB   C4C36404  17.590  25.540  10.690
 1517BOLB   C1D36405  18.940  26.440  10.370
 1517BOLB   C2D36406  18.980  26.080  10.530
 1517BOLB   C3D36407  19.120  25.650  10.440
 1517BOLB   C4D36408  19.080  25.250  10.500
 1518BOLB   NC136409  24.210   2.510   9.850
 1518BOLB   PO136410  24.060   2.800   9.430
 1518BOLB   GL136411  23.880   3.170   9.780
 1518BOLB   GL236412  23.820   3.400   9.490
 1518BOLB   C1A36413  23.820   3.630   9.920
 1518BOLB   C2A36414  23.470   4.020   9.890
 1518BOLB   C3A36415  23.070   4.150   9.980
 1518BOLB   C4A36416  22.630   4.320   9.970
 1518BOLB   C1B36417  23.440   3.540   9.720
 1518BOLB   C2B36418  23.120   3.400   9.980
 1518BOLB   C3B36419  23.040   3.420  10.380
 1518BOLB   C4B36420  22.910   3.690  10.690
 1518BOLB   NC236421  22.930   2.920   7.980
 1518BOLB   PO236422  22.600   3.120   8.140
 1518BOLB   GL336423  22.510   3.390   8.520
 1518BOLB   GL436424  22.520   3.690   8.340
 1518BOLB   C1C36425  22.560   3.700   8.870
 1518BOLB   C2C36426  22.410   4.120   9.070
 1518BOLB   C3C36427  22.120   4.270   9.250
 1518BOLB   C4C36428  22.290   4.470   9.780
 1518BOLB   C1D36429  22.600   4.120   8.600
 1518BOLB   C2D36430  22.870   4.160   8.900
 1518BOLB   C3D36431  23.030   4.440   9.120
 1518BOLB   C4D36432  23.040   4.840   9.270
 1519BOLB   NC136433  16.080  23.020  10.540
 1519BOLB   PO136434  16.030  22.980  10.960
 1519BOLB   GL136435  15.680  23.230  10.880
 1519BOLB   GL236436  15.820  23.450  10.670
 1519BOLB   C1A36437  15.360  23.560  10.960
 1519BOLB   C2A36438  14.970  23.860  11.210
 1519BOLB   C3A36439  15.110  24.190  11.470
 1519BOLB   C4A36440  14.840  24.550  11.480
 1519BOLB   C1B36441  15.770  23.860  10.420
 1519BOLB   C2B36442  15.790  24.160  10.190
 1519BOLB   C3B36443  15.810  24.570   9.940
 1519BOLB   C4B36444  15.580  24.500   9.560
 1519BOLB   NC236445  13.960  26.410  10.250
 1519BOLB   PO236446  13.730  26.100  10.430
 1519BOLB   GL336447  13.870  25.750  10.300
 1519BOLB   GL436448  13.860  25.580  10.050
 1519BOLB   C1C36449  14.020  25.390  10.620
 1519BOLB   C2C36450  14.270  25.100  10.730
 1519BOLB   C3C36451  14.650  25.170  10.970
 1519BOLB   C4C36452  14.890  24.850  11.190
 1519BOLB   C1D36453  13.840  25.130  10.050
 1519BOLB   C2D36454  13.810  24.690   9.930
 1519BOLB   C3D36455  13.860  24.280   9.890
 1519BOLB   C4D36456  14.190  24.030   9.640
 1520BOLB   NC136457  19.880   2.620   9.090
 1520BOLB   PO136458  20.120   2.530   8.640
 1520BOLB   GL136459  20.410   2.790   8.920
 1520BOLB   GL236460  20.780   2.810   8.890
 1520BOLB   C1A36461  20.480   2.940   9.290
 1520BOLB   C2A36462  20.590   3.340   9.500
 1520BOLB   C3A36463  20.570   3.620   9.890
 1520BOLB   C4A36464  20.580   3.680  10.310
 1520BOLB   C1B36465  21.000   3.100   8.980
 1520BOLB   C2B36466  20.980   3.420   9.270
 1520BOLB   C3B36467  21.070   3.750   9.350
 1520BOLB   C4B36468  20.960   3.910   9.820
 1520BOLB   NC236469  21.670   1.480  11.170
 1520BOLB   PO236470  21.240   1.600  11.290
 1520BOLB   GL336471  21.230   2.000  11.120
 1520BOLB   GL436472  21.220   2.050  11.540
 1520BOLB   C1C36473  21.060   2.420  11.070
 1520BOLB   C2C36474  20.830   2.820  10.890
 1520BOLB   C3C36475  20.580   3.030  10.660
 1520BOLB   C4C36476  20.350   3.440  10.660
 1520BOLB   C1D36477  21.110   2.180  11.990
 1520BOLB   C2D36478  21.000   2.570  12.020
 1520BOLB   C3D36479  20.730   2.840  11.910
 1520BOLB   C4D36480  20.380   2.920  12.000
 1521BOLB   NC136481  11.060  16.710  12.140
 1521BOLB   PO136482  10.650  16.430  12.070
 1521BOLB   GL136483  10.340  16.360  11.700
 1521BOLB   GL236484  10.270  16.060  11.560
 1521BOLB   C1A36485   9.960  16.420  11.490
 1521BOLB   C2A36486   9.560  16.480  11.370
 1521BOLB   C3A36487   9.170  16.550  11.120
 1521BOLB   C4A36488   8.890  16.710  10.860
 1521BOLB   C1B36489   9.900  15.910  11.460
 1521BOLB   C2B36490   9.570  15.670  11.330
 1521BOLB   C3B36491   9.250  15.520  11.100
 1521BOLB   C4B36492   9.030  15.390  10.670
 1521BOLB   NC236493   7.160  16.930   9.230
 1521BOLB   PO236494   7.540  16.770   9.110
 1521BOLB   GL336495   7.860  16.500   9.340
 1521BOLB   GL436496   7.890  16.680   9.650
 1521BOLB   C1C36497   8.170  16.350   9.400
 1521BOLB   C2C36498   8.330  16.260   9.740
 1521BOLB   C3C36499   8.610  16.480   9.890
 1521BOLB   C4C36500   8.710  16.660  10.350
 1521BOLB   C1D36501   8.130  16.700   9.920
 1521BOLB   C2D36502   8.280  16.900  10.340
 1521BOLB   C3D36503   8.110  17.080  10.650
 1521BOLB   C4D36504   7.760  17.000  10.930
 1522BOLB   NC136505  21.890  13.090   7.540
 1522BOLB   PO136506  21.390  12.910   7.570
 1522BOLB   GL136507  21.360  12.710   7.160
 1522BOLB   GL236508  21.150  13.000   7.140
 1522BOLB   C1A36509  21.430  12.350   6.800
 1522BOLB   C2A36510  21.430  12.150   6.500
 1522BOLB   C3A36511  21.540  11.880   6.110
 1522BOLB   C4A36512  21.550  11.650   5.880
 1522BOLB   C1B36513  21.180  12.730   6.690
 1522BOLB   C2B36514  21.240  12.920   6.360
 1522BOLB   C3B36515  21.380  12.780   5.960
 1522BOLB   C4B36516  21.470  12.890   5.510
 1522BOLB   NC236517  22.380  11.480   3.490
 1522BOLB   PO236518  22.230  11.880   3.560
 1522BOLB   GL336519  22.010  11.960   3.970
 1522BOLB   GL436520  21.900  12.140   4.060
 1522BOLB   C1C36521  22.160  11.810   4.300
 1522BOLB   C2C36522  21.980  11.730   4.700
 1522BOLB   C3C36523  21.970  11.810   5.140
 1522BOLB   C4C36524  21.700  11.820   5.480
 1522BOLB   C1D36525  21.750  12.180   4.510
 1522BOLB   C2D36526  21.370  12.470   4.780
 1522BOLB   C3D36527  20.900  12.610   4.890
 1522BOLB   C4D36528  21.020  13.050   5.170
 1523BOLB   NC136529  18.320  16.300   7.030
 1523BOLB   PO136530  18.540  16.040   7.320
 1523BOLB   GL136531  18.570  15.880   6.830
 1523BOLB   GL236532  18.750  15.950   6.630
 1523BOLB   C1A36533  18.380  15.910   6.380
 1523BOLB   C2A36534  18.170  15.900   5.930
 1523BOLB   C3A36535  18.220  15.620   5.570
 1523BOLB   C4A36536  18.170  15.760   5.190
 1523BOLB   C1B36537  18.850  15.980   6.170
 1523BOLB   C2B36538  18.630  15.880   5.740
 1523BOLB   C3B36539  18.390  16.120   5.430
 1523BOLB   C4B36540  18.590  16.370   5.070
 1523BOLB   NC236541  17.370  14.560   3.160
 1523BOLB   PO236542  17.200  14.750   3.410
 1523BOLB   GL336543  17.160  14.990   3.850
 1523BOLB   GL436544  16.840  14.960   3.860
 1523BOLB   C1C36545  17.290  15.070   4.220
 1523BOLB   C2C36546  17.620  15.100   4.360
 1523BOLB   C3C36547  17.840  15.420   4.510
 1523BOLB   C4C36548  17.890  15.700   4.830
 1523BOLB   C1D36549  16.530  15.010   4.140
 1523BOLB   C2D36550  16.490  15.110   4.510
 1523BOLB   C3D36551  16.680  15.120   4.860
 1523BOLB   C4D36552  16.800  15.070   5.350
 1524BOLB   NC136553  13.860  11.120   9.730
 1524BOLB   PO136554  14.070  10.790   9.430
 1524BOLB   GL136555  13.860  10.720   9.020
 1524BOLB   GL236556  13.640  10.890   8.870
 1524BOLB   C1A36557  13.540  10.450   8.790
 1524BOLB   C2A36558  13.420  10.250   8.490
 1524BOLB   C3A36559  13.470  10.210   8.080
 1524BOLB   C4A36560  13.690   9.900   7.780
 1524BOLB   C1B36561  13.480  10.870   8.440
 1524BOLB   C2B36562  13.250  10.880   8.190
 1524BOLB   C3B36563  12.940  10.810   7.990
 1524BOLB   C4B36564  12.550  10.560   7.940
 1524BOLB   NC236565  11.770   9.130   6.370
 1524BOLB   PO236566  12.180   9.130   6.250
 1524BOLB   GL336567  12.350   9.100   6.650
 1524BOLB   GL436568  12.320   9.220   6.900
 1524BOLB   C1C36569  12.790   8.900   6.690
 1524BOLB   C2C36570  13.160   8.890   7.100
 1524BOLB   C3C36571  13.470   9.300   7.150
 1524BOLB   C4C36572  13.660   9.640   7.430
 1524BOLB   C1D36573  12.580   9.630   6.990
 1524BOLB   C2D36574  12.610  10.010   7.160
 1524BOLB   C3D36575  12.970  10.190   7.120
 1524BOLB   C4D36576  13.370  10.420   7.250
 1525BOLB   NC136577  16.150  21.270   4.460
 1525BOLB   PO136578  16.560  21.300   4.380
 1525BOLB   GL136579  16.800  21.290   4.760
 1525BOLB   GL236580  17.210  21.300   4.810
 1525BOLB   C1A36581  16.830  21.130   5.170
 1525BOLB   C2A36582  16.930  21.150   5.660
 1525BOLB   C3A36583  16.760  20.950   6.100
 1525BOLB   C4A36584  16.550  20.920   6.550
 1525BOLB   C1B36585  17.450  21.280   5.150
 1525BOLB   C2B36586  17.270  20.930   5.360
 1525BOLB   C3B36587  17.430  20.800   5.740
 1525BOLB   C4B36588  17.740  20.610   5.940
 1525BOLB   NC236589  14.540  22.020   4.750
 1525BOLB   PO236590  14.880  21.650   4.870
 1525BOLB   GL336591  15.110  21.550   5.290
 1525BOLB   GL436592  15.450  21.700   5.360
 1525BOLB   C1C36593  15.300  21.210   5.580
 1525BOLB   C2C36594  15.460  20.940   5.970
 1525BOLB   C3C36595  15.720  20.990   6.310
 1525BOLB   C4C36596  16.120  21.050   6.600
 1525BOLB   C1D36597  15.190  21.850   5.640
 1525BOLB   C2D36598  15.190  21.830   6.100
 1525BOLB   C3D36599  15.230  21.680   6.500
 1525BOLB   C4D36600  15.300  21.890   6.780
 1526BOLB   NC136601  19.930   7.210   9.750
 1526BOLB   PO136602  19.520   7.380   9.930
 1526BOLB   GL136603  19.510   7.000   9.590
 1526BOLB   GL236604  19.540   7.090   9.250
 1526BOLB   C1A36605  19.590   6.610   9.450
 1526BOLB   C2A36606  19.630   6.330   9.140
 1526BOLB   C3A36607  19.580   6.280   8.750
 1526BOLB   C4A36608  19.440   6.230   8.310
 1526BOLB   C1B36609  19.550   6.770   8.980
 1526BOLB   C2B36610  19.300   6.680   8.590
 1526BOLB   C3B36611  18.930   6.480   8.380
 1526BOLB   C4B36612  18.720   6.130   8.260
 1526BOLB   NC236613  18.750   4.870   6.820
 1526BOLB   PO236614  18.860   5.260   6.470
 1526BOLB   GL336615  19.020   5.530   6.760
 1526BOLB   GL436616  19.320   5.380   6.880
 1526BOLB   C1C36617  18.760   5.580   7.140
 1526BOLB   C2C36618  18.830   5.540   7.520
 1526BOLB   C3C36619  19.080   5.740   7.790
 1526BOLB   C4C36620  19.260   5.960   8.200
 1526BOLB   C1D36621  19.600   5.710   6.960
 1526BOLB   C2D36622  19.800   6.110   7.160
 1526BOLB   C3D36623  19.870   6.280   7.510
 1526BOLB   C4D36624  19.860   6.380   8.000
 1527BOLB   NC136625  13.630  13.530  19.080
 1527BOLB   PO136626  13.500  13.830  18.900
 1527BOLB   GL136627  13.250  14.070  19.250
 1527BOLB   GL236628  13.440  14.370  19.360
 1527BOLB   C1A36629  12.980  13.990  19.450
 1527BOLB   C2A36630  12.690  13.810  19.540
 1527BOLB   C3A36631  12.490  13.740  19.960
 1527BOLB   C4A36632  12.600  13.490  20.300
 1527BOLB   C1B36633  13.230  14.430  19.780
 1527BOLB   C2B36634  13.000  14.650  20.010
 1527BOLB   C3B36635  12.570  14.640  20.120
 1527BOLB   C4B36636  12.240  14.450  20.320
 1527BOLB   NC236637  10.380  14.400  21.630
 1527BOLB   PO236638  10.480  14.190  21.200
 1527BOLB   GL336639  10.730  14.160  20.880
 1527BOLB   GL436640  10.490  14.080  20.660
 1527BOLB   C1C36641  11.110  14.150  20.620
 1527BOLB   C2C36642  11.450  13.810  20.600
 1527BOLB   C3C36643  11.860  13.560  20.620
 1527BOLB   C4C36644  12.240  13.340  20.650
 1527BOLB   C1D36645  10.570  14.520  20.460
 1527BOLB   C2D36646  10.510  14.820  20.220
 1527BOLB   C3D36647  10.710  14.950  19.870
 1527BOLB   C4D36648  10.830  15.260  19.600
 1528BOLB   NC136649  19.170   4.690  12.900
 1528BOLB   PO136650  19.510   4.810  12.540
 1528BOLB   GL136651  19.400   4.310  12.610
 1528BOLB   GL236652  19.080   4.430  12.430
 1528BOLB   C1A36653  19.430   3.910  12.690
 1528BOLB   C2A36654  19.890   3.740  12.620
 1528BOLB   C3A36655  20.310   3.660  12.550
 1528BOLB   C4A36656  20.630   3.370  12.600
 1528BOLB   C1B36657  18.940   3.900  12.560
 1528BOLB   C2B36658  19.140   3.510  12.770
 1528BOLB   C3B36659  19.100   3.170  12.930
 1528BOLB   C4B36660  18.890   2.800  13.180
 1528BOLB   NC236661  21.030   0.850  12.570
 1528BOLB   PO236662  21.240   1.090  12.260
 1528BOLB   GL336663  21.200   1.530  12.230
 1528BOLB   GL436664  20.950   1.640  11.910
 1528BOLB   C1C36665  21.370   1.890  12.330
 1528BOLB   C2C36666  21.210   2.360  12.440
 1528BOLB   C3C36667  20.730   2.640  12.390
 1528BOLB   C4C36668  20.660   3.030  12.430
 1528BOLB   C1D36669  20.690   2.050  11.880
 1528BOLB   C2D36670  20.520   2.420  11.980
 1528BOLB   C3D36671  20.090   2.490  12.030
 1528BOLB   C4D36672  19.790   2.430  11.730
 1529BOLB   NC136673  17.010  18.860   7.790
 1529BOLB   PO136674  16.790  19.280   7.920
 1529BOLB   GL136675  16.580  19.380   7.550
 1529BOLB   GL236676  16.650  19.690   7.370
 1529BOLB   C1A36677  16.570  19.220   7.130
 1529BOLB   C2A36678  16.460  19.210   6.820
 1529BOLB   C3A36679  16.600  19.440   6.550
 1529BOLB   C4A36680  16.510  19.780   6.280
 1529BOLB   C1B36681  16.500  19.690   6.980
 1529BOLB   C2B36682  16.370  20.120   6.780
 1529BOLB   C3B36683  16.050  20.500   6.550
 1529BOLB   C4B36684  15.760  20.500   6.260
 1529BOLB   NC236685  15.550  20.090   4.310
 1529BOLB   PO236686  15.150  20.350   4.340
 1529BOLB   GL336687  15.270  20.310   4.740
 1529BOLB   GL436688  15.140  20.040   4.850
 1529BOLB   C1C36689  15.620  20.220   5.040
 1529BOLB   C2C36690  15.990  20.020   5.090
 1529BOLB   C3C36691  16.110  19.800   5.550
 1529BOLB   C4C36692  16.310  19.730   5.920
 1529BOLB   C1D36693  15.380  19.770   5.050
 1529BOLB   C2D36694  15.660  19.610   5.330
 1529BOLB   C3D36695  15.670  19.660   5.740
 1529BOLB   C4D36696  15.850  19.620   6.110
 1530BOLB   NC136697  21.500   6.440  10.860
 1530BOLB   PO136698  21.270   6.110  10.850
 1530BOLB   GL136699  21.450   5.780  10.730
 1530BOLB   GL236700  21.800   5.750  10.750
 1530BOLB   C1A36701  21.330   5.310  10.760
 1530BOLB   C2A36702  21.490   4.880  10.760
 1530BOLB   C3A36703  21.610   4.500  10.590
 1530BOLB   C4A36704  21.590   4.170  10.330
 1530BOLB   C1B36705  21.850   5.260  10.810
 1530BOLB   C2B36706  21.890   4.970  10.410
 1530BOLB   C3B36707  22.010   4.920   9.910
 1530BOLB   C4B36708  21.890   4.640   9.480
 1530BOLB   NC236709  21.540   2.940   8.410
 1530BOLB   PO236710  21.820   3.320   8.240
 1530BOLB   GL336711  21.880   3.420   8.690
 1530BOLB   GL436712  22.080   3.660   8.760
 1530BOLB   C1C36713  21.700   3.660   9.010
 1530BOLB   C2C36714  21.600   3.460   9.320
 1530BOLB   C3C36715  21.460   3.710   9.680
 1530BOLB   C4C36716  21.510   3.850  10.070
 1530BOLB   C1D36717  21.980   4.070   8.850
 1530BOLB   C2D36718  21.740   4.380   8.940
 1530BOLB   C3D36719  21.430   4.540   9.280
 1530BOLB   C4D36720  21.110   4.720   9.420
 1531BOLB   NC136721  23.390  10.110   8.230
 1531BOLB   PO136722  23.200   9.840   8.280
 1531BOLB   GL136723  23.550   9.780   7.870
 1531BOLB   GL236724  23.880   9.930   7.850
 1531BOLB   C1A36725  23.470   9.410   7.570
 1531BOLB   C2A36726  23.260   9.050   7.380
 1531BOLB   C3A36727  23.150   8.580   7.370
 1531BOLB   C4A36728  23.170   8.310   7.040
 1531BOLB   C1B36729  23.860   9.730   7.490
 1531BOLB   C2B36730  24.080   9.720   7.070
 1531BOLB   C3B36731  24.090   9.740   6.650
 1531BOLB   C4B36732  24.070   9.420   6.320
 1531BOLB   NC236733  24.000   6.760   5.480
 1531BOLB   PO236734  24.110   7.200   5.320
 1531BOLB   GL336735  23.830   7.570   5.380
 1531BOLB   GL436736  23.570   7.700   5.180
 1531BOLB   C1C36737  23.590   7.730   5.710
 1531BOLB   C2C36738  23.160   7.920   5.980
 1531BOLB   C3C36739  22.960   7.960   6.360
 1531BOLB   C4C36740  22.970   7.980   6.800
 1531BOLB   C1D36741  23.190   7.870   5.450
 1531BOLB   C2D36742  22.900   8.240   5.610
 1531BOLB   C3D36743  22.710   8.600   5.560
 1531BOLB   C4D36744  22.280   8.750   5.740
 1532BOLB   NC136745  17.790  15.830   7.100
 1532BOLB   PO136746  18.130  15.860   7.110
 1532BOLB   GL136747  18.100  15.600   6.690
 1532BOLB   GL236748  17.730  15.700   6.640
 1532BOLB   C1A36749  18.120  15.330   6.330
 1532BOLB   C2A36750  17.860  15.310   5.940
 1532BOLB   C3A36751  17.550  15.180   5.570
 1532BOLB   C4A36752  17.240  14.950   5.220
 1532BOLB   C1B36753  17.730  15.690   6.340
 1532BOLB   C2B36754  17.650  15.820   5.990
 1532BOLB   C3B36755  17.540  15.700   5.610
 1532BOLB   C4B36756  17.720  15.720   5.280
 1532BOLB   NC236757  15.580  14.260   3.260
 1532BOLB   PO236758  16.000  14.000   3.490
 1532BOLB   GL336759  16.320  14.030   3.740
 1532BOLB   GL436760  16.360  14.370   3.820
 1532BOLB   C1C36761  16.430  14.000   4.140
 1532BOLB   C2C36762  16.640  14.080   4.530
 1532BOLB   C3C36763  16.960  14.320   4.720
 1532BOLB   C4C36764  17.000  14.700   5.050
 1532BOLB   C1D36765  16.480  14.480   4.190
 1532BOLB   C2D36766  16.420  14.580   4.680
 1532BOLB   C3D36767  16.220  14.670   5.120
 1532BOLB   C4D36768  15.860  14.780   5.450
 1533BOLB   NC136769  13.120  18.300  17.490
 1533BOLB   PO136770  12.930  18.610  17.780
 1533BOLB   GL136771  13.000  18.620  18.180
 1533BOLB   GL236772  13.090  18.290  18.380
 1533BOLB   C1A36773  13.050  18.890  18.450
 1533BOLB   C2A36774  13.210  19.280  18.650
 1533BOLB   C3A36775  13.190  19.430  19.010
 1533BOLB   C4A36776  13.020  19.600  19.270
 1533BOLB   C1B36777  12.920  18.430  18.690
 1533BOLB   C2B36778  13.070  18.800  18.990
 1533BOLB   C3B36779  13.050  19.030  19.290
 1533BOLB   C4B36780  12.840  19.190  19.710
 1533BOLB   NC236781  11.650  21.210  21.300
 1533BOLB   PO236782  11.690  20.910  20.770
 1533BOLB   GL336783  11.660  20.510  20.530
 1533BOLB   GL436784  11.460  20.680  20.200
 1533BOLB   C1C36785  11.920  20.450  20.130
 1533BOLB   C2C36786  12.370  20.210  19.910
 1533BOLB   C3C36787  12.490  19.950  19.590
 1533BOLB   C4C36788  12.810  19.700  19.630
 1533BOLB   C1D36789  11.730  20.860  19.840
 1533BOLB   C2D36790  12.100  20.700  19.780
 1533BOLB   C3D36791  12.420  20.450  19.500
 1533BOLB   C4D36792  12.270  20.190  19.160
 1534BOLB   NC136793  11.030  14.110  11.450
 1534BOLB   PO136794  10.830  14.160  11.710
 1534BOLB   GL136795  10.410  14.080  11.720
 1534BOLB   GL236796  10.200  14.250  11.730
 1534BOLB   C1A36797   9.950  13.850  11.760
 1534BOLB   C2A36798   9.650  13.530  11.790
 1534BOLB   C3A36799   9.260  13.380  11.740
 1534BOLB   C4A36800   8.800  13.350  11.580
 1534BOLB   C1B36801   9.720  14.440  11.650
 1534BOLB   C2B36802   9.650  14.490  11.260
 1534BOLB   C3B36803   9.480  14.230  10.960
 1534BOLB   C4B36804   9.300  14.240  10.580
 1534BOLB   NC236805   6.920  12.060  10.650
 1534BOLB   PO236806   7.290  12.300  10.350
 1534BOLB   GL336807   7.580  12.630  10.440
 1534BOLB   GL436808   7.510  12.930  10.630
 1534BOLB   C1C36809   7.970  12.620  10.500
 1534BOLB   C2C36810   8.050  12.840  10.890
 1534BOLB   C3C36811   8.400  12.820  11.200
 1534BOLB   C4C36812   8.660  12.970  11.510
 1534BOLB   C1D36813   7.800  13.140  10.510
 1534BOLB   C2D36814   8.200  13.090  10.470
 1534BOLB   C3D36815   8.490  13.190  10.680
 1534BOLB   C4D36816   8.820  13.400  10.620
 1535BOLB   NC136817  25.300   6.510  14.780
 1535BOLB   PO136818  25.500   6.450  15.140
 1535BOLB   GL136819  25.530   6.020  15.010
 1535BOLB   GL236820  25.700   6.140  14.760
 1535BOLB   C1A36821  25.650   5.670  15.230
 1535BOLB   C2A36822  25.780   5.260  15.340
 1535BOLB   C3A36823  25.860   4.830  15.400
 1535BOLB   C4A36824  26.020   4.420  15.340
 1535BOLB   C1B36825  25.920   5.730  14.810
 1535BOLB   C2B36826  26.210   5.600  14.540
 1535BOLB   C3B36827  26.610   5.240  14.530
 1535BOLB   C4B36828  26.900   5.310  14.760
 1535BOLB   NC236829  25.620   2.040  16.190
 1535BOLB   PO236830  25.930   1.980  15.750
 1535BOLB   GL336831  25.770   2.310  15.550
 1535BOLB   GL436832  25.520   2.250  15.360
 1535BOLB   C1C36833  25.900   2.820  15.550
 1535BOLB   C2C36834  25.680   3.140  15.440
 1535BOLB   C3C36835  25.880   3.510  15.320
 1535BOLB   C4C36836  26.040   3.920  15.230
 1535BOLB   C1D36837  25.150   2.500  15.500
 1535BOLB   C2D36838  24.860   2.810  15.630
 1535BOLB   C3D36839  24.510   2.970  15.790
 1535BOLB   C4D36840  24.210   3.080  16.060
 1536BOLB   NC136841  18.930   8.340  10.060
 1536BOLB   PO136842  19.140   8.260   9.640
 1536BOLB   GL136843  18.980   7.910   9.330
 1536BOLB   GL236844  18.700   7.710   9.490
 1536BOLB   C1A36845  18.970   7.710   8.910
 1536BOLB   C2A36846  19.180   7.680   8.470
 1536BOLB   C3A36847  19.300   7.740   8.100
 1536BOLB   C4A36848  19.350   7.610   7.680
 1536BOLB   C1B36849  18.580   7.460   9.140
 1536BOLB   C2B36850  18.400   7.000   9.070
 1536BOLB   C3B36851  18.110   6.780   8.790
 1536BOLB   C4B36852  17.700   6.640   8.710
 1536BOLB   NC236853  19.370   5.110   6.190
 1536BOLB   PO236854  19.270   5.550   6.310
 1536BOLB   GL336855  19.180   5.940   6.530
 1536BOLB   GL436856  18.980   6.010   6.460
 1536BOLB   C1C36857  19.190   5.970   6.950
 1536BOLB   C2C36858  19.360   6.360   7.280
 1536BOLB   C3C36859  19.460   6.620   7.560
 1536BOLB   C4C36860  19.310   7.050   7.630
 1536BOLB   C1D36861  19.050   6.400   6.740
 1536BOLB   C2D36862  19.110   6.760   7.100
 1536BOLB   C3D36863  18.950   6.650   7.480
 1536BOLB   C4D36864  18.840   6.850   7.840
 1537BOLB   NC136865  19.670   6.580  10.550
 1537BOLB   PO136866  20.000   6.240  10.670
 1537BOLB   GL136867  19.990   5.760  10.630
 1537BOLB   GL236868  19.680   5.730  10.740
 1537BOLB   C1A36869  20.000   5.490  10.290
 1537BOLB   C2A36870  19.980   5.060  10.200
 1537BOLB   C3A36871  20.100   4.780   9.900
 1537BOLB   C4A36872  20.290   4.480   9.670
 1537BOLB   C1B36873  19.590   5.430  10.580
 1537BOLB   C2B36874  19.600   5.030  10.490
 1537BOLB   C3B36875  19.400   4.680  10.400
 1537BOLB   C4B36876  19.010   4.510  10.420
 1537BOLB   NC236877  21.330   3.440   7.490
 1537BOLB   PO236878  21.470   3.750   7.800
 1537BOLB   GL336879  21.570   4.070   8.150
 1537BOLB   GL436880  21.670   3.840   8.370
 1537BOLB   C1C36881  21.560   4.440   8.490
 1537BOLB   C2C36882  21.160   4.500   8.790
 1537BOLB   C3C36883  20.760   4.690   9.040
 1537BOLB   C4C36884  20.420   4.460   9.270
 1537BOLB   C1D36885  21.520   4.040   8.720
 1537BOLB   C2D36886  21.410   4.040   9.150
 1537BOLB   C3D36887  21.340   4.190   9.640
 1537BOLB   C4D36888  21.220   4.310  10.060
 1538BOLB   NC136889  10.780  14.770  12.530
 1538BOLB   PO136890  10.480  15.050  12.420
 1538BOLB   GL136891  10.090  15.170  12.150
 1538BOLB   GL236892  10.140  15.240  11.770
 1538BOLB   C1A36893   9.660  15.030  11.910
 1538BOLB   C2A36894   9.310  14.850  11.710
 1538BOLB   C3A36895   9.170  14.530  11.380
 1538BOLB   C4A36896   8.970  14.160  11.370
 1538BOLB   C1B36897   9.990  15.410  11.370
 1538BOLB   C2B36898   9.810  15.490  10.940
 1538BOLB   C3B36899   9.600  15.600  10.530
 1538BOLB   C4B36900   9.390  15.280  10.330
 1538BOLB   NC236901   6.750  12.880  11.030
 1538BOLB   PO236902   6.940  13.270  10.860
 1538BOLB   GL336903   7.300  13.480  11.100
 1538BOLB   GL436904   7.260  13.700  11.340
 1538BOLB   C1C36905   7.610  13.240  11.040
 1538BOLB   C2C36906   8.030  13.370  10.980
 1538BOLB   C3C36907   8.500  13.580  11.050
 1538BOLB   C4C36908   8.920  13.850  11.190
 1538BOLB   C1D36909   7.430  13.670  11.770
 1538BOLB   C2D36910   7.770  13.860  11.950
 1538BOLB   C3D36911   8.210  13.920  12.030
 1538BOLB   C4D36912   8.680  13.810  12.150
 1539BOLB   NC136913  24.290  17.530   8.630
 1539BOLB   PO136914  24.750  17.360   8.460
 1539BOLB   GL136915  24.730  17.440   8.040
 1539BOLB   GL236916  24.590  17.250   7.730
 1539BOLB   C1A36917  24.980  17.810   7.750
 1539BOLB   C2A36918  25.090  17.950   7.370
 1539BOLB   C3A36919  25.260  18.130   7.000
 1539BOLB   C4A36920  25.120  18.580   6.810
 1539BOLB   C1B36921  24.970  17.350   7.490
 1539BOLB   C2B36922  25.230  17.290   7.190
 1539BOLB   C3B36923  25.640  17.410   7.130
 1539BOLB   C4B36924  25.850  17.360   6.830
 1539BOLB   NC236925  25.840  18.390   4.510
 1539BOLB   PO236926  26.060  18.610   4.760
 1539BOLB   GL336927  25.760  18.770   5.100
 1539BOLB   GL436928  25.650  19.110   5.110
 1539BOLB   C1C36929  25.840  18.820   5.490
 1539BOLB   C2C36930  25.720  18.810   5.940
 1539BOLB   C3C36931  25.350  19.000   6.170
 1539BOLB   C4C36932  25.020  18.900   6.500
 1539BOLB   C1D36933  25.240  18.890   5.360
 1539BOLB   C2D36934  25.130  18.780   5.790
 1539BOLB   C3D36935  25.090  18.550   6.170
 1539BOLB   C4D36936  25.430  18.570   6.420
 1540BOLB   NC136937  17.540   7.990  10.340
 1540BOLB   PO136938  17.900   8.100  10.200
 1540BOLB   GL136939  17.760   7.600  10.070
 1540BOLB   GL236940  17.410   7.530   9.990
 1540BOLB   C1A36941  17.780   7.270   9.710
 1540BOLB   C2A36942  17.580   7.140   9.490
 1540BOLB   C3A36943  17.370   6.770   9.300
 1540BOLB   C4A36944  17.230   6.440   8.980
 1540BOLB   C1B36945  17.030   7.280   9.720
 1540BOLB   C2B36946  16.680   7.050   9.530
 1540BOLB   C3B36947  16.380   6.670   9.470
 1540BOLB   C4B36948  16.100   6.430   9.110
 1540BOLB   NC236949  17.070   5.650   6.320
 1540BOLB   PO236950  17.110   5.560   6.770
 1540BOLB   GL336951  17.380   5.720   7.020
 1540BOLB   GL436952  17.670   5.710   6.830
 1540BOLB   C1C36953  17.370   6.170   7.180
 1540BOLB   C2C36954  17.390   6.390   7.570
 1540BOLB   C3C36955  17.350   6.450   8.010
 1540BOLB   C4C36956  17.240   6.550   8.510
 1540BOLB   C1D36957  17.930   5.760   7.310
 1540BOLB   C2D36958  17.840   5.890   7.720
 1540BOLB   C3D36959  17.720   6.140   7.980
 1540BOLB   C4D36960  17.860   6.480   8.280
 1541BOLB   NC136961  13.900  13.290   8.350
 1541BOLB   PO136962  14.020  13.750   8.470
 1541BOLB   GL136963  13.940  13.690   8.020
 1541BOLB   GL236964  14.190  13.750   7.830
 1541BOLB   C1A36965  13.870  13.400   7.720
 1541BOLB   C2A36966  13.800  13.130   7.410
 1541BOLB   C3A36967  13.580  12.730   7.190
 1541BOLB   C4A36968  13.210  12.580   6.980
 1541BOLB   C1B36969  14.170  13.790   7.460
 1541BOLB   C2B36970  13.910  13.630   7.100
 1541BOLB   C3B36971  13.730  13.200   6.930
 1541BOLB   C4B36972  13.490  12.870   6.710
 1541BOLB   NC236973  12.590  12.500   4.500
 1541BOLB   PO236974  12.460  12.830   4.750
 1541BOLB   GL336975  12.760  12.440   4.950
 1541BOLB   GL436976  12.840  12.120   4.740
 1541BOLB   C1C36977  12.800  12.290   5.460
 1541BOLB   C2C36978  12.790  12.150   5.930
 1541BOLB   C3C36979  12.740  12.310   6.380
 1541BOLB   C4C36980  12.980  12.360   6.670
 1541BOLB   C1D36981  13.090  12.030   5.100
 1541BOLB   C2D36982  13.290  12.160   5.460
 1541BOLB   C3D36983  13.300  12.280   5.950
 1541BOLB   C4D36984  13.400  12.500   6.360
 1542BOLB   NC136985  20.800  20.880   8.190
 1542BOLB   PO136986  20.930  21.290   7.910
 1542BOLB   GL136987  20.700  21.050   7.640
 1542BOLB   GL236988  20.850  20.960   7.330
 1542BOLB   C1A36989  20.350  21.040   7.350
 1542BOLB   C2A36990  20.150  21.350   7.220
 1542BOLB   C3A36991  19.880  21.730   6.990
 1542BOLB   C4A36992  19.800  22.000   6.700
 1542BOLB   C1B36993  20.680  21.310   7.070
 1542BOLB   C2B36994  20.510  21.190   6.510
 1542BOLB   C3B36995  20.440  20.970   6.170
 1542BOLB   C4B36996  20.190  20.740   5.990
 1542BOLB   NC236997  21.340  23.150   5.110
 1542BOLB   PO236998  20.790  23.170   4.990
 1542BOLB   GL336999  20.480  23.160   5.260
 1542BOLB   GL437000  20.170  23.170   5.090
 1542BOLB   C1C37001  20.300  23.090   5.640
 1542BOLB   C2C37002  20.170  22.770   5.890
 1542BOLB   C3C37003  19.860  22.490   6.070
 1542BOLB   C4C37004  19.760  22.170   6.390
 1542BOLB   C1D37005  20.070  22.750   5.260
 1542BOLB   C2D37006  19.860  22.550   5.580
 1542BOLB   C3D37007  20.060  22.250   5.700
 1542BOLB   C4D37008  20.450  22.060   5.880
 1543BOLB   NC137009  26.290  19.010  11.600
 1543BOLB   PO137010  26.500  18.840  11.250
 1543BOLB   GL137011  26.680  19.110  10.940
 1543BOLB   GL237012  26.530  19.180  10.670
 1543BOLB   C1A37013  26.990  19.300  10.860
 1543BOLB   C2A37014  27.410  19.520  10.620
 1543BOLB   C3A37015  27.640  19.720  10.180
 1543BOLB   C4A37016  27.580  19.900   9.750
 1543BOLB   C1B37017  26.710  19.410  10.390
 1543BOLB   C2B37018  26.980  19.510  10.090
 1543BOLB   C3B37019  27.150  19.570   9.630
 1543BOLB   C4B37020  27.280  19.270   9.340
 1543BOLB   NC237021  29.280  19.210   8.250
 1543BOLB   PO237022  29.060  19.580   8.230
 1543BOLB   GL337023  28.760  19.300   8.480
 1543BOLB   GL437024  28.920  19.090   8.650
 1543BOLB   C1C37025  28.310  19.400   8.660
 1543BOLB   C2C37026  27.900  19.280   8.960
 1543BOLB   C3C37027  27.560  19.490   9.030
 1543BOLB   C4C37028  27.560  19.920   9.280
 1543BOLB   C1D37029  28.440  18.950   8.540
 1543BOLB   C2D37030  28.090  18.900   8.690
 1543BOLB   C3D37031  27.740  18.760   8.790
 1543BOLB   C4D37032  27.520  18.930   9.090
 1544BOLB   NC137033  19.760   5.790  11.350
 1544BOLB   PO137034  20.120   5.790  11.130
 1544BOLB   GL137035  19.960   5.350  11.070
 1544BOLB   GL237036  20.140   5.090  11.080
 1544BOLB   C1A37037  19.680   4.950  10.990
 1544BOLB   C2A37038  19.690   4.580  10.800
 1544BOLB   C3A37039  19.610   4.230  10.550
 1544BOLB   C4A37040  19.900   3.790  10.460
 1544BOLB   C1B37041  20.120   4.850  10.710
 1544BOLB   C2B37042  20.000   4.600  10.360
 1544BOLB   C3B37043  19.960   4.300  10.100
 1544BOLB   C4B37044  20.310   4.040   9.860
 1544BOLB   NC237045  20.040   1.800   9.160
 1544BOLB   PO237046  20.510   1.840   9.040
 1544BOLB   GL337047  20.610   2.000   9.430
 1544BOLB   GL437048  20.760   1.810   9.640
 1544BOLB   C1C37049  20.580   2.480   9.520
 1544BOLB   C2C37050  20.550   2.830   9.820
 1544BOLB   C3C37051  20.310   3.030  10.220
 1544BOLB   C4C37052  20.100   3.480  10.180
 1544BOLB   C1D37053  20.700   2.160   9.900
 1544BOLB   C2D37054  20.530   2.320  10.130
 1544BOLB   C3D37055  20.720   2.740  10.320
 1544BOLB   C4D37056  20.760   3.210  10.170
 1545BOLB   NC137057  12.310  17.430  17.380
 1545BOLB   PO137058  12.370  17.880  17.490
 1545BOLB   GL137059  12.140  17.980  17.870
 1545BOLB   GL237060  12.260  17.930  18.140
 1545BOLB   C1A37061  11.770  18.250  18.100
 1545BOLB   C2A37062  11.610  18.430  18.560
 1545BOLB   C3A37063  11.770  18.570  18.900
 1545BOLB   C4A37064  11.870  18.960  19.090
 1545BOLB   C1B37065  12.090  18.170  18.440
 1545BOLB   C2B37066  12.210  18.410  18.700
 1545BOLB   C3B37067  12.180  18.560  19.250
 1545BOLB   C4B37068  12.320  18.570  19.570
 1545BOLB   NC237069  11.650  19.060  21.300
 1545BOLB   PO237070  11.910  19.430  21.260
 1545BOLB   GL337071  12.190  19.340  20.980
 1545BOLB   GL437072  12.400  19.560  21.000
 1545BOLB   C1C37073  12.360  19.160  20.550
 1545BOLB   C2C37074  12.160  18.890  20.230
 1545BOLB   C3C37075  11.990  18.940  19.800
 1545BOLB   C4C37076  12.010  19.170  19.420
 1545BOLB   C1D37077  12.640  19.680  20.590
 1545BOLB   C2D37078  12.880  19.640  20.210
 1545BOLB   C3D37079  13.180  19.480  19.900
 1545BOLB   C4D37080  13.350  19.360  19.580
 1546BOLB   NC137081  21.900   6.360  17.600
 1546BOLB   PO137082  22.190   6.080  17.390
 1546BOLB   GL137083  22.240   5.560  17.560
 1546BOLB   GL237084  21.900   5.510  17.530
 1546BOLB   C1A37085  22.280   5.140  17.480
 1546BOLB   C2A37086  21.960   4.770  17.680
 1546BOLB   C3A37087  21.880   4.450  17.900
 1546BOLB   C4A37088  22.050   4.080  17.780
 1546BOLB   C1B37089  22.080   5.380  17.960
 1546BOLB   C2B37090  22.290   5.230  18.240
 1546BOLB   C3B37091  22.360   5.450  18.720
 1546BOLB   C4B37092  22.320   5.180  19.160
 1546BOLB   NC237093  22.370   1.450  18.140
 1546BOLB   PO237094  22.800   1.660  17.960
 1546BOLB   GL337095  22.780   2.060  17.910
 1546BOLB   GL437096  22.910   2.280  18.110
 1546BOLB   C1C37097  22.620   2.440  17.750
 1546BOLB   C2C37098  22.540   2.910  17.860
 1546BOLB   C3C37099  22.230   3.230  17.790
 1546BOLB   C4C37100  22.070   3.680  17.740
 1546BOLB   C1D37101  23.000   2.710  18.150
 1546BOLB   C2D37102  23.080   3.100  17.960
 1546BOLB   C3D37103  22.730   3.390  17.800
 1546BOLB   C4D37104  22.510   3.800  17.890
 1547BOLB   NC137105  20.680   7.740  10.060
 1547BOLB   PO137106  21.030   7.850   9.800
 1547BOLB   GL137107  21.190   7.670   9.340
 1547BOLB   GL237108  21.500   7.590   9.300
 1547BOLB   C1A37109  21.170   7.530   8.850
 1547BOLB   C2A37110  21.120   7.430   8.390
 1547BOLB   C3A37111  21.060   7.120   8.110
 1547BOLB   C4A37112  21.270   6.880   7.790
 1547BOLB   C1B37113  21.760   7.100   9.220
 1547BOLB   C2B37114  22.050   6.820   9.070
 1547BOLB   C3B37115  22.240   6.540   8.790
 1547BOLB   C4B37116  22.150   6.160   8.520
 1547BOLB   NC237117  20.180   5.980   5.340
 1547BOLB   PO237118  20.350   6.120   5.700
 1547BOLB   GL337119  20.360   6.420   6.090
 1547BOLB   GL437120  20.160   6.650   6.000
 1547BOLB   C1C37121  20.550   6.480   6.510
 1547BOLB   C2C37122  20.850   6.250   6.810
 1547BOLB   C3C37123  21.180   6.290   7.220
 1547BOLB   C4C37124  21.270   6.470   7.660
 1547BOLB   C1D37125  20.660   6.810   6.090
 1547BOLB   C2D37126  20.680   7.040   6.480
 1547BOLB   C3D37127  21.070   7.190   6.670
 1547BOLB   C4D37128  21.020   7.660   6.600
 1548BOLB   NC137129  10.250  15.520  14.570
 1548BOLB   PO137130  10.160  15.870  14.670
 1548BOLB   GL137131   9.680  16.040  14.880
 1548BOLB   GL237132   9.690  16.230  15.050
 1548BOLB   C1A37133   9.220  16.100  14.710
 1548BOLB   C2A37134   8.810  16.170  14.930
 1548BOLB   C3A37135   8.430  15.990  14.990
 1548BOLB   C4A37136   8.180  16.210  15.380
 1548BOLB   C1B37137   9.330  16.360  15.190
 1548BOLB   C2B37138   8.970  16.410  15.360
 1548BOLB   C3B37139   8.570  16.540  15.490
 1548BOLB   C4B37140   8.270  16.780  15.260
 1548BOLB   NC237141   6.500  18.230  14.480
 1548BOLB   PO237142   6.780  17.950  14.680
 1548BOLB   GL337143   7.060  17.710  14.720
 1548BOLB   GL437144   6.980  17.360  14.610
 1548BOLB   C1C37145   7.290  17.260  15.020
 1548BOLB   C2C37146   7.480  16.970  15.250
 1548BOLB   C3C37147   7.690  16.830  15.520
 1548BOLB   C4C37148   8.040  16.530  15.610
 1548BOLB   C1D37149   7.310  17.460  14.430
 1548BOLB   C2D37150   7.600  17.430  14.020
 1548BOLB   C3D37151   7.940  17.800  13.700
 1548BOLB   C4D37152   8.200  18.020  13.360
 1549BOLB   NC137153  11.930  18.610  16.410
 1549BOLB   PO137154  11.670  18.840  16.700
 1549BOLB   GL137155  11.240  18.860  16.760
 1549BOLB   GL237156  11.100  18.640  16.500
 1549BOLB   C1A37157  10.920  19.140  16.760
 1549BOLB   C2A37158  10.580  19.410  16.440
 1549BOLB   C3A37159  10.350  19.270  16.330
 1549BOLB   C4A37160   9.880  19.100  16.390
 1549BOLB   C1B37161  10.760  18.570  16.760
 1549BOLB   C2B37162  10.510  18.300  16.770
 1549BOLB   C3B37163  10.110  18.230  16.650
 1549BOLB   C4B37164   9.810  18.640  16.610
 1549BOLB   NC237165   7.300  19.470  16.180
 1549BOLB   PO237166   7.570  19.920  16.180
 1549BOLB   GL337167   7.900  19.730  16.280
 1549BOLB   GL437168   7.850  19.460  16.380
 1549BOLB   C1C37169   8.310  19.530  16.200
 1549BOLB   C2C37170   8.680  19.450  16.260
 1549BOLB   C3C37171   9.050  19.220  16.180
 1549BOLB   C4C37172   9.530  19.050  16.260
 1549BOLB   C1D37173   8.040  19.090  16.250
 1549BOLB   C2D37174   8.480  18.940  16.270
 1549BOLB   C3D37175   8.790  18.760  16.010
 1549BOLB   C4D37176   9.010  19.020  15.730
 1550BOLB   NC137177  12.230   8.200  15.880
 1550BOLB   PO137178  12.400   8.090  15.480
 1550BOLB   GL137179  11.970   7.920  15.520
 1550BOLB   GL237180  11.880   7.830  15.790
 1550BOLB   C1A37181  11.880   7.470  15.520
 1550BOLB   C2A37182  11.620   7.060  15.400
 1550BOLB   C3A37183  11.280   6.930  15.500
 1550BOLB   C4A37184  10.840   6.790  15.430
 1550BOLB   C1B37185  11.400   7.630  15.630
 1550BOLB   C2B37186  11.050   7.530  15.300
 1550BOLB   C3B37187  11.010   7.480  14.920
 1550BOLB   C4B37188  10.720   7.290  14.590
 1550BOLB   NC237189   8.620   6.400  16.270
 1550BOLB   PO237190   8.440   6.840  16.250
 1550BOLB   GL337191   8.910   6.780  15.980
 1550BOLB   GL437192   9.050   6.790  15.660
 1550BOLB   C1C37193   9.400   6.690  15.990
 1550BOLB   C2C37194   9.890   6.610  15.940
 1550BOLB   C3C37195  10.200   6.780  15.960
 1550BOLB   C4C37196  10.610   6.810  15.800
 1550BOLB   C1D37197   9.450   6.780  15.450
 1550BOLB   C2D37198   9.820   6.830  15.360
 1550BOLB   C3D37199   9.960   7.300  15.320
 1550BOLB   C4D37200   9.920   7.720  15.050
 1551BOLB   NC137201  18.220  15.560  20.260
 1551BOLB   PO137202  18.350  15.970  20.510
 1551BOLB   GL137203  18.210  15.910  20.890
 1551BOLB   GL237204  17.870  15.980  20.900
 1551BOLB   C1A37205  18.210  15.980  21.420
 1551BOLB   C2A37206  17.830  16.060  21.520
 1551BOLB   C3A37207  17.500  16.370  21.510
 1551BOLB   C4A37208  17.090  16.280  21.770
 1551BOLB   C1B37209  17.750  16.400  21.060
 1551BOLB   C2B37210  17.650  16.770  21.280
 1551BOLB   C3B37211  17.680  17.260  21.230
 1551BOLB   C4B37212  17.530  17.490  21.520
 1551BOLB   NC237213  15.360  15.200  23.530
 1551BOLB   PO237214  15.650  15.440  23.820
 1551BOLB   GL337215  15.580  15.630  23.390
 1551BOLB   GL437216  15.600  15.930  23.270
 1551BOLB   C1C37217  15.930  15.610  22.970
 1551BOLB   C2C37218  16.170  15.860  22.600
 1551BOLB   C3C37219  16.280  16.040  22.170
 1551BOLB   C4C37220  16.680  16.120  21.930
 1551BOLB   C1D37221  15.610  15.990  22.860
 1551BOLB   C2D37222  15.660  15.740  22.480
 1551BOLB   C3D37223  15.960  15.550  22.200
 1551BOLB   C4D37224  16.080  15.370  21.900
 1552BOLB   NC137225  17.620  19.320   8.130
 1552BOLB   PO137226  17.430  19.230   7.700
 1552BOLB   GL137227  17.160  19.250   7.410
 1552BOLB   GL237228  17.090  18.950   7.300
 1552BOLB   C1A37229  16.990  19.400   7.040
 1552BOLB   C2A37230  17.080  19.470   6.610
 1552BOLB   C3A37231  16.950  19.480   6.220
 1552BOLB   C4A37232  16.730  19.430   5.940
 1552BOLB   C1B37233  17.200  18.770   6.940
 1552BOLB   C2B37234  17.240  18.660   6.550
 1552BOLB   C3B37235  17.280  18.560   6.060
 1552BOLB   C4B37236  17.320  18.860   5.730
 1552BOLB   NC237237  16.120  18.410   3.530
 1552BOLB   PO237238  16.040  18.910   3.620
 1552BOLB   GL337239  16.000  19.030   4.130
 1552BOLB   GL437240  15.830  18.840   4.400
 1552BOLB   C1C37241  16.060  19.320   4.460
 1552BOLB   C2C37242  15.920  19.510   4.870
 1552BOLB   C3C37243  16.200  19.420   5.210
 1552BOLB   C4C37244  16.480  19.430   5.560
 1552BOLB   C1D37245  16.000  19.020   4.860
 1552BOLB   C2D37246  15.840  19.070   5.270
 1552BOLB   C3D37247  16.030  19.260   5.720
 1552BOLB   C4D37248  16.240  19.300   6.210
 1553BOLB   NC137249  10.690  13.940  12.210
 1553BOLB   PO137250  10.410  13.660  12.490
 1553BOLB   GL137251   9.920  13.670  12.510
 1553BOLB   GL237252   9.710  13.800  12.190
 1553BOLB   C1A37253   9.610  13.460  12.690
 1553BOLB   C2A37254   9.250  13.300  12.790
 1553BOLB   C3A37255   8.900  13.030  12.580
 1553BOLB   C4A37256   8.510  12.910  12.450
 1553BOLB   C1B37257   9.310  13.650  12.120
 1553BOLB   C2B37258   8.960  13.490  12.400
 1553BOLB   C3B37259   8.710  13.470  12.820
 1553BOLB   C4B37260   8.250  13.570  12.750
 1553BOLB   NC237261   6.030  11.780  13.020
 1553BOLB   PO237262   6.400  11.850  13.260
 1553BOLB   GL337263   6.830  12.110  13.100
 1553BOLB   GL437264   7.020  12.070  12.890
 1553BOLB   C1C37265   6.970  12.560  12.990
 1553BOLB   C2C37266   7.390  12.730  12.930
 1553BOLB   C3C37267   7.850  12.650  12.850
 1553BOLB   C4C37268   8.220  12.630  12.560
 1553BOLB   C1D37269   7.360  12.140  13.040
 1553BOLB   C2D37270   7.710  12.240  13.140
 1553BOLB   C3D37271   8.070  12.420  13.290
 1553BOLB   C4D37272   8.490  12.610  13.010
 1554BOLB   NC137273  11.680  13.910  10.470
 1554BOLB   PO137274  11.530  14.280  10.180
 1554BOLB   GL137275  11.310  13.910  10.130
 1554BOLB   GL237276  11.130  13.880  10.430
 1554BOLB   C1A37277  11.240  13.690   9.860
 1554BOLB   C2A37278  11.020  13.380   9.820
 1554BOLB   C3A37279  10.610  13.330   9.700
 1554BOLB   C4A37280  10.220  13.200   9.660
 1554BOLB   C1B37281  10.760  14.120  10.310
 1554BOLB   C2B37282  10.590  14.280   9.960
 1554BOLB   C3B37283  10.520  14.270   9.580
 1554BOLB   C4B37284  10.470  14.450   9.150
 1554BOLB   NC237285   7.940  12.210   9.070
 1554BOLB   PO237286   8.360  12.230   8.970
 1554BOLB   GL337287   8.660  12.130   9.110
 1554BOLB   GL437288   8.920  12.030   8.920
 1554BOLB   C1C37289   8.890  12.430   9.360
 1554BOLB   C2C37290   9.310  12.440   9.570
 1554BOLB   C3C37291   9.640  12.750   9.550
 1554BOLB   C4C37292   9.870  13.100   9.520
 1554BOLB   C1D37293   9.190  11.840   9.370
 1554BOLB   C2D37294   9.430  11.870   9.680
 1554BOLB   C3D37295   9.920  11.930   9.670
 1554BOLB   C4D37296  10.280  12.230   9.780
 1555BOLB   NC137297  15.120   6.370  13.180
 1555BOLB   PO137298  15.470   6.530  12.970
 1555BOLB   GL137299  15.200   6.070  12.810
 1555BOLB   GL237300  14.860   6.110  12.670
 1555BOLB   C1A37301  15.280   5.580  12.630
 1555BOLB   C2A37302  15.250   5.190  12.460
 1555BOLB   C3A37303  15.120   4.900  12.150
 1555BOLB   C4A37304  15.280   4.550  12.000
 1555BOLB   C1B37305  14.770   5.670  12.710
 1555BOLB   C2B37306  14.760   5.220  12.610
 1555BOLB   C3B37307  14.550   4.900  12.320
 1555BOLB   C4B37308  14.270   4.560  12.200
 1555BOLB   NC237309  13.940   2.410  11.170
 1555BOLB   PO237310  14.430   2.390  11.320
 1555BOLB   GL337311  14.640   2.770  11.270
 1555BOLB   GL437312  14.510   3.110  11.370
 1555BOLB   C1C37313  15.040   3.050  11.300
 1555BOLB   C2C37314  15.280   3.410  11.330
 1555BOLB   C3C37315  15.370   3.860  11.430
 1555BOLB   C4C37316  15.390   4.190  11.730
 1555BOLB   C1D37317  14.550   3.420  11.240
 1555BOLB   C2D37318  14.510   3.780  11.330
 1555BOLB   C3D37319  14.480   4.230  11.650
 1555BOLB   C4D37320  14.750   4.470  11.900
 1556BOLB   NC137321  14.840  16.170   7.660
 1556BOLB   PO137322  14.840  15.750   7.510
 1556BOLB   GL137323  14.770  15.680   7.150
 1556BOLB   GL237324  14.760  15.910   6.890
 1556BOLB   C1A37325  14.840  15.340   6.720
 1556BOLB   C2A37326  14.810  15.160   6.350
 1556BOLB   C3A37327  14.670  15.030   5.920
 1556BOLB   C4A37328  14.440  14.750   5.630
 1556BOLB   C1B37329  15.070  15.970   6.550
 1556BOLB   C2B37330  15.250  16.300   6.210
 1556BOLB   C3B37331  15.280  16.330   5.780
 1556BOLB   C4B37332  14.950  15.960   5.560
 1556BOLB   NC237333  12.750  16.100   4.140
 1556BOLB   PO237334  12.810  15.670   3.930
 1556BOLB   GL337335  12.970  15.700   4.440
 1556BOLB   GL437336  13.300  15.850   4.500
 1556BOLB   C1C37337  13.200  15.410   4.700
 1556BOLB   C2C37338  13.550  15.210   4.790
 1556BOLB   C3C37339  13.870  15.000   5.100
 1556BOLB   C4C37340  14.050  14.840   5.410
 1556BOLB   C1D37341  13.660  15.760   4.730
 1556BOLB   C2D37342  13.960  15.590   5.020
 1556BOLB   C3D37343  14.080  15.440   5.360
 1556BOLB   C4D37344  14.210  15.270   5.730
 1557BOLB   NC137345  10.750  12.500  12.430
 1557BOLB   PO137346  10.430  12.640  12.260
 1557BOLB   GL137347  10.110  12.710  12.090
 1557BOLB   GL237348  10.160  12.970  11.990
 1557BOLB   C1A37349   9.670  12.690  12.130
 1557BOLB   C2A37350   9.280  12.590  12.390
 1557BOLB   C3A37351   8.950  12.660  12.120
 1557BOLB   C4A37352   8.790  12.500  11.780
 1557BOLB   C1B37353   9.830  12.980  11.690
 1557BOLB   C2B37354   9.580  12.900  11.280
 1557BOLB   C3B37355   9.230  12.770  11.240
 1557BOLB   C4B37356   8.880  12.940  10.990
 1557BOLB   NC237357   6.780  13.500  11.290
 1557BOLB   PO237358   6.640  13.160  11.570
 1557BOLB   GL337359   6.950  13.310  11.850
 1557BOLB   GL437360   6.970  13.600  11.820
 1557BOLB   C1C37361   7.290  12.890  12.000
 1557BOLB   C2C37362   7.580  12.620  11.850
 1557BOLB   C3C37363   7.940  12.290  11.800
 1557BOLB   C4C37364   8.340  12.420  11.600
 1557BOLB   C1D37365   7.050  13.960  11.940
 1557BOLB   C2D37366   7.370  14.230  11.890
 1557BOLB   C3D37367   7.710  14.420  12.160
 1557BOLB   C4D37368   8.170  14.430  12.260
 1558BOLB   NC137369  27.500   9.390  14.700
 1558BOLB   PO137370  27.150   9.090  14.580
 1558BOLB   GL137371  27.460   8.850  14.650
 1558BOLB   GL237372  27.440   8.620  14.500
 1558BOLB   C1A37373  27.860   8.820  14.380
 1558BOLB   C2A37374  28.180   8.540  14.570
 1558BOLB   C3A37375  28.490   8.180  14.560
 1558BOLB   C4A37376  28.720   7.870  14.860
 1558BOLB   C1B37377  27.730   8.250  14.450
 1558BOLB   C2B37378  27.970   7.880  14.450
 1558BOLB   C3B37379  28.370   7.730  14.390
 1558BOLB   C4B37380  28.650   7.520  14.120
 1558BOLB   NC237381  30.700   6.670  14.400
 1558BOLB   PO237382  30.960   6.800  14.090
 1558BOLB   GL337383  30.570   7.080  14.170
 1558BOLB   GL437384  30.290   6.870  14.210
 1558BOLB   C1C37385  30.210   7.350  14.340
 1558BOLB   C2C37386  29.750   7.400  14.450
 1558BOLB   C3C37387  29.300   7.520  14.510
 1558BOLB   C4C37388  29.170   7.860  14.700
 1558BOLB   C1D37389  29.850   6.700  14.340
 1558BOLB   C2D37390  29.480   6.940  14.480
 1558BOLB   C3D37391  29.510   7.180  14.090
 1558BOLB   C4D37392  29.160   7.320  13.770
 1559BOLB   NC137393  23.510   5.920  14.850
 1559BOLB   PO137394  23.630   5.830  14.490
 1559BOLB   GL137395  23.810   5.460  14.470
 1559BOLB   GL237396  23.750   5.250  14.350
 1559BOLB   C1A37397  24.150   5.180  14.660
 1559BOLB   C2A37398  24.390   4.850  14.840
 1559BOLB   C3A37399  24.570   4.450  14.790
 1559BOLB   C4A37400  24.610   4.080  15.150
 1559BOLB   C1B37401  24.000   4.880  14.260
 1559BOLB   C2B37402  24.420   4.720  14.380
 1559BOLB   C3B37403  24.890   4.660  14.490
 1559BOLB   C4B37404  25.310   4.440  14.400
 1559BOLB   NC237405  24.880   1.930  16.310
 1559BOLB   PO237406  25.190   1.800  16.690
 1559BOLB   GL337407  25.210   2.250  16.450
 1559BOLB   GL437408  25.450   2.500  16.420
 1559BOLB   C1C37409  25.050   2.670  16.140
 1559BOLB   C2C37410  25.000   3.120  16.050
 1559BOLB   C3C37411  24.820   3.380  15.700
 1559BOLB   C4C37412  24.740   3.680  15.420
 1559BOLB   C1D37413  25.440   2.970  16.340
 1559BOLB   C2D37414  25.310   3.420  16.220
 1559BOLB   C3D37415  24.880   3.610  16.160
 1559BOLB   C4D37416  24.430   3.510  15.960
 1560BOLB   NC137417  12.500   9.680  16.970
 1560BOLB   PO137418  12.430   9.270  16.680
 1560BOLB   GL137419  12.020   9.220  16.610
 1560BOLB   GL237420  11.810   9.410  16.550
 1560BOLB   C1A37421  11.810   8.870  16.680
 1560BOLB   C2A37422  11.720   8.550  17.050
 1560BOLB   C3A37423  11.720   8.340  17.410
 1560BOLB   C4A37424  11.460   8.180  17.780
 1560BOLB   C1B37425  11.370   9.420  16.780
 1560BOLB   C2B37426  10.980   9.490  17.200
 1560BOLB   C3B37427  10.910   9.490  17.630
 1560BOLB   C4B37428  11.070   9.740  18.060
 1560BOLB   NC237429  10.320   6.180  18.540
 1560BOLB   PO237430  10.030   6.480  18.760
 1560BOLB   GL337431  10.390   6.800  18.640
 1560BOLB   GL437432  10.650   6.720  18.450
 1560BOLB   C1C37433  10.420   7.260  18.600
 1560BOLB   C2C37434  10.670   7.550  18.530
 1560BOLB   C3C37435  11.060   7.780  18.420
 1560BOLB   C4C37436  11.280   7.960  18.100
 1560BOLB   C1D37437  11.090   6.770  18.240
 1560BOLB   C2D37438  11.360   6.810  17.920
 1560BOLB   C3D37439  11.560   7.050  17.570
 1560BOLB   C4D37440  11.660   6.800  17.210
 1561BOLB   NC137441  16.110  22.600   9.960
 1561BOLB   PO137442  16.430  22.820  10.300
 1561BOLB   GL137443  16.320  23.230  10.130
 1561BOLB   GL237444  16.110  23.120   9.940
 1561BOLB   C1A37445  16.160  23.630  10.080
 1561BOLB   C2A37446  15.990  23.830   9.830
 1561BOLB   C3A37447  16.090  23.950   9.420
 1561BOLB   C4A37448  16.150  24.230   9.100
 1561BOLB   C1B37449  16.030  23.390   9.600
 1561BOLB   C2B37450  15.620  23.670   9.580
 1561BOLB   C3B37451  15.460  23.820   9.900
 1561BOLB   C4B37452  15.370  24.330  10.000
 1561BOLB   NC237453  14.920  26.790   9.180
 1561BOLB   PO237454  14.950  26.410   8.940
 1561BOLB   GL337455  15.170  26.020   8.990
 1561BOLB   GL437456  14.960  25.770   8.750
 1561BOLB   C1C37457  15.430  25.710   8.950
 1561BOLB   C2C37458  15.660  25.330   9.040
 1561BOLB   C3C37459  15.770  24.970   9.060
 1561BOLB   C4C37460  15.890  24.550   8.870
 1561BOLB   C1D37461  14.900  25.620   9.190
 1561BOLB   C2D37462  15.290  25.350   9.480
 1561BOLB   C3D37463  15.650  25.090   9.540
 1561BOLB   C4D37464  15.990  24.930   9.610
 1562BOLB   NC137465  17.860  12.620   7.630
 1562BOLB   PO137466  18.300  12.560   7.470
 1562BOLB   GL137467  18.100  12.740   7.160
 1562BOLB   GL237468  17.750  12.570   7.170
 1562BOLB   C1A37469  18.280  12.550   6.810
 1562BOLB   C2A37470  18.260  12.210   6.590
 1562BOLB   C3A37471  18.250  12.180   6.150
 1562BOLB   C4A37472  18.270  12.090   5.630
 1562BOLB   C1B37473  17.800  12.310   6.800
 1562BOLB   C2B37474  17.860  11.990   6.340
 1562BOLB   C3B37475  18.000  11.780   6.000
 1562BOLB   C4B37476  17.960  11.610   5.590
 1562BOLB   NC237477  18.640  11.630   3.520
 1562BOLB   PO237478  18.440  11.230   3.370
 1562BOLB   GL337479  18.260  11.320   3.800
 1562BOLB   GL437480  18.490  11.140   3.980
 1562BOLB   C1C37481  18.230  11.600   4.130
 1562BOLB   C2C37482  18.220  11.930   4.360
 1562BOLB   C3C37483  18.110  12.120   4.790
 1562BOLB   C4C37484  18.000  12.140   5.230
 1562BOLB   C1D37485  18.330  11.230   4.430
 1562BOLB   C2D37486  18.160  11.540   4.700
 1562BOLB   C3D37487  18.250  11.720   5.090
 1562BOLB   C4D37488  18.630  11.770   5.400
 1563BOLB   NC137489  11.570  18.800  12.020
 1563BOLB   PO137490  11.530  18.320  12.200
 1563BOLB   GL137491  11.090  18.520  12.110
 1563BOLB   GL237492  10.720  18.480  12.160
 1563BOLB   C1A37493  10.820  18.830  11.880
 1563BOLB   C2A37494  10.570  19.020  11.690
 1563BOLB   C3A37495  10.440  19.360  11.480
 1563BOLB   C4A37496  10.190  19.790  11.320
 1563BOLB   C1B37497  10.360  18.700  12.010
 1563BOLB   C2B37498  10.090  18.890  11.720
 1563BOLB   C3B37499   9.770  18.690  11.660
 1563BOLB   C4B37500   9.420  18.440  11.660
 1563BOLB   NC237501   8.050  20.920  11.780
 1563BOLB   PO237502   8.190  21.160  11.390
 1563BOLB   GL337503   8.490  20.930  11.560
 1563BOLB   GL437504   8.550  20.780  11.910
 1563BOLB   C1C37505   8.790  20.560  11.450
 1563BOLB   C2C37506   9.030  20.310  11.330
 1563BOLB   C3C37507   9.440  20.110  11.560
 1563BOLB   C4C37508   9.820  20.050  11.500
 1563BOLB   C1D37509   8.910  20.560  11.920
 1563BOLB   C2D37510   9.260  20.550  11.870
 1563BOLB   C3D37511   9.620  20.780  11.920
 1563BOLB   C4D37512   9.790  20.750  12.340
 1564BOLB   NC137513  17.980  14.630   7.000
 1564BOLB   PO137514  17.690  14.360   7.110
 1564BOLB   GL137515  17.490  14.670   6.810
 1564BOLB   GL237516  17.230  14.880   6.840
 1564BOLB   C1A37517  17.410  14.580   6.370
 1564BOLB   C2A37518  17.440  14.360   5.990
 1564BOLB   C3A37519  17.180  14.140   5.840
 1564BOLB   C4A37520  17.110  13.740   5.760
 1564BOLB   C1B37521  17.100  14.940   6.300
 1564BOLB   C2B37522  16.820  15.060   6.070
 1564BOLB   C3B37523  16.680  15.330   5.760
 1564BOLB   C4B37524  16.490  15.500   5.410
 1564BOLB   NC237525  16.810  12.860   3.370
 1564BOLB   PO237526  16.760  12.410   3.310
 1564BOLB   GL337527  16.900  12.520   3.750
 1564BOLB   GL437528  16.910  12.300   3.960
 1564BOLB   C1C37529  16.980  12.810   4.150
 1564BOLB   C2C37530  17.050  12.980   4.590
 1564BOLB   C3C37531  17.080  13.350   5.040
 1564BOLB   C4C37532  17.180  13.560   5.390
 1564BOLB   C1D37533  17.210  12.340   4.280
 1564BOLB   C2D37534  17.140  12.470   4.630
 1564BOLB   C3D37535  16.720  12.660   4.800
 1564BOLB   C4D37536  16.250  12.840   4.800
 1565BOLB   NC137537  23.960  11.540   8.070
 1565BOLB   PO137538  24.260  11.800   7.960
 1565BOLB   GL137539  24.540  11.900   7.590
 1565BOLB   GL237540  24.740  11.990   7.620
 1565BOLB   C1A37541  24.280  11.980   7.080
 1565BOLB   C2A37542  24.100  11.780   6.800
 1565BOLB   C3A37543  24.150  11.810   6.440
 1565BOLB   C4A37544  24.380  11.860   6.070
 1565BOLB   C1B37545  24.720  11.770   7.150
 1565BOLB   C2B37546  24.810  11.550   6.830
 1565BOLB   C3B37547  25.130  11.360   6.570
 1565BOLB   C4B37548  25.420  11.350   6.140
 1565BOLB   NC237549  24.850  10.690   3.830
 1565BOLB   PO237550  25.070  10.930   4.010
 1565BOLB   GL337551  24.950  11.010   4.400
 1565BOLB   GL437552  24.870  10.830   4.630
 1565BOLB   C1C37553  25.040  11.290   4.670
 1565BOLB   C2C37554  24.840  11.500   5.060
 1565BOLB   C3C37555  24.680  11.690   5.360
 1565BOLB   C4C37556  24.650  11.740   5.760
 1565BOLB   C1D37557  24.850  11.010   5.040
 1565BOLB   C2D37558  24.780  11.120   5.430
 1565BOLB   C3D37559  24.660  11.150   5.840
 1565BOLB   C4D37560  24.340  11.400   6.180
 1566BOLB   NC137561  14.300  13.390   8.690
 1566BOLB   PO137562  14.420  13.260   8.140
 1566BOLB   GL137563  14.320  13.220   7.750
 1566BOLB   GL237564  14.590  13.450   7.660
 1566BOLB   C1A37565  14.270  12.840   7.510
 1566BOLB   C2A37566  14.150  12.790   7.150
 1566BOLB   C3A37567  13.940  12.730   6.840
 1566BOLB   C4A37568  13.870  12.850   6.380
 1566BOLB   C1B37569  14.470  13.240   7.230
 1566BOLB   C2B37570  14.330  13.330   6.910
 1566BOLB   C3B37571  14.130  13.300   6.540
 1566BOLB   C4B37572  14.240  13.540   6.250
 1566BOLB   NC237573  13.530  13.190   4.040
 1566BOLB   PO237574  13.840  12.870   4.260
 1566BOLB   GL337575  13.770  13.210   4.530
 1566BOLB   GL437576  13.460  13.190   4.820
 1566BOLB   C1C37577  13.880  13.400   4.910
 1566BOLB   C2C37578  13.760  13.450   5.360
 1566BOLB   C3C37579  13.960  13.390   5.730
 1566BOLB   C4C37580  14.060  13.120   6.060
 1566BOLB   C1D37581  13.370  13.090   5.250
 1566BOLB   C2D37582  13.660  12.910   5.550
 1566BOLB   C3D37583  14.040  12.750   5.610
 1566BOLB   C4D37584  14.340  12.430   5.630
 1567BOLB   NC137585  12.170  18.230  11.800
 1567BOLB   PO137586  11.710  18.410  11.700
 1567BOLB   GL137587  11.280  18.590  11.630
 1567BOLB   GL237588  11.000  18.460  11.460
 1567BOLB   C1A37589  11.170  18.930  11.490
 1567BOLB   C2A37590  10.920  19.220  11.360
 1567BOLB   C3A37591  10.720  19.480  11.080
 1567BOLB   C4A37592  10.300  19.440  10.990
 1567BOLB   C1B37593  10.650  18.670  11.240
 1567BOLB   C2B37594  10.260  18.940  11.190
 1567BOLB   C3B37595   9.780  19.130  11.390
 1567BOLB   C4B37596   9.920  19.570  11.630
 1567BOLB   NC237597   8.390  20.200   9.910
 1567BOLB   PO237598   8.610  20.150   9.480
 1567BOLB   GL337599   8.900  20.030   9.750
 1567BOLB   GL437600   8.970  20.360  10.040
 1567BOLB   C1C37601   9.040  19.790  10.170
 1567BOLB   C2C37602   9.260  19.690  10.590
 1567BOLB   C3C37603   9.580  19.540  10.570
 1567BOLB   C4C37604   9.810  19.390  10.840
 1567BOLB   C1D37605   9.210  20.280  10.540
 1567BOLB   C2D37606   9.640  20.260  10.630
 1567BOLB   C3D37607   9.840  19.960  10.780
 1567BOLB   C4D37608  10.050  19.720  10.570
 1568BOLB   NC137609  14.720  22.660  12.630
 1568BOLB   PO137610  14.530  22.630  13.040
 1568BOLB   GL137611  14.350  22.990  12.830
 1568BOLB   GL237612  14.420  23.170  13.080
 1568BOLB   C1A37613  14.120  23.360  12.740
 1568BOLB   C2A37614  13.920  23.730  12.860
 1568BOLB   C3A37615  13.600  23.900  12.810
 1568BOLB   C4A37616  13.230  24.130  13.060
 1568BOLB   C1B37617  14.350  23.540  13.130
 1568BOLB   C2B37618  14.310  23.940  13.160
 1568BOLB   C3B37619  14.070  24.250  13.180
 1568BOLB   C4B37620  13.780  24.430  13.320
 1568BOLB   NC237621  11.080  25.680  12.980
 1568BOLB   PO237622  11.340  25.380  13.270
 1568BOLB   GL337623  11.320  24.980  13.350
 1568BOLB   GL437624  11.050  24.900  13.520
 1568BOLB   C1C37625  11.700  24.790  13.310
 1568BOLB   C2C37626  12.090  24.550  13.170
 1568BOLB   C3C37627  12.480  24.430  13.210
 1568BOLB   C4C37628  12.760  24.070  13.090
 1568BOLB   C1D37629  11.220  24.550  13.630
 1568BOLB   C2D37630  11.500  24.200  13.780
 1568BOLB   C3D37631  11.760  23.750  13.750
 1568BOLB   C4D37632  12.090  23.460  13.640
 1569BOLB   NC137633  16.490  23.120  15.150
 1569BOLB   PO137634  16.080  22.830  15.250
 1569BOLB   GL137635  15.760  23.040  15.360
 1569BOLB   GL237636  15.580  23.030  15.090
 1569BOLB   C1A37637  15.480  23.290  15.580
 1569BOLB   C2A37638  15.420  23.770  15.660
 1569BOLB   C3A37639  15.600  24.150  15.540
 1569BOLB   C4A37640  15.890  24.460  15.250
 1569BOLB   C1B37641  15.560  23.530  15.130
 1569BOLB   C2B37642  15.680  23.950  15.100
 1569BOLB   C3B37643  15.700  24.340  14.770
 1569BOLB   C4B37644  15.870  24.730  14.790
 1569BOLB   NC237645  15.690  27.250  15.990
 1569BOLB   PO237646  15.870  26.960  15.820
 1569BOLB   GL337647  15.960  26.550  15.700
 1569BOLB   GL437648  15.620  26.380  15.740
 1569BOLB   C1C37649  16.000  26.050  15.860
 1569BOLB   C2C37650  16.110  25.610  15.800
 1569BOLB   C3C37651  16.190  25.230  15.490
 1569BOLB   C4C37652  15.870  24.940  15.280
 1569BOLB   C1D37653  15.880  26.200  15.360
 1569BOLB   C2D37654  16.280  25.990  15.460
 1569BOLB   C3D37655  16.770  26.020  15.450
 1569BOLB   C4D37656  16.920  26.200  15.810
 1570BOLB   NC137657  13.330  20.560  10.910
 1570BOLB   PO137658  13.030  20.270  10.840
 1570BOLB   GL137659  12.620  20.290  10.750
 1570BOLB   GL237660  12.510  20.360  11.040
 1570BOLB   C1A37661  12.220  20.370  10.640
 1570BOLB   C2A37662  11.940  20.650  10.540
 1570BOLB   C3A37663  11.560  20.810  10.530
 1570BOLB   C4A37664  11.090  20.880  10.640
 1570BOLB   C1B37665  12.430  20.610  11.190
 1570BOLB   C2B37666  12.140  20.830  11.050
 1570BOLB   C3B37667  11.840  20.910  11.000
 1570BOLB   C4B37668  11.710  21.260  11.170
 1570BOLB   NC237669   8.930  21.790  10.730
 1570BOLB   PO237670   8.990  21.380  10.420
 1570BOLB   GL337671   9.320  21.170  10.340
 1570BOLB   GL437672   9.420  21.190  10.030
 1570BOLB   C1C37673   9.320  20.780  10.570
 1570BOLB   C2C37674   9.830  20.680  10.830
 1570BOLB   C3C37675  10.220  20.840  10.730
 1570BOLB   C4C37676  10.660  20.930  10.500
 1570BOLB   C1D37677   9.280  20.700  10.070
 1570BOLB   C2D37678   9.520  20.360  10.110
 1570BOLB   C3D37679   9.890  20.160   9.960
 1570BOLB   C4D37680  10.040  19.860   9.780
 1571BOLB   NC137681  19.530  12.680   8.300
 1571BOLB   PO137682  19.470  12.910   7.870
 1571BOLB   GL137683  19.590  12.770   7.450
 1571BOLB   GL237684  19.890  12.820   7.270
 1571BOLB   C1A37685  19.570  12.790   6.960
 1571BOLB   C2A37686  19.550  12.720   6.550
 1571BOLB   C3A37687  19.470  12.690   6.140
 1571BOLB   C4A37688  19.320  12.690   5.730
 1571BOLB   C1B37689  20.010  12.830   6.790
 1571BOLB   C2B37690  19.950  12.970   6.350
 1571BOLB   C3B37691  19.900  12.950   5.850
 1571BOLB   C4B37692  20.070  12.710   5.410
 1571BOLB   NC237693  19.330  13.300   3.420
 1571BOLB   PO237694  19.630  12.900   3.260
 1571BOLB   GL337695  19.720  13.130   3.670
 1571BOLB   GL437696  19.550  13.330   3.870
 1571BOLB   C1C37697  19.610  12.770   4.070
 1571BOLB   C2C37698  19.660  12.820   4.520
 1571BOLB   C3C37699  19.690  12.890   4.930
 1571BOLB   C4C37700  19.580  12.640   5.360
 1571BOLB   C1D37701  19.490  13.710   4.000
 1571BOLB   C2D37702  19.260  14.140   4.000
 1571BOLB   C3D37703  19.320  14.450   4.240
 1571BOLB   C4D37704  19.120  14.760   4.480
 1572BOLB   NC137705  11.270  24.670  11.500
 1572BOLB   PO137706  11.610  24.820  11.430
 1572BOLB   GL137707  11.830  24.450  11.520
 1572BOLB   GL237708  11.580  24.240  11.390
 1572BOLB   C1A37709  12.120  24.260  11.470
 1572BOLB   C2A37710  12.240  23.990  11.630
 1572BOLB   C3A37711  12.410  23.840  12.040
 1572BOLB   C4A37712  12.400  24.030  12.410
 1572BOLB   C1B37713  11.560  23.780  11.420
 1572BOLB   C2B37714  11.760  23.460  11.640
 1572BOLB   C3B37715  11.960  23.650  11.910
 1572BOLB   C4B37716  12.220  23.550  12.410
 1572BOLB   NC237717  10.430  25.240  12.370
 1572BOLB   PO237718  10.620  24.980  12.720
 1572BOLB   GL337719  10.960  24.730  12.820
 1572BOLB   GL437720  11.210  24.740  12.640
 1572BOLB   C1C37721  11.290  24.510  13.110
 1572BOLB   C2C37722  11.630  24.240  13.240
 1572BOLB   C3C37723  11.830  24.110  12.940
 1572BOLB   C4C37724  12.280  24.120  12.790
 1572BOLB   C1D37725  11.560  24.820  12.740
 1572BOLB   C2D37726  11.980  24.980  12.800
 1572BOLB   C3D37727  12.370  24.950  12.910
 1572BOLB   C4D37728  12.660  25.260  13.040
 1573BOLB   NC137729  12.420  19.780  11.060
 1573BOLB   PO137730  12.150  19.620  11.170
 1573BOLB   GL137731  11.890  19.630  10.800
 1573BOLB   GL237732  11.680  19.430  10.690
 1573BOLB   C1A37733  11.730  19.920  10.670
 1573BOLB   C2A37734  11.490  20.230  10.580
 1573BOLB   C3A37735  11.180  20.440  10.450
 1573BOLB   C4A37736  11.120  20.750  10.140
 1573BOLB   C1B37737  11.280  19.740  10.520
 1573BOLB   C2B37738  10.950  19.710  10.330
 1573BOLB   C3B37739  10.860  20.090  10.280
 1573BOLB   C4B37740  10.710  20.490  10.260
 1573BOLB   NC237741   9.470  21.990   9.130
 1573BOLB   PO237742   9.260  21.670   9.340
 1573BOLB   GL337743   9.690  21.520   9.290
 1573BOLB   GL437744   9.760  21.420   9.650
 1573BOLB   C1C37745  10.030  21.400   9.130
 1573BOLB   C2C37746  10.420  21.190   9.310
 1573BOLB   C3C37747  10.830  21.100   9.450
 1573BOLB   C4C37748  11.040  20.910   9.780
 1573BOLB   C1D37749   9.830  21.070   9.420
 1573BOLB   C2D37750  10.010  20.560   9.310
 1573BOLB   C3D37751  10.290  20.340   9.610
 1573BOLB   C4D37752  10.430  20.210   9.980
 1574BOLB   NC137753  26.330  19.210  12.400
 1574BOLB   PO137754  26.430  19.190  12.040
 1574BOLB   GL137755  26.810  19.090  11.720
 1574BOLB   GL237756  26.980  18.910  11.390
 1574BOLB   C1A37757  27.180  19.410  11.660
 1574BOLB   C2A37758  27.640  19.310  11.690
 1574BOLB   C3A37759  28.080  19.360  11.850
 1574BOLB   C4A37760  28.400  19.700  11.720
 1574BOLB   C1B37761  27.340  19.200  11.240
 1574BOLB   C2B37762  27.490  19.620  11.330
 1574BOLB   C3B37763  27.590  19.900  11.600
 1574BOLB   C4B37764  27.790  20.240  11.470
 1574BOLB   NC237765  30.910  20.610  12.050
 1574BOLB   PO237766  30.690  20.380  11.970
 1574BOLB   GL337767  30.320  20.260  12.010
 1574BOLB   GL437768  30.130  20.480  11.730
 1574BOLB   C1C37769  30.130  20.020  12.210
 1574BOLB   C2C37770  29.670  19.860  12.290
 1574BOLB   C3C37771  29.290  19.780  12.050
 1574BOLB   C4C37772  28.800  19.610  11.940
 1574BOLB   C1D37773  29.820  20.180  11.820
 1574BOLB   C2D37774  29.460  20.250  11.950
 1574BOLB   C3D37775  28.900  20.150  11.990
 1574BOLB   C4D37776  28.430  20.460  12.090
 1575BOLB   NC137777  15.350   5.400  15.900
 1575BOLB   PO137778  15.180   5.490  15.530
 1575BOLB   GL137779  14.850   5.250  15.510
 1575BOLB   GL237780  14.880   4.940  15.360
 1575BOLB   C1A37781  14.440   5.230  15.650
 1575BOLB   C2A37782  14.080   4.980  15.710
 1575BOLB   C3A37783  14.010   4.490  15.670
 1575BOLB   C4A37784  13.950   4.150  15.420
 1575BOLB   C1B37785  14.620   4.710  15.600
 1575BOLB   C2B37786  14.520   4.510  15.940
 1575BOLB   C3B37787  14.150   4.350  16.130
 1575BOLB   C4B37788  13.780   4.190  16.120
 1575BOLB   NC237789  13.080   2.290  14.210
 1575BOLB   PO237790  13.030   2.740  13.930
 1575BOLB   GL337791  13.350   2.760  14.230
 1575BOLB   GL437792  13.540   2.550  14.020
 1575BOLB   C1C37793  13.760   2.820  14.390
 1575BOLB   C2C37794  13.890   3.000  14.660
 1575BOLB   C3C37795  13.920   3.400  14.840
 1575BOLB   C4C37796  13.950   3.710  15.270
 1575BOLB   C1D37797  13.740   2.860  13.820
 1575BOLB   C2D37798  13.710   3.260  13.620
 1575BOLB   C3D37799  13.570   3.600  13.570
 1575BOLB   C4D37800  13.830   3.910  13.440
 1576BOLB   NC137801  10.500  15.480  12.060
 1576BOLB   PO137802  10.620  15.800  11.780
 1576BOLB   GL137803  10.120  15.800  11.940
 1576BOLB   GL237804   9.970  16.070  11.940
 1576BOLB   C1A37805   9.810  15.590  11.870
 1576BOLB   C2A37806   9.390  15.500  11.840
 1576BOLB   C3A37807   8.990  15.200  11.650
 1576BOLB   C4A37808   8.410  15.300  11.740
 1576BOLB   C1B37809   9.470  16.110  11.890
 1576BOLB   C2B37810   8.950  16.170  11.810
 1576BOLB   C3B37811   8.670  16.130  11.410
 1576BOLB   C4B37812   8.360  16.230  11.200
 1576BOLB   NC237813   6.550  15.700  10.360
 1576BOLB   PO237814   6.710  15.370  10.570
 1576BOLB   GL337815   7.050  15.610  10.650
 1576BOLB   GL437816   7.260  15.590  10.380
 1576BOLB   C1C37817   7.520  15.720  10.850
 1576BOLB   C2C37818   7.750  15.710  11.220
 1576BOLB   C3C37819   7.800  15.520  11.620
 1576BOLB   C4C37820   8.100  15.440  11.870
 1576BOLB   C1D37821   7.680  15.650  10.270
 1576BOLB   C2D37822   8.210  15.600  10.260
 1576BOLB   C3D37823   8.570  15.410  10.550
 1576BOLB   C4D37824   8.780  15.020  10.760
 1577BOLB   NC137825  13.030  12.020   9.520
 1577BOLB   PO137826  13.330  11.770   9.450
 1577BOLB   GL137827  13.020  11.440   9.230
 1577BOLB   GL237828  13.120  11.200   9.010
 1577BOLB   C1A37829  12.730  11.520   8.810
 1577BOLB   C2A37830  12.490  11.750   8.590
 1577BOLB   C3A37831  12.240  11.930   8.290
 1577BOLB   C4A37832  11.890  11.980   8.000
 1577BOLB   C1B37833  12.900  11.020   8.610
 1577BOLB   C2B37834  12.560  10.840   8.440
 1577BOLB   C3B37835  12.200  10.840   8.310
 1577BOLB   C4B37836  11.910  10.870   7.950
 1577BOLB   NC237837   9.990  11.730   6.630
 1577BOLB   PO237838   9.610  11.730   6.920
 1577BOLB   GL337839   9.900  11.940   7.250
 1577BOLB   GL437840   9.800  12.290   7.290
 1577BOLB   C1C37841  10.190  12.170   7.480
 1577BOLB   C2C37842  10.630  12.120   7.680
 1577BOLB   C3C37843  10.920  12.020   7.960
 1577BOLB   C4C37844  11.430  12.040   8.150
 1577BOLB   C1D37845   9.940  12.680   7.550
 1577BOLB   C2D37846  10.280  12.810   7.800
 1577BOLB   C3D37847  10.670  12.830   7.960
 1577BOLB   C4D37848  10.960  12.960   8.290
 1578BOLB   NC137849  14.390   5.980  15.100
 1578BOLB   PO137850  14.200   6.370  14.820
 1578BOLB   GL137851  13.900   6.110  14.810
 1578BOLB   GL237852  13.790   6.070  15.110
 1578BOLB   C1A37853  13.710   5.680  14.900
 1578BOLB   C2A37854  13.740   5.290  14.800
 1578BOLB   C3A37855  13.420   5.030  14.840
 1578BOLB   C4A37856  13.290   4.800  15.110
 1578BOLB   C1B37857  13.490   5.860  15.330
 1578BOLB   C2B37858  13.300   5.520  15.040
 1578BOLB   C3B37859  12.940   5.460  14.700
 1578BOLB   C4B37860  12.560   5.570  14.590
 1578BOLB   NC237861  11.460   3.490  16.340
 1578BOLB   PO237862  11.830   3.220  16.370
 1578BOLB   GL337863  12.090   3.640  16.300
 1578BOLB   GL437864  12.440   3.550  16.380
 1578BOLB   C1C37865  12.340   3.980  16.300
 1578BOLB   C2C37866  12.680   4.250  16.050
 1578BOLB   C3C37867  13.010   4.420  15.700
 1578BOLB   C4C37868  13.090   4.460  15.300
 1578BOLB   C1D37869  12.840   3.800  16.190
 1578BOLB   C2D37870  13.130   4.250  16.200
 1578BOLB   C3D37871  13.350   4.470  16.090
 1578BOLB   C4D37872  13.640   4.800  16.110
 1579BOLB   NC137873  14.460  19.150   8.750
 1579BOLB   PO137874  14.090  19.400   8.830
 1579BOLB   GL137875  13.760  19.630   8.830
 1579BOLB   GL237876  13.440  19.590   8.970
 1579BOLB   C1A37877  13.540  19.930   8.580
 1579BOLB   C2A37878  13.340  20.310   8.450
 1579BOLB   C3A37879  13.220  20.750   8.270
 1579BOLB   C4A37880  13.320  21.220   8.270
 1579BOLB   C1B37881  13.120  19.760   8.680
 1579BOLB   C2B37882  12.730  19.970   8.550
 1579BOLB   C3B37883  12.390  19.780   8.480
 1579BOLB   C4B37884  12.080  19.840   8.710
 1579BOLB   NC237885  12.600  23.200   6.450
 1579BOLB   PO237886  12.500  22.850   6.720
 1579BOLB   GL337887  12.540  22.440   6.860
 1579BOLB   GL437888  12.290  22.250   6.860
 1579BOLB   C1C37889  12.950  22.190   6.930
 1579BOLB   C2C37890  13.190  22.160   7.270
 1579BOLB   C3C37891  13.270  21.740   7.510
 1579BOLB   C4C37892  13.260  21.520   7.970
 1579BOLB   C1D37893  12.320  22.420   7.320
 1579BOLB   C2D37894  12.540  22.410   7.720
 1579BOLB   C3D37895  12.950  22.400   7.810
 1579BOLB   C4D37896  13.250  22.100   7.930
 1580BOLB   NC137897  17.380   5.780  17.170
 1580BOLB   PO137898  17.280   5.610  16.720
 1580BOLB   GL137899  17.050   5.310  16.830
 1580BOLB   GL237900  16.880   5.530  17.200
 1580BOLB   C1A37901  17.070   4.830  16.920
 1580BOLB   C2A37902  17.010   4.420  17.110
 1580BOLB   C3A37903  16.940   4.000  16.930
 1580BOLB   C4A37904  16.840   3.730  16.810
 1580BOLB   C1B37905  16.800   5.170  17.280
 1580BOLB   C2B37906  16.700   4.760  17.500
 1580BOLB   C3B37907  16.590   4.370  17.540
 1580BOLB   C4B37908  16.450   4.090  17.150
 1580BOLB   NC237909  14.890   2.320  17.270
 1580BOLB   PO237910  15.140   2.340  17.640
 1580BOLB   GL337911  15.430   2.360  17.390
 1580BOLB   GL437912  15.310   2.630  17.290
 1580BOLB   C1C37913  15.740   2.550  17.050
 1580BOLB   C2C37914  16.150   2.500  17.000
 1580BOLB   C3C37915  16.520   2.810  16.940
 1580BOLB   C4C37916  16.690   3.150  16.760
 1580BOLB   C1D37917  15.650   2.950  17.400
 1580BOLB   C2D37918  15.700   3.200  17.600
 1580BOLB   C3D37919  15.800   3.670  17.620
 1580BOLB   C4D37920  15.750   4.070  17.740
 1581BOLB   NC137921   9.750  14.510  15.330
 1581BOLB   PO137922   9.660  14.080  15.340
 1581BOLB   GL137923   9.250  13.950  15.510
 1581BOLB   GL237924   9.310  13.950  15.690
 1581BOLB   C1A37925   8.800  13.790  15.550
 1581BOLB   C2A37926   8.440  13.850  15.340
 1581BOLB   C3A37927   8.280  13.900  14.950
 1581BOLB   C4A37928   7.960  14.230  14.730
 1581BOLB   C1B37929   9.040  13.880  15.990
 1581BOLB   C2B37930   9.010  13.940  16.410
 1581BOLB   C3B37931   8.750  14.090  16.710
 1581BOLB   C4B37932   8.430  14.170  16.970
 1581BOLB   NC237933   5.900  14.410  14.730
 1581BOLB   PO237934   5.680  14.530  14.310
 1581BOLB   GL337935   6.140  14.570  14.290
 1581BOLB   GL437936   6.300  14.760  14.570
 1581BOLB   C1C37937   6.590  14.540  14.200
 1581BOLB   C2C37938   7.010  14.620  14.100
 1581BOLB   C3C37939   7.460  14.610  14.140
 1581BOLB   C4C37940   7.760  14.440  14.310
 1581BOLB   C1D37941   6.760  14.690  14.690
 1581BOLB   C2D37942   7.080  14.350  14.640
 1581BOLB   C3D37943   7.290  14.140  14.910
 1581BOLB   C4D37944   7.620  13.860  14.990
 1582BOLB   NC137945  17.600  12.430   8.380
 1582BOLB   PO137946  17.460  12.430   8.000
 1582BOLB   GL137947  17.420  12.330   7.520
 1582BOLB   GL237948  17.160  12.320   7.270
 1582BOLB   C1A37949  17.550  12.060   7.190
 1582BOLB   C2A37950  17.490  11.940   6.720
 1582BOLB   C3A37951  17.400  11.720   6.360
 1582BOLB   C4A37952  17.210  11.320   6.190
 1582BOLB   C1B37953  17.100  11.870   7.100
 1582BOLB   C2B37954  17.030  11.670   6.660
 1582BOLB   C3B37955  16.670  11.430   6.490
 1582BOLB   C4B37956  16.470  11.030   6.460
 1582BOLB   NC237957  17.530  10.820   3.740
 1582BOLB   PO237958  17.160  11.030   3.760
 1582BOLB   GL337959  17.390  11.060   4.180
 1582BOLB   GL437960  17.210  10.810   4.300
 1582BOLB   C1C37961  17.340  11.390   4.600
 1582BOLB   C2C37962  17.190  11.440   5.010
 1582BOLB   C3C37963  16.950  11.260   5.330
 1582BOLB   C4C37964  17.150  11.250   5.820
 1582BOLB   C1D37965  16.990  10.930   4.700
 1582BOLB   C2D37966  16.960  10.830   5.130
 1582BOLB   C3D37967  17.180  10.830   5.530
 1582BOLB   C4D37968  17.330  10.750   5.880
 1583BOLB   NC137969  19.450  13.830   7.720
 1583BOLB   PO137970  19.510  13.700   7.390
 1583BOLB   GL137971  19.430  13.450   7.020
 1583BOLB   GL237972  19.220  13.240   6.790
 1583BOLB   C1A37973  19.660  13.260   6.590
 1583BOLB   C2A37974  19.550  13.170   6.190
 1583BOLB   C3A37975  19.450  13.150   5.710
 1583BOLB   C4A37976  19.160  13.020   5.300
 1583BOLB   C1B37977  19.100  13.020   6.390
 1583BOLB   C2B37978  19.050  13.260   6.080
 1583BOLB   C3B37979  18.950  13.270   5.710
 1583BOLB   C4B37980  19.370  13.520   5.440
 1583BOLB   NC237981  18.070  13.130   3.330
 1583BOLB   PO237982  18.330  12.770   3.360
 1583BOLB   GL337983  18.520  12.690   3.680
 1583BOLB   GL437984  18.370  12.520   3.970
 1583BOLB   C1C37985  18.670  12.860   4.020
 1583BOLB   C2C37986  18.660  12.630   4.370
 1583BOLB   C3C37987  18.660  12.650   4.820
 1583BOLB   C4C37988  18.720  12.960   5.130
 1583BOLB   C1D37989  18.200  12.530   4.470
 1583BOLB   C2D37990  18.120  12.710   4.850
 1583BOLB   C3D37991  18.190  12.960   5.210
 1583BOLB   C4D37992  18.540  12.970   5.620
 1584BOLB   NC137993  10.650  12.050  16.030
 1584BOLB   PO137994  10.610  11.690  16.310
 1584BOLB   GL137995  10.220  11.850  16.190
 1584BOLB   GL237996  10.130  11.760  15.930
 1584BOLB   C1A37997   9.790  11.860  16.420
 1584BOLB   C2A37998   9.380  11.900  16.320
 1584BOLB   C3A37999   8.980  12.110  16.290
 1584BOLB   C4A38000   8.530  12.120  16.440
 1584BOLB   C1B38001   9.920  11.400  16.230
 1584BOLB   C2B38002   9.480  11.350  16.350
 1584BOLB   C3B38003   9.040  11.540  16.460
 1584BOLB   C4B38004   8.740  11.420  16.790
 1584BOLB   NC238005   6.610  11.000  15.310
 1584BOLB   PO238006   6.770  10.730  15.660
 1584BOLB   GL338007   7.140  11.030  15.930
 1584BOLB   GL438008   7.290  10.810  15.960
 1584BOLB   C1C38009   7.320  11.390  16.080
 1584BOLB   C2C38010   7.590  11.620  16.210
 1584BOLB   C3C38011   7.740  11.960  16.210
 1584BOLB   C4C38012   8.180  11.980  16.200
 1584BOLB   C1D38013   7.740  11.050  15.820
 1584BOLB   C2D38014   8.090  11.280  15.760
 1584BOLB   C3D38015   8.020  11.510  16.110
 1584BOLB   C4D38016   8.000  11.580  16.630
 1585BOLB   NC138017  20.290  14.170   7.410
 1585BOLB   PO138018  20.390  14.550   7.140
 1585BOLB   GL138019  20.570  14.680   6.820
 1585BOLB   GL238020  20.760  14.460   6.810
 1585BOLB   C1A38021  20.410  14.810   6.460
 1585BOLB   C2A38022  20.470  14.670   6.040
 1585BOLB   C3A38023  20.490  14.850   5.650
 1585BOLB   C4A38024  20.560  14.670   5.240
 1585BOLB   C1B38025  20.670  14.290   6.390
 1585BOLB   C2B38026  20.690  14.130   5.940
 1585BOLB   C3B38027  20.500  14.100   5.650
 1585BOLB   C4B38028  20.560  14.170   5.160
 1585BOLB   NC238029  20.580  15.000   3.050
 1585BOLB   PO238030  20.890  14.700   2.860
 1585BOLB   GL338031  20.840  14.610   3.290
 1585BOLB   GL438032  21.140  14.430   3.360
 1585BOLB   C1C38033  20.790  14.650   3.680
 1585BOLB   C2C38034  20.710  14.670   4.020
 1585BOLB   C3C38035  20.810  14.690   4.560
 1585BOLB   C4C38036  20.730  14.620   4.930
 1585BOLB   C1D38037  21.360  14.510   3.710
 1585BOLB   C2D38038  21.290  14.600   4.120
 1585BOLB   C3D38039  21.200  14.420   4.570
 1585BOLB   C4D38040  21.400  14.340   4.990
 1586BOLB   NC138041  16.830  20.210   8.280
 1586BOLB   PO138042  16.430  20.420   8.560
 1586BOLB   GL138043  16.080  20.800   8.470
 1586BOLB   GL238044  16.140  21.150   8.400
 1586BOLB   C1A38045  15.730  20.890   8.270
 1586BOLB   C2A38046  15.540  21.070   7.910
 1586BOLB   C3A38047  15.570  21.110   7.520
 1586BOLB   C4A38048  15.450  20.800   7.260
 1586BOLB   C1B38049  16.050  21.300   8.070
 1586BOLB   C2B38050  15.650  21.520   7.940
 1586BOLB   C3B38051  15.450  21.570   7.580
 1586BOLB   C4B38052  15.590  21.590   7.180
 1586BOLB   NC238053  14.960  22.530   5.480
 1586BOLB   PO238054  14.560  22.310   5.440
 1586BOLB   GL338055  14.660  22.160   5.880
 1586BOLB   GL438056  14.660  21.860   5.750
 1586BOLB   C1C38057  14.780  21.870   6.350
 1586BOLB   C2C38058  14.790  21.380   6.440
 1586BOLB   C3C38059  14.790  21.020   6.670
 1586BOLB   C4C38060  15.110  20.750   6.880
 1586BOLB   C1D38061  14.780  21.560   5.970
 1586BOLB   C2D38062  15.190  21.320   6.150
 1586BOLB   C3D38063  15.330  21.020   6.530
 1586BOLB   C4D38064  15.540  20.640   6.680
 1587BOLB   NC138065  14.550   6.530  14.470
 1587BOLB   PO138066  14.700   6.100  14.450
 1587BOLB   GL138067  14.300   5.940  14.500
 1587BOLB   GL238068  14.210   5.590  14.810
 1587BOLB   C1A38069  13.940   5.790  14.430
 1587BOLB   C2A38070  13.850   5.430  14.290
 1587BOLB   C3A38071  13.710   4.930  14.420
 1587BOLB   C4A38072  13.960   4.480  14.610
 1587BOLB   C1B38073  14.150   5.060  14.750
 1587BOLB   C2B38074  14.520   4.740  14.710
 1587BOLB   C3B38075  14.670   4.560  15.000
 1587BOLB   C4B38076  15.030   4.300  15.240
 1587BOLB   NC238077  13.480   1.620  15.240
 1587BOLB   PO238078  13.160   2.000  15.220
 1587BOLB   GL338079  13.290   2.490  15.110
 1587BOLB   GL438080  13.110   2.750  15.070
 1587BOLB   C1C38081  13.430   2.820  14.710
 1587BOLB   C2C38082  13.470   3.280  14.550
 1587BOLB   C3C38083  13.740   3.650  14.320
 1587BOLB   C4C38084  13.740   4.100  14.440
 1587BOLB   C1D38085  13.260   2.850  15.380
 1587BOLB   C2D38086  13.290   3.250  15.460
 1587BOLB   C3D38087  13.540   3.600  15.510
 1587BOLB   C4D38088  13.810   3.690  15.800
 1588BOLB   NC138089  20.820   7.460   9.550
 1588BOLB   PO138090  20.360   7.320   9.480
 1588BOLB   GL138091  20.460   7.410   9.070
 1588BOLB   GL238092  20.760   7.360   9.110
 1588BOLB   C1A38093  20.300   7.390   8.650
 1588BOLB   C2A38094  20.050   7.250   8.170
 1588BOLB   C3A38095  19.750   7.280   7.780
 1588BOLB   C4A38096  19.800   7.200   7.370
 1588BOLB   C1B38097  20.790   7.180   8.700
 1588BOLB   C2B38098  20.820   6.830   8.470
 1588BOLB   C3B38099  21.140   6.610   8.270
 1588BOLB   C4B38100  21.240   6.080   8.060
 1588BOLB   NC238101  19.700   5.750   6.030
 1588BOLB   PO238102  19.760   5.390   6.090
 1588BOLB   GL338103  20.090   5.640   6.330
 1588BOLB   GL438104  20.020   6.020   6.260
 1588BOLB   C1C38105  20.220   5.790   6.720
 1588BOLB   C2C38106  20.230   6.230   6.860
 1588BOLB   C3C38107  19.930   6.530   6.990
 1588BOLB   C4C38108  19.730   6.820   7.120
 1588BOLB   C1D38109  19.800   6.020   6.590
 1588BOLB   C2D38110  19.540   6.360   6.750
 1588BOLB   C3D38111  19.460   6.760   6.700
 1588BOLB   C4D38112  19.430   7.200   6.500
 1589BOLB   NC138113  13.630  10.360   9.420
 1589BOLB   PO138114  13.550  10.820   9.390
 1589BOLB   GL138115  13.190  10.600   9.240
 1589BOLB   GL238116  13.080  10.700   8.970
 1589BOLB   C1A38117  13.090  10.230   9.010
 1589BOLB   C2A38118  12.870  10.000   8.720
 1589BOLB   C3A38119  12.380   9.880   8.570
 1589BOLB   C4A38120  11.960   9.720   8.740
 1589BOLB   C1B38121  12.980  10.570   8.490
 1589BOLB   C2B38122  12.970  10.340   8.210
 1589BOLB   C3B38123  12.880  10.060   8.140
 1589BOLB   C4B38124  12.610   9.650   8.210
 1589BOLB   NC238125  11.270   6.990   7.810
 1589BOLB   PO238126  11.670   7.220   7.720
 1589BOLB   GL338127  11.750   7.570   7.940
 1589BOLB   GL438128  11.510   7.650   8.330
 1589BOLB   C1C38129  11.890   8.030   8.000
 1589BOLB   C2C38130  12.010   8.440   8.360
 1589BOLB   C3C38131  11.950   8.880   8.570
 1589BOLB   C4C38132  11.930   9.340   8.670
 1589BOLB   C1D38133  11.900   7.890   8.560
 1589BOLB   C2D38134  12.300   8.020   8.770
 1589BOLB   C3D38135  12.260   8.320   9.060
 1589BOLB   C4D38136  12.150   8.790   9.000
 1590BOLB   NC138137  24.560  10.740   8.360
 1590BOLB   PO138138  24.080  10.680   8.300
 1590BOLB   GL138139  23.930  10.660   7.920
 1590BOLB   GL238140  23.620  10.440   7.840
 1590BOLB   C1A38141  24.010  10.640   7.470
 1590BOLB   C2A38142  23.840  10.540   7.160
 1590BOLB   C3A38143  23.820  10.490   6.800
 1590BOLB   C4A38144  23.800  10.270   6.500
 1590BOLB   C1B38145  23.690  10.190   7.520
 1590BOLB   C2B38146  23.650  10.090   7.020
 1590BOLB   C3B38147  23.300  10.240   6.630
 1590BOLB   C4B38148  23.030  10.050   6.410
 1590BOLB   NC238149  23.270   9.530   4.180
 1590BOLB   PO238150  23.100   9.860   4.030
 1590BOLB   GL338151  23.000   9.910   4.500
 1590BOLB   GL438152  22.970  10.260   4.340
 1590BOLB   C1C38153  23.060   9.970   4.970
 1590BOLB   C2C38154  23.300  10.140   5.320
 1590BOLB   C3C38155  23.450  10.340   5.660
 1590BOLB   C4C38156  23.520  10.290   6.130
 1590BOLB   C1D38157  22.670  10.280   4.690
 1590BOLB   C2D38158  22.600  10.430   5.030
 1590BOLB   C3D38159  22.820  10.320   5.460
 1590BOLB   C4D38160  23.080  10.040   5.840
 1591BOLB   NC138161  26.870   8.850  17.030
 1591BOLB   PO138162  27.070   8.780  17.430
 1591BOLB   GL138163  27.460   8.830  17.400
 1591BOLB   GL238164  27.520   9.080  17.640
 1591BOLB   C1A38165  27.830   8.590  17.450
 1591BOLB   C2A38166  28.160   8.360  17.340
 1591BOLB   C3A38167  28.310   8.070  17.590
 1591BOLB   C4A38168  28.520   7.760  17.840
 1591BOLB   C1B38169  27.890   8.950  17.800
 1591BOLB   C2B38170  28.420   8.960  17.850
 1591BOLB   C3B38171  28.780   8.810  17.920
 1591BOLB   C4B38172  29.140   8.900  18.170
 1591BOLB   NC238173  29.890   7.510  19.450
 1591BOLB   PO238174  29.970   7.120  19.260
 1591BOLB   GL338175  29.550   7.290  19.150
 1591BOLB   GL438176  29.390   7.480  19.250
 1591BOLB   C1C38177  29.270   7.180  18.890
 1591BOLB   C2C38178  29.140   7.210  18.530
 1591BOLB   C3C38179  29.070   7.400  18.220
 1591BOLB   C4C38180  28.730   7.550  18.040
 1591BOLB   C1D38181  29.100   7.670  19.070
 1591BOLB   C2D38182  29.020   8.100  18.970
 1591BOLB   C3D38183  28.860   8.400  18.720
 1591BOLB   C4D38184  28.950   8.490  18.340
 1592BOLB   NC138185  15.510  14.060   7.810
 1592BOLB   PO138186  15.150  13.980   7.980
 1592BOLB   GL138187  15.130  13.730   7.560
 1592BOLB   GL238188  15.220  13.400   7.510
 1592BOLB   C1A38189  15.050  14.000   7.190
 1592BOLB   C2A38190  14.880  14.190   6.950
 1592BOLB   C3A38191  14.760  14.270   6.580
 1592BOLB   C4A38192  14.480  14.010   6.390
 1592BOLB   C1B38193  15.020  13.280   7.240
 1592BOLB   C2B38194  14.970  13.220   6.810
 1592BOLB   C3B38195  14.910  12.850   6.460
 1592BOLB   C4B38196  15.130  12.740   6.060
 1592BOLB   NC238197  12.860  14.300   4.710
 1592BOLB   PO238198  13.010  13.860   4.530
 1592BOLB   GL338199  13.190  13.920   4.880
 1592BOLB   GL438200  13.170  14.230   5.070
 1592BOLB   C1C38201  13.410  13.830   5.220
 1592BOLB   C2C38202  13.570  13.920   5.610
 1592BOLB   C3C38203  13.890  13.840   5.820
 1592BOLB   C4C38204  14.150  13.960   6.050
 1592BOLB   C1D38205  13.140  14.600   5.270
 1592BOLB   C2D38206  13.070  14.940   5.670
 1592BOLB   C3D38207  13.280  15.040   6.000
 1592BOLB   C4D38208  13.090  15.240   6.400
 1593BOLB   NC138209  19.930  20.090   8.250
 1593BOLB   PO138210  19.780  19.890   7.870
 1593BOLB   GL138211  19.840  20.000   7.430
 1593BOLB   GL238212  20.160  19.880   7.390
 1593BOLB   C1A38213  19.760  20.260   7.240
 1593BOLB   C2A38214  19.830  20.510   6.900
 1593BOLB   C3A38215  19.750  20.490   6.430
 1593BOLB   C4A38216  19.890  20.350   6.080
 1593BOLB   C1B38217  20.200  20.260   7.080
 1593BOLB   C2B38218  20.620  20.340   6.760
 1593BOLB   C3B38219  21.000  20.250   6.600
 1593BOLB   C4B38220  21.300  20.130   6.310
 1593BOLB   NC238221  19.930  21.010   3.670
 1593BOLB   PO238222  19.540  20.880   3.630
 1593BOLB   GL338223  19.470  20.770   4.030
 1593BOLB   GL438224  19.150  20.690   3.970
 1593BOLB   C1C38225  19.620  20.740   4.450
 1593BOLB   C2C38226  19.750  20.560   4.880
 1593BOLB   C3C38227  19.750  20.440   5.240
 1593BOLB   C4C38228  19.880  20.190   5.570
 1593BOLB   C1D38229  19.120  20.500   4.340
 1593BOLB   C2D38230  18.870  20.260   4.740
 1593BOLB   C3D38231  18.540  20.060   4.940
 1593BOLB   C4D38232  18.690  19.640   5.190
 1594BOLB   NC138233  21.920  21.100   8.770
 1594BOLB   PO138234  21.750  21.240   8.410
 1594BOLB   GL138235  21.770  21.520   8.030
 1594BOLB   GL238236  21.690  21.430   7.700
 1594BOLB   C1A38237  21.890  21.940   7.900
 1594BOLB   C2A38238  21.640  22.250   7.660
 1594BOLB   C3A38239  21.360  22.290   7.400
 1594BOLB   C4A38240  21.380  22.060   7.070
 1594BOLB   C1B38241  21.270  21.600   7.300
 1594BOLB   C2B38242  21.120  21.500   6.810
 1594BOLB   C3B38243  20.830  21.600   6.520
 1594BOLB   C4B38244  20.750  21.510   6.110
 1594BOLB   NC238245  21.630  22.840   4.790
 1594BOLB   PO238246  21.810  22.910   5.130
 1594BOLB   GL338247  21.790  22.580   5.330
 1594BOLB   GL438248  22.070  22.430   5.480
 1594BOLB   C1C38249  21.620  22.290   5.610
 1594BOLB   C2C38250  21.580  21.960   5.880
 1594BOLB   C3C38251  21.520  21.870   6.300
 1594BOLB   C4C38252  21.290  22.030   6.650
 1594BOLB   C1D38253  22.150  22.030   5.680
 1594BOLB   C2D38254  22.030  21.690   5.880
 1594BOLB   C3D38255  22.100  21.590   6.340
 1594BOLB   C4D38256  22.230  21.900   6.560
 1595BOLB   NC138257  22.320  19.360   8.200
 1595BOLB   PO138258  22.300  19.490   7.890
 1595BOLB   GL138259  22.460  19.360   7.490
 1595BOLB   GL238260  22.340  19.090   7.370
 1595BOLB   C1A38261  22.190  19.430   7.060
 1595BOLB   C2A38262  22.120  19.640   6.710
 1595BOLB   C3A38263  21.850  19.830   6.500
 1595BOLB   C4A38264  21.840  19.940   6.090
 1595BOLB   C1B38265  22.680  19.000   7.040
 1595BOLB   C2B38266  22.970  19.110   6.830
 1595BOLB   C3B38267  23.070  19.250   6.400
 1595BOLB   C4B38268  22.920  18.960   6.020
 1595BOLB   NC238269  21.470  20.260   3.840
 1595BOLB   PO238270  21.210  20.460   3.910
 1595BOLB   GL338271  21.050  20.360   4.280
 1595BOLB   GL438272  20.750  20.180   4.100
 1595BOLB   C1C38273  21.290  20.380   4.670
 1595BOLB   C2C38274  21.330  20.330   5.060
 1595BOLB   C3C38275  21.330  20.320   5.420
 1595BOLB   C4C38276  21.570  20.080   5.770
 1595BOLB   C1D38277  20.630  20.100   4.460
 1595BOLB   C2D38278  20.610  19.910   4.920
 1595BOLB   C3D38279  20.610  19.670   5.310
 1595BOLB   C4D38280  20.100  19.580   5.650
 1596BOLB   NC138281  24.040  18.030   8.160
 1596BOLB   PO138282  23.600  18.260   8.000
 1596BOLB   GL138283  23.760  18.090   7.720
 1596BOLB   GL238284  23.680  17.910   7.410
 1596BOLB   C1A38285  24.130  18.120   7.330
 1596BOLB   C2A38286  24.250  17.960   7.000
 1596BOLB   C3A38287  24.390  17.830   6.620
 1596BOLB   C4A38288  24.400  18.140   6.390
 1596BOLB   C1B38289  23.770  18.140   6.970
 1596BOLB   C2B38290  23.650  18.280   6.670
 1596BOLB   C3B38291  23.520  18.380   6.280
 1596BOLB   C4B38292  23.400  18.820   6.010
 1596BOLB   NC238293  25.470  19.190   4.560
 1596BOLB   PO238294  25.530  19.470   4.770
 1596BOLB   GL338295  25.150  19.410   5.060
 1596BOLB   GL438296  25.010  19.080   4.830
 1596BOLB   C1C38297  24.830  19.200   5.360
 1596BOLB   C2C38298  24.840  19.200   5.820
 1596BOLB   C3C38299  24.760  18.910   6.110
 1596BOLB   C4C38300  24.520  18.570   6.140
 1596BOLB   C1D38301  24.630  18.830   4.970
 1596BOLB   C2D38302  24.220  18.720   5.110
 1596BOLB   C3D38303  24.020  18.370   5.270
 1596BOLB   C4D38304  23.650  18.100   5.350
 1597BOLB   NC138305  12.790  12.910   9.610
 1597BOLB   PO138306  12.720  12.440   9.530
 1597BOLB   GL138307  12.490  11.940   9.610
 1597BOLB   GL238308  12.540  11.690   9.490
 1597BOLB   C1A38309  12.020  11.710   9.380
 1597BOLB   C2A38310  11.740  11.610   9.210
 1597BOLB   C3A38311  11.450  11.410   9.070
 1597BOLB   C4A38312  11.060  11.250   9.180
 1597BOLB   C1B38313  12.470  11.380   9.250
 1597BOLB   C2B38314  12.180  11.490   9.000
 1597BOLB   C3B38315  11.810  11.360   8.770
 1597BOLB   C4B38316  11.750  11.070   8.510
 1597BOLB   NC238317   8.920  10.750   7.880
 1597BOLB   PO238318   9.270  10.430   8.100
 1597BOLB   GL338319   9.650  10.670   8.050
 1597BOLB   GL438320   9.810  10.810   7.810
 1597BOLB   C1C38321   9.910  10.950   8.330
 1597BOLB   C2C38322  10.070  11.320   8.420
 1597BOLB   C3C38323  10.380  11.490   8.680
 1597BOLB   C4C38324  10.760  11.390   8.790
 1597BOLB   C1D38325  10.250  10.640   8.050
 1597BOLB   C2D38326  10.370  10.890   8.470
 1597BOLB   C3D38327  10.530  10.960   8.840
 1597BOLB   C4D38328  10.850  10.750   9.090
 1598BOLB   NC138329  13.160  17.600   9.200
 1598BOLB   PO138330  13.450  17.630   8.950
 1598BOLB   GL138331  13.030  17.840   8.790
 1598BOLB   GL238332  13.150  18.130   8.610
 1598BOLB   C1A38333  12.600  17.940   8.770
 1598BOLB   C2A38334  12.280  18.100   8.440
 1598BOLB   C3A38335  12.060  18.250   8.150
 1598BOLB   C4A38336  11.790  18.450   7.850
 1598BOLB   C1B38337  12.820  18.080   8.350
 1598BOLB   C2B38338  12.480  17.890   8.080
 1598BOLB   C3B38339  12.190  17.800   7.750
 1598BOLB   C4B38340  12.050  17.910   7.440
 1598BOLB   NC238341   9.310  19.020   7.380
 1598BOLB   PO238342   9.480  19.390   7.180
 1598BOLB   GL338343   9.760  19.220   7.390
 1598BOLB   GL438344   9.870  18.940   7.180
 1598BOLB   C1C38345  10.210  19.150   7.520
 1598BOLB   C2C38346  10.490  18.830   7.670
 1598BOLB   C3C38347  10.860  18.520   7.670
 1598BOLB   C4C38348  11.290  18.510   7.830
 1598BOLB   C1D38349  10.040  18.570   7.310
 1598BOLB   C2D38350  10.290  18.180   7.530
 1598BOLB   C3D38351  10.700  18.120   7.420
 1598BOLB   C4D38352  11.050  17.950   7.550
 1599BOLB   NC138353  23.840   5.950  15.730
 1599BOLB   PO138354  24.250   6.050  15.770
 1599BOLB   GL138355  24.200   5.560  15.670
 1599BOLB   GL238356  24.100   5.660  15.390
 1599BOLB   C1A38357  24.380   5.170  15.780
 1599BOLB   C2A38358  24.580   4.780  15.760
 1599BOLB   C3A38359  24.700   4.390  16.060
 1599BOLB   C4A38360  24.810   4.050  16.330
 1599BOLB   C1B38361  24.440   5.390  15.150
 1599BOLB   C2B38362  24.690   5.120  15.080
 1599BOLB   C3B38363  24.960   4.740  15.000
 1599BOLB   C4B38364  25.080   4.360  15.090
 1599BOLB   NC238365  25.980   2.630  17.950
 1599BOLB   PO238366  25.700   2.960  17.850
 1599BOLB   GL338367  25.760   3.300  17.570
 1599BOLB   GL438368  25.860   3.160  17.310
 1599BOLB   C1C38369  25.480   3.660  17.610
 1599BOLB   C2C38370  25.210   3.910  17.330
 1599BOLB   C3C38371  25.110   3.820  16.960
 1599BOLB   C4C38372  25.000   3.860  16.610
 1599BOLB   C1D38373  25.590   3.530  17.140
 1599BOLB   C2D38374  25.670   4.010  17.190
 1599BOLB   C3D38375  25.800   4.350  16.930
 1599BOLB   C4D38376  25.850   4.630  16.670
 1600BOLB   NC138377  16.640  22.410  10.040
 1600BOLB   PO138378  16.620  22.180   9.700
 1600BOLB   GL138379  16.410  22.500   9.530
 1600BOLB   GL238380  16.310  22.300   9.370
 1600BOLB   C1A38381  16.440  22.900   9.320
 1600BOLB   C2A38382  16.550  23.150   9.100
 1600BOLB   C3A38383  16.700  23.410   8.880
 1600BOLB   C4A38384  16.770  23.790   8.680
 1600BOLB   C1B38385  16.130  22.490   9.020
 1600BOLB   C2B38386  15.910  22.620   8.800
 1600BOLB   C3B38387  15.760  22.900   8.480
 1600BOLB   C4B38388  15.850  23.220   8.160
 1600BOLB   NC238389  15.930  25.460   7.120
 1600BOLB   PO238390  16.460  25.570   7.070
 1600BOLB   GL338391  16.580  25.110   7.090
 1600BOLB   GL438392  16.840  24.940   6.900
 1600BOLB   C1C38393  16.610  24.900   7.400
 1600BOLB   C2C38394  16.810  24.680   7.720
 1600BOLB   C3C38395  16.830  24.290   7.950
 1600BOLB   C4C38396  16.680  24.170   8.310
 1600BOLB   C1D38397  16.790  24.560   7.030
 1600BOLB   C2D38398  16.620  24.320   7.380
 1600BOLB   C3D38399  16.740  23.990   7.570
 1600BOLB   C4D38400  16.530  23.830   7.900
 1601BOLB   NC138401  16.270  17.140   7.640
 1601BOLB   PO138402  16.220  16.670   7.550
 1601BOLB   GL138403  16.310  16.670   7.130
 1601BOLB   GL238404  16.420  16.420   6.990
 1601BOLB   C1A38405  16.310  16.990   6.770
 1601BOLB   C2A38406  16.060  17.200   6.480
 1601BOLB   C3A38407  15.990  17.460   6.140
 1601BOLB   C4A38408  15.810  17.250   5.820
 1601BOLB   C1B38409  16.580  16.240   6.540
 1601BOLB   C2B38410  16.420  16.260   6.030
 1601BOLB   C3B38411  16.240  16.620   5.750
 1601BOLB   C4B38412  16.030  16.680   5.400
 1601BOLB   NC238413  14.480  17.650   3.640
 1601BOLB   PO238414  14.900  17.750   3.630
 1601BOLB   GL338415  15.270  17.420   3.810
 1601BOLB   GL438416  15.540  17.430   3.750
 1601BOLB   C1C38417  15.370  17.090   4.120
 1601BOLB   C2C38418  15.530  17.110   4.530
 1601BOLB   C3C38419  15.620  17.340   4.890
 1601BOLB   C4C38420  15.810  17.120   5.320
 1601BOLB   C1D38421  15.600  17.510   4.210
 1601BOLB   C2D38422  15.600  17.710   4.550
 1601BOLB   C3D38423  15.920  17.920   4.900
 1601BOLB   C4D38424  16.110  18.010   5.300
 1602BOLB   NC138425  27.950  16.140  13.790
 1602BOLB   PO138426  28.220  15.840  13.710
 1602BOLB   GL138427  28.510  16.130  13.710
 1602BOLB   GL238428  28.710  16.030  13.450
 1602BOLB   C1A38429  28.950  16.190  13.920
 1602BOLB   C2A38430  29.400  16.320  13.840
 1602BOLB   C3A38431  29.730  16.640  13.780
 1602BOLB   C4A38432  30.110  16.840  13.590
 1602BOLB   C1B38433  29.130  16.230  13.410
 1602BOLB   C2B38434  29.610  16.280  13.310
 1602BOLB   C3B38435  29.980  16.230  13.200
 1602BOLB   C4B38436  30.380  16.080  13.390
 1602BOLB   NC238437  31.740  18.260  11.960
 1602BOLB   PO238438  31.570  18.040  11.630
 1602BOLB   GL338439  31.410  17.660  11.900
 1602BOLB   GL438440  31.120  17.770  11.700
 1602BOLB   C1C38441  31.080  17.590  12.280
 1602BOLB   C2C38442  30.850  17.420  12.660
 1602BOLB   C3C38443  30.500  17.260  12.930
 1602BOLB   C4C38444  30.220  17.160  13.240
 1602BOLB   C1D38445  30.790  18.030  11.600
 1602BOLB   C2D38446  30.740  18.460  11.390
 1602BOLB   C3D38447  30.410  18.730  11.180
 1602BOLB   C4D38448  30.210  19.080  11.230
 1603BOLB   NC138449  12.270  16.250   9.110
 1603BOLB   PO138450  12.150  16.570   8.910
 1603BOLB   GL138451  12.130  16.600   8.440
 1603BOLB   GL238452  12.280  16.800   8.430
 1603BOLB   C1A38453  12.090  16.490   8.080
 1603BOLB   C2A38454  11.730  16.300   7.890
 1603BOLB   C3A38455  11.440  16.200   7.660
 1603BOLB   C4A38456  11.040  16.110   7.440
 1603BOLB   C1B38457  12.360  17.170   8.230
 1603BOLB   C2B38458  12.260  17.330   7.900
 1603BOLB   C3B38459  12.220  17.310   7.360
 1603BOLB   C4B38460  12.060  17.510   7.080
 1603BOLB   NC238461   9.120  16.280   5.910
 1603BOLB   PO238462   9.410  16.260   6.360
 1603BOLB   GL338463   9.770  16.190   6.550
 1603BOLB   GL438464  10.020  16.260   6.670
 1603BOLB   C1C38465   9.950  15.770   6.670
 1603BOLB   C2C38466  10.150  15.480   6.790
 1603BOLB   C3C38467  10.430  15.650   6.940
 1603BOLB   C4C38468  10.830  15.930   7.140
 1603BOLB   C1D38469  10.240  16.270   6.980
 1603BOLB   C2D38470  10.570  16.380   7.180
 1603BOLB   C3D38471  11.000  16.600   7.240
 1603BOLB   C4D38472  11.320  16.960   7.200
 1604BOLB   NC138473   9.890  14.580  14.450
 1604BOLB   PO138474   9.570  14.880  14.460
 1604BOLB   GL138475   9.130  14.880  14.560
 1604BOLB   GL238476   8.950  14.990  14.840
 1604BOLB   C1A38477   8.890  14.550  14.460
 1604BOLB   C2A38478   8.480  14.590  14.340
 1604BOLB   C3A38479   8.120  14.730  14.250
 1604BOLB   C4A38480   7.870  14.760  13.900
 1604BOLB   C1B38481   8.630  15.150  14.790
 1604BOLB   C2B38482   8.260  15.000  14.710
 1604BOLB   C3B38483   7.930  14.730  14.720
 1604BOLB   C4B38484   7.450  14.700  14.870
 1604BOLB   NC238485   5.850  15.420  13.240
 1604BOLB   PO238486   5.910  15.180  12.840
 1604BOLB   GL338487   6.330  15.110  12.990
 1604BOLB   GL438488   6.370  15.290  13.200
 1604BOLB   C1C38489   6.720  14.910  12.950
 1604BOLB   C2C38490   7.200  14.670  12.850
 1604BOLB   C3C38491   7.360  14.450  13.120
 1604BOLB   C4C38492   7.560  14.530  13.530
 1604BOLB   C1D38493   6.610  15.290  13.400
 1604BOLB   C2D38494   7.110  15.140  13.400
 1604BOLB   C3D38495   7.530  15.000  13.530
 1604BOLB   C4D38496   7.950  14.960  13.480
 1605BOLB   NC138497  12.560  16.040   9.380
 1605BOLB   PO138498  12.180  16.180   9.620
 1605BOLB   GL138499  11.910  16.430   9.430
 1605BOLB   GL238500  11.730  16.270   9.230
 1605BOLB   C1A38501  11.610  16.770   9.130
 1605BOLB   C2A38502  11.500  16.860   8.690
 1605BOLB   C3A38503  11.400  17.080   8.280
 1605BOLB   C4A38504  11.440  17.130   7.840
 1605BOLB   C1B38505  11.550  16.400   8.850
 1605BOLB   C2B38506  11.220  16.340   8.520
 1605BOLB   C3B38507  10.780  16.310   8.490
 1605BOLB   C4B38508  10.290  16.390   8.580
 1605BOLB   NC238509  11.480  17.120   5.480
 1605BOLB   PO238510  11.700  16.740   5.430
 1605BOLB   GL338511  11.740  16.790   5.850
 1605BOLB   GL438512  11.440  16.780   5.880
 1605BOLB   C1C38513  11.820  16.860   6.350
 1605BOLB   C2C38514  11.830  17.040   6.740
 1605BOLB   C3C38515  11.860  17.030   7.130
 1605BOLB   C4C38516  11.740  17.110   7.420
 1605BOLB   C1D38517  11.590  17.250   6.120
 1605BOLB   C2D38518  11.580  17.390   6.480
 1605BOLB   C3D38519  11.570  17.440   6.910
 1605BOLB   C4D38520  11.300  17.470   7.210
 1606BOLB   NC138521  19.360  19.190   7.860
 1606BOLB   PO138522  19.080  18.890   7.640
 1606BOLB   GL138523  19.170  19.320   7.300
 1606BOLB   GL238524  18.850  19.460   7.020
 1606BOLB   C1A38525  19.500  19.420   6.910
 1606BOLB   C2A38526  19.670  19.510   6.510
 1606BOLB   C3A38527  19.780  19.400   6.090
 1606BOLB   C4A38528  19.590  19.400   5.730
 1606BOLB   C1B38529  19.070  19.480   6.660
 1606BOLB   C2B38530  19.200  19.700   6.350
 1606BOLB   C3B38531  19.120  19.740   5.910
 1606BOLB   C4B38532  19.160  19.600   5.500
 1606BOLB   NC238533  19.350  19.310   3.440
 1606BOLB   PO238534  19.760  19.130   3.400
 1606BOLB   GL338535  19.940  19.120   3.830
 1606BOLB   GL438536  20.280  18.980   3.860
 1606BOLB   C1C38537  19.940  18.860   4.250
 1606BOLB   C2C38538  19.740  19.020   4.590
 1606BOLB   C3C38539  19.590  19.220   4.960
 1606BOLB   C4C38540  19.620  19.560   5.380
 1606BOLB   C1D38541  20.400  18.720   4.250
 1606BOLB   C2D38542  20.230  18.450   4.580
 1606BOLB   C3D38543  19.920  18.510   4.910
 1606BOLB   C4D38544  19.570  18.720   4.980
 1607BOLB   NC138545  12.590   8.850  15.160
 1607BOLB   PO138546  12.550   8.390  15.070
 1607BOLB   GL138547  12.310   7.960  15.030
 1607BOLB   GL238548  12.250   7.630  15.220
 1607BOLB   C1A38549  11.780   7.790  15.040
 1607BOLB   C2A38550  11.570   7.480  15.100
 1607BOLB   C3A38551  11.260   7.060  14.930
 1607BOLB   C4A38552  11.080   6.880  14.710
 1607BOLB   C1B38553  12.390   7.240  15.410
 1607BOLB   C2B38554  12.100   6.980  15.510
 1607BOLB   C3B38555  11.960   6.680  15.260
 1607BOLB   C4B38556  11.490   6.640  15.090
 1607BOLB   NC238557  10.400   4.240  15.150
 1607BOLB   PO238558  10.550   4.670  15.210
 1607BOLB   GL338559  10.700   5.140  15.340
 1607BOLB   GL438560  11.020   5.180  15.400
 1607BOLB   C1C38561  10.590   5.460  15.380
 1607BOLB   C2C38562  10.870   5.790  15.220
 1607BOLB   C3C38563  10.990   6.190  14.930
 1607BOLB   C4C38564  10.900   6.500  14.590
 1607BOLB   C1D38565  11.230   5.470  15.270
 1607BOLB   C2D38566  11.430   5.840  15.160
 1607BOLB   C3D38567  11.480   6.130  14.850
 1607BOLB   C4D38568  11.390   6.480  14.660
 1608BOLB   NC138569  12.530  10.960  10.780
 1608BOLB   PO138570  12.720  10.620  10.900
 1608BOLB   GL138571  12.490  10.440  10.570
 1608BOLB   GL238572  12.240  10.520  10.370
 1608BOLB   C1A38573  12.070  10.190  10.610
 1608BOLB   C2A38574  11.740  10.070  10.410
 1608BOLB   C3A38575  11.630   9.890  10.010
 1608BOLB   C4A38576  11.560   9.580   9.760
 1608BOLB   C1B38577  11.890  10.500  10.190
 1608BOLB   C2B38578  11.430  10.380  10.130
 1608BOLB   C3B38579  11.150  10.140   9.970
 1608BOLB   C4B38580  10.920   9.930   9.620
 1608BOLB   NC238581  10.050   8.460   8.330
 1608BOLB   PO238582   9.940   8.820   8.000
 1608BOLB   GL338583  10.430   8.800   8.260
 1608BOLB   GL438584  10.710   8.540   8.030
 1608BOLB   C1C38585  10.780   8.790   8.550
 1608BOLB   C2C38586  11.020   8.820   8.900
 1608BOLB   C3C38587  11.190   9.180   9.110
 1608BOLB   C4C38588  11.430   9.480   9.390
 1608BOLB   C1D38589  10.930   8.960   8.080
 1608BOLB   C2D38590  11.140   9.190   8.390
 1608BOLB   C3D38591  11.470   9.240   8.690
 1608BOLB   C4D38592  11.650   8.930   8.990
 1609BOLB   NC138593  15.580  22.530  15.430
 1609BOLB   PO138594  15.290  22.270  15.110
 1609BOLB   GL138595  15.200  22.720  15.050
 1609BOLB   GL238596  15.210  22.820  15.430
 1609BOLB   C1A38597  15.090  23.210  15.120
 1609BOLB   C2A38598  15.080  23.670  15.220
 1609BOLB   C3A38599  15.000  24.050  15.430
 1609BOLB   C4A38600  14.860  24.420  15.660
 1609BOLB   C1B38601  14.990  23.230  15.640
 1609BOLB   C2B38602  15.030  23.530  15.910
 1609BOLB   C3B38603  14.680  23.730  16.090
 1609BOLB   C4B38604  14.710  24.190  16.070
 1609BOLB   NC238605  14.340  25.850  17.270
 1609BOLB   PO238606  14.120  26.140  17.030
 1609BOLB   GL338607  13.990  25.920  16.630
 1609BOLB   GL438608  14.290  25.700  16.670
 1609BOLB   C1C38609  14.070  25.740  16.210
 1609BOLB   C2C38610  14.260  25.350  16.200
 1609BOLB   C3C38611  14.560  25.040  16.160
 1609BOLB   C4C38612  14.650  24.720  15.860
 1609BOLB   C1D38613  14.640  25.610  16.320
 1609BOLB   C2D38614  14.670  25.480  15.930
 1609BOLB   C3D38615  14.840  25.140  15.740
 1609BOLB   C4D38616  15.230  24.860  15.630
 1610BOLB   NC138617  15.770   8.060  10.590
 1610BOLB   PO138618  15.900   8.260  10.230
 1610BOLB   GL138619  15.860   8.010   9.890
 1610BOLB   GL238620  15.800   8.040   9.550
 1610BOLB   C1A38621  15.790   7.570   9.780
 1610BOLB   C2A38622  15.690   7.130   9.770
 1610BOLB   C3A38623  15.590   6.730   9.880
 1610BOLB   C4A38624  15.190   6.450   9.810
 1610BOLB   C1B38625  15.830   7.810   9.140
 1610BOLB   C2B38626  15.680   7.930   8.710
 1610BOLB   C3B38627  15.200   7.900   8.610
 1610BOLB   C4B38628  14.950   8.190   8.500
 1610BOLB   NC238629  13.810   5.300   8.270
 1610BOLB   PO238630  14.050   5.620   8.110
 1610BOLB   GL338631  14.230   5.560   8.480
 1610BOLB   GL438632  14.020   5.530   8.800
 1610BOLB   C1C38633  14.440   5.830   8.760
 1610BOLB   C2C38634  14.620   6.060   9.150
 1610BOLB   C3C38635  14.780   5.890   9.480
 1610BOLB   C4C38636  14.770   6.220   9.860
 1610BOLB   C1D38637  14.170   5.720   9.190
 1610BOLB   C2D38638  14.290   5.930   9.550
 1610BOLB   C3D38639  14.270   6.200   9.980
 1610BOLB   C4D38640  14.020   6.030  10.340
 1611BOLB   NC138641  17.360   6.300  11.580
 1611BOLB   PO138642  16.850   6.490  11.830
 1611BOLB   GL138643  16.840   6.270  11.490
 1611BOLB   GL238644  17.080   6.070  11.270
 1611BOLB   C1A38645  16.690   5.790  11.250
 1611BOLB   C2A38646  16.660   5.500  11.090
 1611BOLB   C3A38647  16.520   5.490  10.810
 1611BOLB   C4A38648  16.470   5.210  10.510
 1611BOLB   C1B38649  17.130   5.900  10.900
 1611BOLB   C2B38650  17.000   5.440  10.670
 1611BOLB   C3B38651  16.910   5.200  10.250
 1611BOLB   C4B38652  16.690   4.760  10.140
 1611BOLB   NC238653  15.400   3.790   9.130
 1611BOLB   PO238654  15.790   3.800   8.870
 1611BOLB   GL338655  16.030   4.080   9.060
 1611BOLB   GL438656  15.790   4.170   9.260
 1611BOLB   C1C38657  16.210   4.370   9.260
 1611BOLB   C2C38658  16.330   4.560   9.610
 1611BOLB   C3C38659  16.260   4.950   9.800
 1611BOLB   C4C38660  16.440   5.250  10.060
 1611BOLB   C1D38661  15.990   4.110   9.650
 1611BOLB   C2D38662  15.990   4.460   9.960
 1611BOLB   C3D38663  16.200   4.740  10.240
 1611BOLB   C4D38664  16.150   4.830  10.640
 1612BOLB   NC138665  13.720  18.790   9.350
 1612BOLB   PO138666  13.760  18.620   9.050
 1612BOLB   GL138667  13.590  18.480   8.680
 1612BOLB   GL238668  13.910  18.380   8.570
 1612BOLB   C1A38669  13.420  18.410   8.310
 1612BOLB   C2A38670  13.080  18.460   8.000
 1612BOLB   C3A38671  12.850  18.680   7.690
 1612BOLB   C4A38672  12.560  18.510   7.300
 1612BOLB   C1B38673  13.860  18.450   8.160
 1612BOLB   C2B38674  13.760  18.670   7.840
 1612BOLB   C3B38675  13.800  18.870   7.480
 1612BOLB   C4B38676  13.860  19.060   7.050
 1612BOLB   NC238677  10.340  19.050   5.900
 1612BOLB   PO238678  10.750  19.140   5.810
 1612BOLB   GL338679  10.810  18.880   6.100
 1612BOLB   GL438680  10.910  18.390   6.080
 1612BOLB   C1C38681  11.230  18.750   6.360
 1612BOLB   C2C38682  11.540  18.760   6.700
 1612BOLB   C3C38683  12.000  18.750   6.650
 1612BOLB   C4C38684  12.300  18.670   6.950
 1612BOLB   C1D38685  10.740  18.600   6.510
 1612BOLB   C2D38686  10.630  19.010   6.580
 1612BOLB   C3D38687  10.410  19.160   6.960
 1612BOLB   C4D38688  10.660  19.210   7.260
 1613BOLB   NC138689  13.580  14.640   8.200
 1613BOLB   PO138690  13.390  15.030   8.230
 1613BOLB   GL138691  13.120  15.310   7.860
 1613BOLB   GL238692  12.950  15.360   8.230
 1613BOLB   C1A38693  12.970  15.370   7.490
 1613BOLB   C2A38694  12.650  15.460   7.070
 1613BOLB   C3A38695  12.680  15.600   6.630
 1613BOLB   C4A38696  12.890  15.720   6.220
 1613BOLB   C1B38697  12.640  15.350   7.850
 1613BOLB   C2B38698  12.370  15.500   7.580
 1613BOLB   C3B38699  12.220  15.680   7.300
 1613BOLB   C4B38700  12.210  15.620   6.850
 1613BOLB   NC238701  12.200  16.500   4.720
 1613BOLB   PO238702  11.940  16.570   5.030
 1613BOLB   GL338703  12.220  16.370   5.220
 1613BOLB   GL438704  12.040  16.380   5.470
 1613BOLB   C1C38705  12.590  16.230   5.320
 1613BOLB   C2C38706  13.000  16.120   5.370
 1613BOLB   C3C38707  13.150  16.170   5.780
 1613BOLB   C4C38708  13.140  16.030   6.150
 1613BOLB   C1D38709  11.750  16.300   5.890
 1613BOLB   C2D38710  11.500  16.030   6.180
 1613BOLB   C3D38711  11.150  15.740   6.090
 1613BOLB   C4D38712  10.780  15.750   6.160
 1614BOLB   NC138713  20.030  23.200  13.130
 1614BOLB   PO138714  19.860  23.490  12.840
 1614BOLB   GL138715  20.000  23.800  12.680
 1614BOLB   GL238716  20.430  23.870  12.740
 1614BOLB   C1A38717  19.820  24.190  12.510
 1614BOLB   C2A38718  19.820  24.590  12.460
 1614BOLB   C3A38719  19.700  25.010  12.520
 1614BOLB   C4A38720  19.720  25.360  12.480
 1614BOLB   C1B38721  20.300  24.220  12.540
 1614BOLB   C2B38722  20.440  24.640  12.280
 1614BOLB   C3B38723  20.700  24.970  12.220
 1614BOLB   C4B38724  21.080  25.030  12.370
 1614BOLB   NC238725  20.000  27.590  12.450
 1614BOLB   PO238726  19.940  27.600  12.010
 1614BOLB   GL338727  19.610  27.160  12.120
 1614BOLB   GL438728  19.350  27.120  11.970
 1614BOLB   C1C38729  19.690  26.750  12.060
 1614BOLB   C2C38730  19.630  26.330  11.930
 1614BOLB   C3C38731  19.490  25.950  11.940
 1614BOLB   C4C38732  19.550  25.730  12.330
 1614BOLB   C1D38733  19.050  26.890  11.880
 1614BOLB   C2D38734  18.830  26.610  11.650
 1614BOLB   C3D38735  18.900  26.410  11.220
 1614BOLB   C4D38736  18.690  26.530  10.850
 1615BOLB   NC138737  20.990  21.680   8.820
 1615BOLB   PO138738  21.400  21.430   8.740
 1615BOLB   GL138739  21.500  21.820   8.580
 1615BOLB   GL238740  21.680  22.060   8.790
 1615BOLB   C1A38741  21.610  22.110   8.290
 1615BOLB   C2A38742  21.840  22.400   8.120
 1615BOLB   C3A38743  21.870  22.730   7.760
 1615BOLB   C4A38744  21.600  22.740   7.440
 1615BOLB   C1B38745  21.920  22.330   8.670
 1615BOLB   C2B38746  22.130  22.580   8.500
 1615BOLB   C3B38747  22.020  22.940   8.260
 1615BOLB   C4B38748  22.050  23.220   7.890
 1615BOLB   NC238749  22.180  24.000   5.770
 1615BOLB   PO238750  21.840  23.850   5.400
 1615BOLB   GL338751  21.660  23.830   5.880
 1615BOLB   GL438752  21.810  23.990   6.110
 1615BOLB   C1C38753  21.430  23.630   6.150
 1615BOLB   C2C38754  21.340  23.270   6.420
 1615BOLB   C3C38755  21.320  23.190   6.920
 1615BOLB   C4C38756  21.380  22.890   7.150
 1615BOLB   C1D38757  21.890  23.540   6.340
 1615BOLB   C2D38758  21.890  23.190   6.610
 1615BOLB   C3D38759  21.890  22.930   6.910
 1615BOLB   C4D38760  21.930  22.570   7.170
 1616BOLB   NC138761  23.570  15.790   7.600
 1616BOLB   PO138762  24.020  15.800   7.820
 1616BOLB   GL138763  24.380  15.720   7.580
 1616BOLB   GL238764  24.650  15.490   7.590
 1616BOLB   C1A38765  24.470  15.550   7.170
 1616BOLB   C2A38766  24.410  15.480   6.760
 1616BOLB   C3A38767  24.580  15.470   6.390
 1616BOLB   C4A38768  24.680  15.650   5.930
 1616BOLB   C1B38769  25.120  15.560   7.450
 1616BOLB   C2B38770  25.540  15.320   7.440
 1616BOLB   C3B38771  25.600  14.800   7.400
 1616BOLB   C4B38772  25.610  14.590   7.080
 1616BOLB   NC238773  24.740  16.370   3.700
 1616BOLB   PO238774  24.880  15.970   3.550
 1616BOLB   GL338775  24.820  15.880   3.980
 1616BOLB   GL438776  24.830  16.150   4.200
 1616BOLB   C1C38777  24.810  15.580   4.360
 1616BOLB   C2C38778  24.590  15.500   4.710
 1616BOLB   C3C38779  24.750  15.620   5.100
 1616BOLB   C4C38780  24.850  15.640   5.490
 1616BOLB   C1D38781  24.530  16.010   4.350
 1616BOLB   C2D38782  24.210  15.690   4.530
 1616BOLB   C3D38783  23.710  15.660   4.670
 1616BOLB   C4D38784  23.410  15.340   4.750
 1617BOLB   NC138785  13.500   9.370  10.490
 1617BOLB   PO138786  13.690   9.020  10.670
 1617BOLB   GL138787  13.470   8.860  10.520
 1617BOLB   GL238788  13.650   8.630  10.350
 1617BOLB   C1A38789  13.050   8.820  10.310
 1617BOLB   C2A38790  12.610   8.930  10.270
 1617BOLB   C3A38791  12.180   8.870  10.090
 1617BOLB   C4A38792  11.790   8.660   9.910
 1617BOLB   C1B38793  13.720   8.320  10.090
 1617BOLB   C2B38794  13.530   8.220   9.700
 1617BOLB   C3B38795  13.100   8.410   9.580
 1617BOLB   C4B38796  12.690   8.330   9.250
 1617BOLB   NC238797   9.840   6.960   9.860
 1617BOLB   PO238798  10.210   6.710   9.720
 1617BOLB   GL338799  10.630   6.910   9.630
 1617BOLB   GL438800  10.610   7.160   9.390
 1617BOLB   C1C38801  10.980   7.190   9.790
 1617BOLB   C2C38802  11.090   7.550  10.120
 1617BOLB   C3C38803  11.430   7.910  10.080
 1617BOLB   C4C38804  11.630   8.290  10.050
 1617BOLB   C1D38805  10.520   7.360   9.830
 1617BOLB   C2D38806  10.650   7.160  10.300
 1617BOLB   C3D38807  10.800   7.190  10.730
 1617BOLB   C4D38808  10.900   7.190  11.140
 1618BOLB   NC138809  21.310  21.110   8.240
 1618BOLB   PO138810  20.920  21.340   8.470
 1618BOLB   GL138811  20.750  21.770   8.420
 1618BOLB   GL238812  20.730  21.730   8.100
 1618BOLB   C1A38813  21.030  22.120   8.330
 1618BOLB   C2A38814  21.260  22.340   8.000
 1618BOLB   C3A38815  21.410  22.680   7.850
 1618BOLB   C4A38816  21.520  23.110   7.800
 1618BOLB   C1B38817  20.940  21.930   7.820
 1618BOLB   C2B38818  21.330  21.850   7.720
 1618BOLB   C3B38819  21.760  21.830   7.430
 1618BOLB   C4B38820  22.030  22.070   7.140
 1618BOLB   NC238821  22.610  24.940   6.120
 1618BOLB   PO238822  22.660  24.910   6.640
 1618BOLB   GL338823  22.350  24.680   6.840
 1618BOLB   GL438824  22.040  24.510   6.890
 1618BOLB   C1C38825  22.320  24.140   6.950
 1618BOLB   C2C38826  22.150  23.700   7.060
 1618BOLB   C3C38827  21.760  23.420   7.030
 1618BOLB   C4C38828  21.570  23.260   7.390
 1618BOLB   C1D38829  21.780  24.190   7.060
 1618BOLB   C2D38830  21.530  23.830   7.320
 1618BOLB   C3D38831  21.120  23.450   7.320
 1618BOLB   C4D38832  20.800  23.360   6.950
 1619BOLB   NC138833  24.060  13.310   7.840
 1619BOLB   PO138834  24.150  12.850   8.120
 1619BOLB   GL138835  24.370  12.780   7.740
 1619BOLB   GL238836  24.080  12.610   7.570
 1619BOLB   C1A38837  24.510  12.430   7.390
 1619BOLB   C2A38838  24.750  12.320   7.070
 1619BOLB   C3A38839  24.650  12.040   6.730
 1619BOLB   C4A38840  24.660  11.710   6.420
 1619BOLB   C1B38841  24.070  12.480   7.170
 1619BOLB   C2B38842  24.310  12.570   6.820
 1619BOLB   C3B38843  24.570  12.470   6.420
 1619BOLB   C4B38844  24.740  12.180   6.210
 1619BOLB   NC238845  25.670  10.850   4.100
 1619BOLB   PO238846  25.780  10.710   4.460
 1619BOLB   GL338847  25.690  10.930   4.820
 1619BOLB   GL438848  25.780  11.350   4.750
 1619BOLB   C1C38849  25.390  11.020   5.120
 1619BOLB   C2C38850  25.240  11.290   5.370
 1619BOLB   C3C38851  25.110  11.420   5.760
 1619BOLB   C4C38852  24.900  11.480   6.090
 1619BOLB   C1D38853  25.740  11.380   5.260
 1619BOLB   C2D38854  25.640  11.380   5.700
 1619BOLB   C3D38855  25.930  11.270   6.010
 1619BOLB   C4D38856  26.150  11.190   6.390
 1620BOLB   NC138857  27.480  16.590  12.940
 1620BOLB   PO138858  27.830  16.680  12.650
 1620BOLB   GL138859  28.160  16.850  12.710
 1620BOLB   GL238860  28.220  17.130  12.830
 1620BOLB   C1A38861  28.620  16.960  12.610
 1620BOLB   C2A38862  28.930  17.000  12.780
 1620BOLB   C3A38863  29.250  16.950  12.560
 1620BOLB   C4A38864  29.660  17.010  12.590
 1620BOLB   C1B38865  28.580  17.360  12.900
 1620BOLB   C2B38866  28.740  17.450  12.410
 1620BOLB   C3B38867  28.980  17.200  12.160
 1620BOLB   C4B38868  29.390  17.050  12.030
 1620BOLB   NC238869  32.140  18.830  12.590
 1620BOLB   PO238870  31.770  18.620  12.370
 1620BOLB   GL338871  31.330  18.470  12.440
 1620BOLB   GL438872  31.100  18.640  12.150
 1620BOLB   C1C38873  31.060  18.060  12.520
 1620BOLB   C2C38874  30.740  17.930  12.480
 1620BOLB   C3C38875  30.410  17.640  12.560
 1620BOLB   C4C38876  30.000  17.380  12.520
 1620BOLB   C1D38877  30.760  18.530  11.950
 1620BOLB   C2D38878  30.350  18.250  11.770
 1620BOLB   C3D38879  30.330  17.730  11.600
 1620BOLB   C4D38880  30.190  17.340  11.880
 1621BOLB   NC138881  25.860   7.410  15.180
 1621BOLB   PO138882  25.740   6.990  15.110
 1621BOLB   GL138883  26.100   6.720  15.140
 1621BOLB   GL238884  26.030   6.430  15.110
 1621BOLB   C1A38885  26.560   6.640  15.070
 1621BOLB   C2A38886  26.770   6.330  15.070
 1621BOLB   C3A38887  26.860   6.010  14.810
 1621BOLB   C4A38888  27.090   5.740  14.530
 1621BOLB   C1B38889  26.020   6.010  15.210
 1621BOLB   C2B38890  26.170   5.640  15.250
 1621BOLB   C3B38891  26.290   5.330  14.940
 1621BOLB   C4B38892  26.150   5.000  14.570
 1621BOLB   NC238893  29.140   4.730  14.850
 1621BOLB   PO238894  28.730   4.600  14.900
 1621BOLB   GL338895  28.330   4.680  14.830
 1621BOLB   GL438896  28.250   4.380  14.860
 1621BOLB   C1C38897  28.250   5.130  14.740
 1621BOLB   C2C38898  28.070   5.380  14.390
 1621BOLB   C3C38899  27.730   5.600  14.270
 1621BOLB   C4C38900  27.410   5.750  14.260
 1621BOLB   C1D38901  27.890   4.710  14.620
 1621BOLB   C2D38902  27.700   5.000  14.610
 1621BOLB   C3D38903  27.440   5.340  14.640
 1621BOLB   C4D38904  27.220   5.620  14.960
 1622BOLB   NC138905  23.950   5.480  16.430
 1622BOLB   PO138906  23.810   5.510  15.990
 1622BOLB   GL138907  23.910   5.120  16.010
 1622BOLB   GL238908  24.140   5.080  16.250
 1622BOLB   C1A38909  24.110   4.730  15.870
 1622BOLB   C2A38910  24.140   4.460  15.580
 1622BOLB   C3A38911  24.220   4.050  15.530
 1622BOLB   C4A38912  24.090   3.660  15.630
 1622BOLB   C1B38913  24.510   4.810  16.260
 1622BOLB   C2B38914  24.880   4.560  16.450
 1622BOLB   C3B38915  25.020   4.330  16.860
 1622BOLB   C4B38916  25.260   4.350  17.140
 1622BOLB   NC238917  25.500   1.720  15.200
 1622BOLB   PO238918  24.990   1.550  15.060
 1622BOLB   GL338919  25.040   2.070  15.070
 1622BOLB   GL438920  24.780   2.160  14.960
 1622BOLB   C1C38921  25.100   2.510  14.900
 1622BOLB   C2C38922  24.800   2.890  14.980
 1622BOLB   C3C38923  24.610   3.210  15.220
 1622BOLB   C4C38924  24.210   3.250  15.490
 1622BOLB   C1D38925  24.680   2.450  15.220
 1622BOLB   C2D38926  24.330   2.780  15.270
 1622BOLB   C3D38927  23.930   2.710  15.200
 1622BOLB   C4D38928  23.570   2.890  15.040
 1623BOLB   NC138929  28.580  12.360  13.380
 1623BOLB   PO138930  28.850  12.000  13.580
 1623BOLB   GL138931  29.190  11.900  13.570
 1623BOLB   GL238932  29.250  11.650  13.380
 1623BOLB   C1A38933  29.660  11.880  13.560
 1623BOLB   C2A38934  29.890  11.850  13.940
 1623BOLB   C3A38935  30.030  11.990  14.390
 1623BOLB   C4A38936  30.410  12.200  14.670
 1623BOLB   C1B38937  29.570  11.380  13.210
 1623BOLB   C2B38938  30.060  11.220  13.060
 1623BOLB   C3B38939  30.280  10.780  13.100
 1623BOLB   C4B38940  30.560  10.530  13.220
 1623BOLB   NC238941  33.000  12.180  13.830
 1623BOLB   PO238942  32.780  12.020  14.150
 1623BOLB   GL338943  32.430  12.080  14.490
 1623BOLB   GL438944  32.120  12.140  14.330
 1623BOLB   C1C38945  32.090  11.920  14.800
 1623BOLB   C2C38946  31.690  12.060  14.970
 1623BOLB   C3C38947  31.240  12.040  14.730
 1623BOLB   C4C38948  30.840  12.190  14.880
 1623BOLB   C1D38949  31.680  12.040  14.470
 1623BOLB   C2D38950  31.320  11.740  14.420
 1623BOLB   C3D38951  30.900  11.660  14.690
 1623BOLB   C4D38952  30.480  11.740  14.790
 1624BOLB   NC138953  27.780  11.040  16.930
 1624BOLB   PO138954  27.860  11.090  17.410
 1624BOLB   GL138955  28.150  10.910  17.630
 1624BOLB   GL238956  28.400  10.730  17.480
 1624BOLB   C1A38957  28.480  10.940  18.000
 1624BOLB   C2A38958  28.710  11.280  18.080
 1624BOLB   C3A38959  29.140  11.430  17.850
 1624BOLB   C4A38960  29.600  11.530  17.750
 1624BOLB   C1B38961  28.750  10.550  17.750
 1624BOLB   C2B38962  28.930  10.770  18.110
 1624BOLB   C3B38963  29.240  11.060  18.300
 1624BOLB   C4B38964  29.510  11.290  18.620
 1624BOLB   NC238965  31.940  10.170  18.230
 1624BOLB   PO238966  31.840  10.560  18.300
 1624BOLB   GL338967  31.500  10.650  18.310
 1624BOLB   GL438968  31.400  10.930  18.530
 1624BOLB   C1C38969  31.230  10.840  18.000
 1624BOLB   C2C38970  30.810  11.030  17.830
 1624BOLB   C3C38971  30.350  11.000  17.850
 1624BOLB   C4C38972  29.930  11.260  17.610
 1624BOLB   C1D38973  30.900  10.860  18.450
 1624BOLB   C2D38974  30.510  11.060  18.490
 1624BOLB   C3D38975  30.130  10.900  18.240
 1624BOLB   C4D38976  29.910  10.700  17.870
 1625BOLB   NC138977  17.090  14.290   7.700
 1625BOLB   PO138978  16.700  14.120   7.600
 1625BOLB   GL138979  16.940  14.210   7.160
 1625BOLB   GL238980  16.920  14.460   6.970
 1625BOLB   C1A38981  17.260  14.210   6.730
 1625BOLB   C2A38982  17.080  14.050   6.330
 1625BOLB   C3A38983  16.650  14.080   6.120
 1625BOLB   C4A38984  16.620  13.860   5.700
 1625BOLB   C1B38985  16.860  14.560   6.520
 1625BOLB   C2B38986  16.910  14.520   6.020
 1625BOLB   C3B38987  16.660  14.450   5.650
 1625BOLB   C4B38988  16.630  14.420   5.210
 1625BOLB   NC238989  15.870  12.770   3.710
 1625BOLB   PO238990  16.120  13.110   3.720
 1625BOLB   GL338991  16.180  13.140   4.140
 1625BOLB   GL438992  16.340  13.410   4.070
 1625BOLB   C1C38993  15.960  13.140   4.520
 1625BOLB   C2C38994  16.020  13.240   4.970
 1625BOLB   C3C38995  16.110  13.330   5.400
 1625BOLB   C4C38996  16.310  13.490   5.740
 1625BOLB   C1D38997  16.640  13.600   4.340
 1625BOLB   C2D38998  16.830  13.590   4.720
 1625BOLB   C3D38999  16.980  13.890   5.030
 1625BOLB   C4D39000  17.110  14.260   5.360
 1626BOLB   NC139001  27.370   9.050  15.610
 1626BOLB   PO139002  27.310   9.410  15.820
 1626BOLB   GL139003  27.760   9.300  15.810
 1626BOLB   GL239004  27.930   9.180  15.510
 1626BOLB   C1A39005  28.140   9.090  16.040
 1626BOLB   C2A39006  28.050   8.640  16.130
 1626BOLB   C3A39007  28.220   8.300  16.320
 1626BOLB   C4A39008  28.570   8.040  16.630
 1626BOLB   C1B39009  28.330   9.040  15.530
 1626BOLB   C2B39010  28.560   8.870  15.840
 1626BOLB   C3B39011  28.580   8.550  16.080
 1626BOLB   C4B39012  28.850   8.260  16.230
 1626BOLB   NC239013  30.520   6.750  16.410
 1626BOLB   PO239014  30.200   6.970  16.760
 1626BOLB   GL339015  30.130   7.460  16.940
 1626BOLB   GL439016  30.270   7.580  17.230
 1626BOLB   C1C39017  29.890   7.860  16.880
 1626BOLB   C2C39018  29.540   7.960  17.010
 1626BOLB   C3C39019  29.150   7.880  17.090
 1626BOLB   C4C39020  28.730   7.950  17.010
 1626BOLB   C1D39021  29.830   7.620  17.320
 1626BOLB   C2D39022  29.460   7.700  17.420
 1626BOLB   C3D39023  29.170   7.810  17.840
 1626BOLB   C4D39024  29.300   8.000  18.130
 1627BOLB   NC139025  20.620   4.970  15.190
 1627BOLB   PO139026  21.000   5.000  15.540
 1627BOLB   GL139027  21.120   4.700  15.810
 1627BOLB   GL239028  20.840   4.790  16.040
 1627BOLB   C1A39029  21.270   4.400  15.870
 1627BOLB   C2A39030  21.440   3.960  15.900
 1627BOLB   C3A39031  21.220   3.520  15.730
 1627BOLB   C4A39032  21.100   3.180  15.870
 1627BOLB   C1B39033  20.680   4.380  16.000
 1627BOLB   C2B39034  20.840   4.010  16.090
 1627BOLB   C3B39035  20.990   3.570  16.420
 1627BOLB   C4B39036  21.150   3.360  16.710
 1627BOLB   NC239037  21.210   1.210  16.800
 1627BOLB   PO239038  21.550   1.300  16.580
 1627BOLB   GL339039  21.390   1.650  16.650
 1627BOLB   GL439040  21.680   1.780  16.550
 1627BOLB   C1C39041  21.070   1.860  16.750
 1627BOLB   C2C39042  20.920   2.040  16.410
 1627BOLB   C3C39043  20.780   2.450  16.130
 1627BOLB   C4C39044  21.040   2.780  15.880
 1627BOLB   C1D39045  21.510   2.230  16.530
 1627BOLB   C2D39046  21.620   2.510  16.230
 1627BOLB   C3D39047  21.490   2.770  15.970
 1627BOLB   C4D39048  21.700   2.760  15.620
 1628BOLB   NC139049  25.820  18.500  17.430
 1628BOLB   PO139050  25.570  18.660  17.590
 1628BOLB   GL139051  25.790  18.860  17.770
 1628BOLB   GL239052  25.700  19.140  17.790
 1628BOLB   C1A39053  26.220  18.850  17.900
 1628BOLB   C2A39054  26.670  18.970  17.800
 1628BOLB   C3A39055  27.130  19.050  17.590
 1628BOLB   C4A39056  27.420  19.150  17.340
 1628BOLB   C1B39057  26.180  19.340  17.930
 1628BOLB   C2B39058  26.620  19.410  18.050
 1628BOLB   C3B39059  26.910  19.440  18.440
 1628BOLB   C4B39060  27.300  19.530  18.630
 1628BOLB   NC239061  29.360  20.660  17.930
 1628BOLB   PO239062  28.940  20.630  18.060
 1628BOLB   GL339063  28.620  20.370  18.300
 1628BOLB   GL439064  28.530  20.030  18.580
 1628BOLB   C1C39065  28.460  20.040  18.010
 1628BOLB   C2C39066  28.250  19.910  17.510
 1628BOLB   C3C39067  27.810  19.820  17.340
 1628BOLB   C4C39068  27.740  19.460  17.170
 1628BOLB   C1D39069  28.080  20.230  18.310
 1628BOLB   C2D39070  28.110  20.530  17.880
 1628BOLB   C3D39071  28.250  20.710  17.480
 1628BOLB   C4D39072  28.540  20.440  17.320
 1629BOLB   NC139073  13.120   7.260  14.720
 1629BOLB   PO139074  13.480   7.030  14.640
 1629BOLB   GL139075  13.130   6.810  14.540
 1629BOLB   GL239076  12.770   6.820  14.700
 1629BOLB   C1A39077  13.060   6.430  14.430
 1629BOLB   C2A39078  13.080   5.990  14.270
 1629BOLB   C3A39079  12.760   5.740  14.170
 1629BOLB   C4A39080  12.540   5.510  13.960
 1629BOLB   C1B39081  12.540   6.470  14.620
 1629BOLB   C2B39082  12.500   6.140  14.350
 1629BOLB   C3B39083  12.200   5.820  14.240
 1629BOLB   C4B39084  11.760   5.920  14.080
 1629BOLB   NC239085  10.550   4.670  14.090
 1629BOLB   PO239086  10.680   4.640  13.630
 1629BOLB   GL339087  11.100   4.730  13.520
 1629BOLB   GL439088  11.460   4.620  13.540
 1629BOLB   C1C39089  11.240   5.090  13.280
 1629BOLB   C2C39090  11.550   5.450  13.280
 1629BOLB   C3C39091  11.960   5.500  13.360
 1629BOLB   C4C39092  12.190   5.620  13.770
 1629BOLB   C1D39093  11.870   4.550  13.660
 1629BOLB   C2D39094  12.320   4.500  13.520
 1629BOLB   C3D39095  12.660   4.700  13.230
 1629BOLB   C4D39096  12.880   5.000  13.250
 1630BOLB   NC139097  13.790   5.550  21.740
 1630BOLB   PO139098  13.960   5.850  21.950
 1630BOLB   GL139099  13.860   6.250  21.620
 1630BOLB   GL239100  13.770   6.050  21.310
 1630BOLB   C1A39101  13.990   6.580  21.310
 1630BOLB   C2A39102  14.060   6.880  21.020
 1630BOLB   C3A39103  13.910   7.040  20.630
 1630BOLB   C4A39104  13.710   6.850  20.380
 1630BOLB   C1B39105  14.220   6.090  21.290
 1630BOLB   C2B39106  14.350   6.320  21.020
 1630BOLB   C3B39107  14.110   6.500  20.690
 1630BOLB   C4B39108  14.020   6.220  20.420
 1630BOLB   NC239109  12.530   5.050  20.400
 1630BOLB   PO239110  12.880   4.780  20.300
 1630BOLB   GL339111  12.880   5.190  20.030
 1630BOLB   GL439112  12.660   5.410  20.090
 1630BOLB   C1C39113  13.120   5.520  19.800
 1630BOLB   C2C39114  13.350   5.850  19.690
 1630BOLB   C3C39115  13.620   6.330  19.690
 1630BOLB   C4C39116  13.590   6.460  20.200
 1630BOLB   C1D39117  12.930   5.800  20.270
 1630BOLB   C2D39118  13.050   6.140  20.160
 1630BOLB   C3D39119  13.140   6.460  19.830
 1630BOLB   C4D39120  13.290   6.770  19.470
 1631BOLB   NC139121  28.270  14.260  13.890
 1631BOLB   PO139122  28.450  14.040  13.520
 1631BOLB   GL139123  28.880  13.860  13.540
 1631BOLB   GL239124  29.040  13.610  13.740
 1631BOLB   C1A39125  29.180  14.000  13.480
 1631BOLB   C2A39126  29.530  13.930  13.360
 1631BOLB   C3A39127  29.810  13.680  13.580
 1631BOLB   C4A39128  30.220  13.550  13.530
 1631BOLB   C1B39129  29.420  13.790  13.880
 1631BOLB   C2B39130  29.800  13.970  13.960
 1631BOLB   C3B39131  30.210  13.960  13.920
 1631BOLB   C4B39132  30.610  14.130  14.050
 1631BOLB   NC239133  32.520  13.050  13.890
 1631BOLB   PO239134  32.630  13.510  13.780
 1631BOLB   GL339135  32.240  13.400  13.650
 1631BOLB   GL439136  32.070  13.680  13.510
 1631BOLB   C1C39137  31.880  13.300  13.920
 1631BOLB   C2C39138  31.490  13.190  14.010
 1631BOLB   C3C39139  30.970  13.300  13.890
 1631BOLB   C4C39140  30.600  13.610  13.640
 1631BOLB   C1D39141  31.760  13.880  13.480
 1631BOLB   C2D39142  31.460  13.800  13.200
 1631BOLB   C3D39143  31.080  13.650  12.960
 1631BOLB   C4D39144  30.700  13.590  12.680
 1632BOLB   NC139145  28.770   6.830  20.590
 1632BOLB   PO139146  28.590   6.880  20.150
 1632BOLB   GL139147  28.550   7.170  19.870
 1632BOLB   GL239148  28.520   6.950  19.580
 1632BOLB   C1A39149  28.500   7.410  19.520
 1632BOLB   C2A39150  28.690   7.790  19.390
 1632BOLB   C3A39151  28.510   8.110  19.140
 1632BOLB   C4A39152  28.330   8.210  18.750
 1632BOLB   C1B39153  28.200   7.060  19.360
 1632BOLB   C2B39154  28.030   7.510  19.360
 1632BOLB   C3B39155  28.080   7.890  19.080
 1632BOLB   C4B39156  27.900   8.350  18.870
 1632BOLB   NC239157  26.960   9.790  17.940
 1632BOLB   PO239158  27.060  10.080  18.250
 1632BOLB   GL339159  27.370  10.010  18.490
 1632BOLB   GL439160  27.500  10.270  18.490
 1632BOLB   C1C39161  27.480   9.560  18.520
 1632BOLB   C2C39162  27.820   9.280  18.540
 1632BOLB   C3C39163  27.990   8.850  18.280
 1632BOLB   C4C39164  28.020   8.420  18.400
 1632BOLB   C1D39165  27.800  10.630  18.570
 1632BOLB   C2D39166  27.960  10.820  18.890
 1632BOLB   C3D39167  28.420  10.970  18.970
 1632BOLB   C4D39168  28.690  11.290  19.190
 1633BOLB   NC139169  28.520  11.550  13.960
 1633BOLB   PO139170  28.850  11.230  14.090
 1633BOLB   GL139171  29.250  11.230  13.820
 1633BOLB   GL239172  29.380  11.530  13.860
 1633BOLB   C1A39173  29.680  11.220  13.680
 1633BOLB   C2A39174  30.020  11.400  13.500
 1633BOLB   C3A39175  30.120  11.840  13.340
 1633BOLB   C4A39176  30.320  12.200  13.220
 1633BOLB   C1B39177  29.730  11.420  14.140
 1633BOLB   C2B39178  30.190  11.510  14.310
 1633BOLB   C3B39179  30.630  11.650  14.300
 1633BOLB   C4B39180  30.850  12.030  14.360
 1633BOLB   NC239181  32.590  12.260  12.060
 1633BOLB   PO239182  32.410  12.310  12.430
 1633BOLB   GL339183  32.030  12.330  12.510
 1633BOLB   GL439184  32.110  12.340  12.870
 1633BOLB   C1C39185  31.640  12.490  12.350
 1633BOLB   C2C39186  31.250  12.350  12.530
 1633BOLB   C3C39187  31.020  12.190  12.810
 1633BOLB   C4C39188  30.760  12.220  13.190
 1633BOLB   C1D39189  31.730  12.320  12.970
 1633BOLB   C2D39190  31.550  12.640  12.800
 1633BOLB   C3D39191  31.300  12.950  12.970
 1633BOLB   C4D39192  31.330  13.240  13.050
 1634BOLB   NC139193  24.870   6.930  14.090
 1634BOLB   PO139194  25.030   6.830  13.730
 1634BOLB   GL139195  25.240   6.570  13.670
 1634BOLB   GL239196  25.250   6.270  13.790
 1634BOLB   C1A39197  25.510   6.440  13.390
 1634BOLB   C2A39198  25.780   6.350  13.030
 1634BOLB   C3A39199  26.140   6.110  13.010
 1634BOLB   C4A39200  26.180   5.830  12.680
 1634BOLB   C1B39201  25.480   6.020  13.680
 1634BOLB   C2B39202  25.700   5.830  13.270
 1634BOLB   C3B39203  26.030   5.580  13.120
 1634BOLB   C4B39204  26.520   5.600  13.120
 1634BOLB   NC239205  26.910   3.510  12.210
 1634BOLB   PO239206  26.910   3.720  11.810
 1634BOLB   GL339207  26.780   3.950  12.050
 1634BOLB   GL439208  26.920   4.010  12.330
 1634BOLB   C1C39209  26.560   4.360  12.220
 1634BOLB   C2C39210  26.680   4.830  12.210
 1634BOLB   C3C39211  26.790   5.200  12.320
 1634BOLB   C4C39212  26.420   5.460  12.540
 1634BOLB   C1D39213  26.830   4.240  12.650
 1634BOLB   C2D39214  26.880   4.450  13.110
 1634BOLB   C3D39215  26.740   4.660  13.460
 1634BOLB   C4D39216  26.900   4.580  13.840
 1635BOLB   NC139217  24.480  14.080  19.840
 1635BOLB   PO139218  24.790  14.290  19.860
 1635BOLB   GL139219  24.880  14.110  20.260
 1635BOLB   GL239220  24.560  14.240  20.370
 1635BOLB   C1A39221  25.210  14.050  20.530
 1635BOLB   C2A39222  25.450  14.060  20.760
 1635BOLB   C3A39223  25.770  14.070  21.050
 1635BOLB   C4A39224  26.130  13.890  21.360
 1635BOLB   C1B39225  24.780  14.340  20.670
 1635BOLB   C2B39226  25.050  14.550  20.870
 1635BOLB   C3B39227  25.420  14.490  21.190
 1635BOLB   C4B39228  25.850  14.490  21.400
 1635BOLB   NC239229  26.830  14.720  23.090
 1635BOLB   PO239230  26.590  14.560  23.400
 1635BOLB   GL339231  26.420  14.440  23.090
 1635BOLB   GL439232  26.360  14.790  22.970
 1635BOLB   C1C39233  26.290  14.090  22.830
 1635BOLB   C2C39234  26.300  14.080  22.380
 1635BOLB   C3C39235  26.420  13.770  22.130
 1635BOLB   C4C39236  26.380  13.740  21.700
 1635BOLB   C1D39237  26.240  14.670  22.610
 1635BOLB   C2D39238  26.090  14.500  22.240
 1635BOLB   C3D39239  25.980  14.670  21.920
 1635BOLB   C4D39240  26.020  15.090  21.630
 1636BOLB   NC139241  21.760  10.710   8.470
 1636BOLB   PO139242  22.180  10.780   8.150
 1636BOLB   GL139243  22.360  10.700   7.780
 1636BOLB   GL239244  22.660  10.520   7.740
 1636BOLB   C1A39245  22.320  10.590   7.360
 1636BOLB   C2A39246  22.420  10.460   7.050
 1636BOLB   C3A39247  22.110  10.330   6.740
 1636BOLB   C4A39248  22.110  10.100   6.500
 1636BOLB   C1B39249  22.850  10.480   7.260
 1636BOLB   C2B39250  22.840  10.470   6.760
 1636BOLB   C3B39251  22.680  10.440   6.350
 1636BOLB   C4B39252  22.230  10.500   6.230
 1636BOLB   NC239253  23.360   8.670   4.480
 1636BOLB   PO239254  23.320   9.140   4.440
 1636BOLB   GL339255  23.260   9.260   4.920
 1636BOLB   GL439256  23.540   9.430   5.060
 1636BOLB   C1C39257  22.930   9.410   5.080
 1636BOLB   C2C39258  22.770   9.650   5.430
 1636BOLB   C3C39259  22.600   9.870   5.830
 1636BOLB   C4C39260  22.400  10.000   6.270
 1636BOLB   C1D39261  23.480   9.410   5.430
 1636BOLB   C2D39262  23.100   9.380   5.690
 1636BOLB   C3D39263  22.920   9.500   6.020
 1636BOLB   C4D39264  22.750   9.610   6.410
 1637BOLB   NC139265  24.500   6.580  11.620
 1637BOLB   PO139266  24.100   6.530  11.390
 1637BOLB   GL139267  24.160   6.570  10.960
 1637BOLB   GL239268  24.460   6.370  11.020
 1637BOLB   C1A39269  24.310   6.390  10.570
 1637BOLB   C2A39270  24.650   6.240  10.280
 1637BOLB   C3A39271  25.040   5.980  10.120
 1637BOLB   C4A39272  25.300   5.840   9.730
 1637BOLB   C1B39273  24.550   5.940  10.720
 1637BOLB   C2B39274  24.690   5.570  10.630
 1637BOLB   C3B39275  24.730   5.380  10.230
 1637BOLB   C4B39276  24.480   5.240   9.850
 1637BOLB   NC239277  26.010   3.790   9.790
 1637BOLB   PO239278  26.100   4.020   9.320
 1637BOLB   GL339279  26.170   4.360   9.480
 1637BOLB   GL439280  26.220   4.370   9.780
 1637BOLB   C1C39281  25.960   4.780   9.450
 1637BOLB   C2C39282  25.920   5.230   9.240
 1637BOLB   C3C39283  25.740   5.500   8.980
 1637BOLB   C4C39284  25.480   5.840   9.210
 1637BOLB   C1D39285  26.520   4.700   9.800
 1637BOLB   C2D39286  26.670   5.170   9.850
 1637BOLB   C3D39287  26.440   5.450   9.940
 1637BOLB   C4D39288  26.070   5.620   9.970
 1638BOLB   NC139289  27.150  11.380  11.780
 1638BOLB   PO139290  27.550  11.090  11.760
 1638BOLB   GL139291  27.760  10.640  11.530
 1638BOLB   GL239292  27.600  10.350  11.540
 1638BOLB   C1A39293  28.070  10.370  11.370
 1638BOLB   C2A39294  28.180  10.160  11.050
 1638BOLB   C3A39295  28.430   9.890  10.800
 1638BOLB   C4A39296  28.760   9.710  10.530
 1638BOLB   C1B39297  27.680  10.100  11.120
 1638BOLB   C2B39298  27.870   9.790  10.980
 1638BOLB   C3B39299  28.080   9.550  10.700
 1638BOLB   C4B39300  28.290   9.470  10.380
 1638BOLB   NC239301  29.960   8.430   8.150
 1638BOLB   PO239302  29.740   8.520   8.400
 1638BOLB   GL339303  29.460   8.810   8.630
 1638BOLB   GL439304  29.290   8.650   8.900
 1638BOLB   C1C39305  29.470   9.110   9.040
 1638BOLB   C2C39306  29.310   9.290   9.460
 1638BOLB   C3C39307  29.350   9.340   9.940
 1638BOLB   C4C39308  29.130   9.520  10.250
 1638BOLB   C1D39309  29.140   8.710   9.280
 1638BOLB   C2D39310  28.850   9.000   9.460
 1638BOLB   C3D39311  28.780   9.120   9.940
 1638BOLB   C4D39312  28.740   9.260  10.360
 1639BOLB   NC139313  16.320   9.970   9.640
 1639BOLB   PO139314  15.910   9.850   9.370
 1639BOLB   GL139315  16.020   9.730   8.880
 1639BOLB   GL239316  16.200   9.800   8.610
 1639BOLB   C1A39317  15.810   9.490   8.490
 1639BOLB   C2A39318  15.690   9.260   8.160
 1639BOLB   C3A39319  15.390   9.100   7.840
 1639BOLB   C4A39320  14.990   8.970   7.740
 1639BOLB   C1B39321  16.420   9.440   8.410
 1639BOLB   C2B39322  16.280   9.320   7.980
 1639BOLB   C3B39323  16.340   9.120   7.610
 1639BOLB   C4B39324  16.130   9.320   7.220
 1639BOLB   NC239325  13.600   7.590   6.150
 1639BOLB   PO239326  13.980   7.580   6.190
 1639BOLB   GL339327  14.440   7.540   6.340
 1639BOLB   GL439328  14.570   7.320   6.550
 1639BOLB   C1C39329  14.700   7.920   6.700
 1639BOLB   C2C39330  14.900   8.120   7.020
 1639BOLB   C3C39331  14.780   8.560   7.170
 1639BOLB   C4C39332  14.890   8.880   7.360
 1639BOLB   C1D39333  14.630   7.450   6.970
 1639BOLB   C2D39334  14.720   7.700   7.240
 1639BOLB   C3D39335  14.820   7.670   7.680
 1639BOLB   C4D39336  15.000   8.050   7.950
 1640BOLB   NC139337  23.940  12.700  24.420
 1640BOLB   PO139338  23.610  12.870  24.180
 1640BOLB   GL139339  23.530  12.600  23.820
 1640BOLB   GL239340  23.840  12.910  23.720
 1640BOLB   C1A39341  23.370  12.480  23.330
 1640BOLB   C2A39342  23.160  12.190  23.080
 1640BOLB   C3A39343  23.120  12.050  22.620
 1640BOLB   C4A39344  22.950  11.840  22.190
 1640BOLB   C1B39345  23.550  13.110  23.420
 1640BOLB   C2B39346  23.440  12.910  23.130
 1640BOLB   C3B39347  23.330  12.930  22.820
 1640BOLB   C4B39348  23.210  12.860  22.420
 1640BOLB   NC239349  22.610  11.620  19.570
 1640BOLB   PO239350  22.970  11.670  19.800
 1640BOLB   GL339351  22.880  11.920  20.160
 1640BOLB   GL439352  22.910  11.650  20.380
 1640BOLB   C1C39353  22.800  12.070  20.630
 1640BOLB   C2C39354  22.810  12.140  21.070
 1640BOLB   C3C39355  22.740  12.200  21.510
 1640BOLB   C4C39356  22.820  11.880  21.780
 1640BOLB   C1D39357  23.220  11.740  20.600
 1640BOLB   C2D39358  23.320  11.870  20.960
 1640BOLB   C3D39359  23.580  12.090  21.180
 1640BOLB   C4D39360  23.990  12.110  21.330
 1641BOLB   NC139361  27.610   9.480  12.830
 1641BOLB   PO139362  27.740   9.360  12.500
 1641BOLB   GL139363  27.790   9.140  12.170
 1641BOLB   GL239364  28.060   9.170  12.040
 1641BOLB   C1A39365  27.690   8.680  12.040
 1641BOLB   C2A39366  27.790   8.210  11.850
 1641BOLB   C3A39367  28.150   8.040  11.870
 1641BOLB   C4A39368  28.390   7.710  11.960
 1641BOLB   C1B39369  28.380   9.040  11.870
 1641BOLB   C2B39370  28.720   8.930  11.920
 1641BOLB   C3B39371  29.240   8.870  12.030
 1641BOLB   C4B39372  29.610   8.650  12.210
 1641BOLB   NC239373  30.190   5.640  12.700
 1641BOLB   PO239374  29.990   6.050  12.820
 1641BOLB   GL339375  29.770   6.400  12.750
 1641BOLB   GL439376  29.600   6.300  13.050
 1641BOLB   C1C39377  29.610   6.530  12.390
 1641BOLB   C2C39378  29.380   6.890  12.360
 1641BOLB   C3C39379  28.990   7.030  12.130
 1641BOLB   C4C39380  28.730   7.370  12.060
 1641BOLB   C1D39381  29.160   6.570  13.040
 1641BOLB   C2D39382  28.770   6.320  13.020
 1641BOLB   C3D39383  28.350   6.050  12.950
 1641BOLB   C4D39384  28.030   6.280  12.810
 1642BOLB   NC139385  21.030   5.360  11.860
 1642BOLB   PO139386  21.290   5.300  12.260
 1642BOLB   GL139387  21.220   4.910  12.290
 1642BOLB   GL239388  20.960   4.850  12.190
 1642BOLB   C1A39389  21.510   4.570  12.170
 1642BOLB   C2A39390  21.550   4.160  11.980
 1642BOLB   C3A39391  21.620   3.770  11.810
 1642BOLB   C4A39392  21.490   3.360  11.960
 1642BOLB   C1B39393  20.720   4.550  12.230
 1642BOLB   C2B39394  20.700   4.110  12.570
 1642BOLB   C3B39395  20.700   3.780  12.900
 1642BOLB   C4B39396  20.700   3.410  13.150
 1642BOLB   NC239397  21.730   1.050  12.090
 1642BOLB   PO239398  22.050   1.090  12.400
 1642BOLB   GL339399  21.800   1.490  12.410
 1642BOLB   GL439400  21.790   1.730  12.570
 1642BOLB   C1C39401  21.650   1.730  11.980
 1642BOLB   C2C39402  21.690   2.180  11.960
 1642BOLB   C3C39403  21.570   2.550  11.900
 1642BOLB   C4C39404  21.410   2.920  11.930
 1642BOLB   C1D39405  21.750   2.210  12.490
 1642BOLB   C2D39406  21.600   2.600  12.450
 1642BOLB   C3D39407  21.180   2.920  12.350
 1642BOLB   C4D39408  21.040   3.280  12.040
 1643BOLB   NC139409  21.630  14.840  20.300
 1643BOLB   PO139410  21.680  14.520  19.990
 1643BOLB   GL139411  21.690  14.280  20.420
 1643BOLB   GL239412  21.880  14.490  20.590
 1643BOLB   C1A39413  21.630  14.020  20.770
 1643BOLB   C2A39414  21.510  14.250  21.190
 1643BOLB   C3A39415  21.480  14.420  21.630
 1643BOLB   C4A39416  21.450  14.340  22.050
 1643BOLB   C1B39417  21.680  14.680  20.940
 1643BOLB   C2B39418  21.720  14.900  21.270
 1643BOLB   C3B39419  21.630  14.970  21.660
 1643BOLB   C4B39420  21.500  15.030  22.080
 1643BOLB   NC239421  21.590  13.940  24.970
 1643BOLB   PO239422  21.470  14.000  24.510
 1643BOLB   GL339423  21.630  13.950  24.080
 1643BOLB   GL439424  21.980  13.800  24.180
 1643BOLB   C1C39425  21.600  14.240  23.800
 1643BOLB   C2C39426  21.600  14.310  23.370
 1643BOLB   C3C39427  21.710  14.280  22.850
 1643BOLB   C4C39428  21.650  14.310  22.410
 1643BOLB   C1D39429  22.050  14.060  23.670
 1643BOLB   C2D39430  22.050  14.200  23.190
 1643BOLB   C3D39431  22.220  14.320  22.790
 1643BOLB   C4D39432  22.240  14.670  22.540
 1644BOLB   NC139433  27.310   4.470  11.080
 1644BOLB   PO139434  26.950   4.200  11.090
 1644BOLB   GL139435  26.830   4.550  11.250
 1644BOLB   GL239436  26.570   4.530  11.290
 1644BOLB   C1A39437  26.740   4.930  11.530
 1644BOLB   C2A39438  26.680   5.350  11.760
 1644BOLB   C3A39439  26.870   5.670  11.610
 1644BOLB   C4A39440  26.950   6.110  11.450
 1644BOLB   C1B39441  26.440   4.930  11.150
 1644BOLB   C2B39442  26.100   5.240  11.050
 1644BOLB   C3B39443  25.820   5.550  11.360
 1644BOLB   C4B39444  26.010   5.720  11.580
 1644BOLB   NC239445  27.440   4.790  10.420
 1644BOLB   PO239446  27.320   4.690   9.960
 1644BOLB   GL339447  27.000   4.920  10.100
 1644BOLB   GL439448  26.730   4.650  10.270
 1644BOLB   C1C39449  26.790   5.210  10.370
 1644BOLB   C2C39450  26.470   5.580  10.460
 1644BOLB   C3C39451  26.630   6.050  10.650
 1644BOLB   C4C39452  26.660   6.240  11.050
 1644BOLB   C1D39453  26.340   4.910  10.180
 1644BOLB   C2D39454  25.970   5.240  10.300
 1644BOLB   C3D39455  25.950   5.700  10.580
 1644BOLB   C4D39456  26.160   6.120  10.510
 1645BOLB   NC139457  12.020  15.000  10.350
 1645BOLB   PO139458  12.150  14.850   9.860
 1645BOLB   GL139459  11.850  14.680   9.510
 1645BOLB   GL239460  11.550  14.900   9.400
 1645BOLB   C1A39461  11.670  14.370   9.220
 1645BOLB   C2A39462  11.450  14.210   8.940
 1645BOLB   C3A39463  11.090  14.020   8.700
 1645BOLB   C4A39464  10.740  14.020   8.370
 1645BOLB   C1B39465  11.470  14.790   9.040
 1645BOLB   C2B39466  11.280  14.790   8.650
 1645BOLB   C3B39467  11.380  14.780   8.250
 1645BOLB   C4B39468  11.440  14.950   7.820
 1645BOLB   NC239469   9.920  13.180   6.670
 1645BOLB   PO239470   9.880  13.420   6.440
 1645BOLB   GL339471  10.080  13.790   6.640
 1645BOLB   GL439472   9.970  13.980   6.920
 1645BOLB   C1C39473  10.410  14.060   6.750
 1645BOLB   C2C39474  10.690  14.040   7.080
 1645BOLB   C3C39475  10.940  14.010   7.420
 1645BOLB   C4C39476  10.750  13.870   7.920
 1645BOLB   C1D39477  10.250  14.250   7.170
 1645BOLB   C2D39478  10.240  14.700   7.320
 1645BOLB   C3D39479  10.550  14.960   7.200
 1645BOLB   C4D39480  10.550  15.110   6.820
 1646BOLB   NC139481  22.060   6.300  10.950
 1646BOLB   PO139482  22.080   5.930  11.120
 1646BOLB   GL139483  22.240   5.460  11.060
 1646BOLB   GL239484  22.550   5.480  11.220
 1646BOLB   C1A39485  22.210   5.090  11.200
 1646BOLB   C2A39486  22.460   4.850  11.200
 1646BOLB   C3A39487  22.690   4.610  10.860
 1646BOLB   C4A39488  22.470   4.390  10.420
 1646BOLB   C1B39489  22.840   5.120  11.000
 1646BOLB   C2B39490  22.980   5.030  10.600
 1646BOLB   C3B39491  23.100   4.910  10.170
 1646BOLB   C4B39492  23.320   4.950   9.740
 1646BOLB   NC239493  22.190   3.060   8.480
 1646BOLB   PO239494  22.290   3.140   8.930
 1646BOLB   GL339495  22.050   3.330   9.200
 1646BOLB   GL439496  21.960   3.050   9.370
 1646BOLB   C1C39497  22.010   3.830   9.370
 1646BOLB   C2C39498  21.870   4.130   9.660
 1646BOLB   C3C39499  21.880   4.210   9.940
 1646BOLB   C4C39500  22.070   4.540  10.220
 1646BOLB   C1D39501  21.920   3.460   9.690
 1646BOLB   C2D39502  22.090   3.690   9.830
 1646BOLB   C3D39503  22.270   3.920  10.190
 1646BOLB   C4D39504  22.440   3.890  10.490
 1647BOLB   NC139505  21.870   1.800  20.550
 1647BOLB   PO139506  21.870   1.950  20.140
 1647BOLB   GL139507  21.610   2.340  20.010
 1647BOLB   GL239508  21.310   2.330  19.950
 1647BOLB   C1A39509  21.750   2.800  19.820
 1647BOLB   C2A39510  21.670   3.400  19.860
 1647BOLB   C3A39511  21.600   3.830  19.700
 1647BOLB   C4A39512  21.540   4.050  19.390
 1647BOLB   C1B39513  21.110   2.660  20.070
 1647BOLB   C2B39514  21.110   3.120  20.080
 1647BOLB   C3B39515  21.310   3.580  20.130
 1647BOLB   C4B39516  21.130   3.980  20.030
 1647BOLB   NC239517  20.400   5.890  18.000
 1647BOLB   PO239518  20.670   6.040  17.670
 1647BOLB   GL339519  20.890   5.740  17.940
 1647BOLB   GL439520  20.870   5.930  18.230
 1647BOLB   C1C39521  21.120   5.390  18.150
 1647BOLB   C2C39522  21.330   5.030  18.430
 1647BOLB   C3C39523  21.530   4.740  18.800
 1647BOLB   C4C39524  21.610   4.400  19.060
 1647BOLB   C1D39525  20.820   5.690  18.570
 1647BOLB   C2D39526  20.940   5.520  18.990
 1647BOLB   C3D39527  21.120   5.240  19.390
 1647BOLB   C4D39528  21.160   5.270  19.880
 1648BOLB   NC139529  19.480   5.270  17.310
 1648BOLB   PO139530  19.600   5.220  16.870
 1648BOLB   GL139531  19.630   4.880  16.930
 1648BOLB   GL239532  19.500   4.680  16.870
 1648BOLB   C1A39533  19.730   4.600  17.280
 1648BOLB   C2A39534  19.990   4.280  17.410
 1648BOLB   C3A39535  20.240   4.010  17.560
 1648BOLB   C4A39536  20.190   3.560  17.460
 1648BOLB   C1B39537  19.820   4.220  16.910
 1648BOLB   C2B39538  20.030   3.860  17.090
 1648BOLB   C3B39539  20.180   3.500  16.950
 1648BOLB   C4B39540  20.210   3.000  16.920
 1648BOLB   NC239541  20.710   1.560  18.290
 1648BOLB   PO239542  20.510   1.770  17.890
 1648BOLB   GL339543  20.200   2.020  17.720
 1648BOLB   GL439544  20.170   2.230  18.060
 1648BOLB   C1C39545  20.210   2.460  17.580
 1648BOLB   C2C39546  20.500   2.670  17.190
 1648BOLB   C3C39547  20.710   3.050  17.260
 1648BOLB   C4C39548  20.480   3.430  17.370
 1648BOLB   C1D39549  20.250   2.550  18.330
 1648BOLB   C2D39550  20.120   3.060  18.080
 1648BOLB   C3D39551  20.230   3.490  17.990
 1648BOLB   C4D39552  20.590   3.780  17.930
 1649BOLB   NC139553  27.960  10.660  17.170
 1649BOLB   PO139554  27.540  10.470  17.200
 1649BOLB   GL139555  27.870  10.220  17.400
 1649BOLB   GL239556  27.700  10.080  17.570
 1649BOLB   C1A39557  28.160   9.890  17.350
 1649BOLB   C2A39558  28.410   9.620  17.240
 1649BOLB   C3A39559  28.620   9.290  17.360
 1649BOLB   C4A39560  28.970   9.090  17.520
 1649BOLB   C1B39561  27.980   9.820  17.840
 1649BOLB   C2B39562  28.390   9.860  18.070
 1649BOLB   C3B39563  28.750   9.620  18.330
 1649BOLB   C4B39564  28.690   9.180  18.260
 1649BOLB   NC239565  30.800   8.330  18.840
 1649BOLB   PO239566  30.580   8.130  18.610
 1649BOLB   GL339567  30.390   8.200  18.350
 1649BOLB   GL439568  30.110   8.450  18.450
 1649BOLB   C1C39569  30.270   8.350  17.920
 1649BOLB   C2C39570  29.980   8.500  17.610
 1649BOLB   C3C39571  29.590   8.660  17.510
 1649BOLB   C4C39572  29.160   8.760  17.590
 1649BOLB   C1D39573  29.780   8.440  18.090
 1649BOLB   C2D39574  29.470   8.620  17.980
 1649BOLB   C3D39575  29.460   9.060  17.830
 1649BOLB   C4D39576  29.840   9.440  17.660
 1650BOLB   NC139577  20.270  11.020   8.060
 1650BOLB   PO139578  20.110  11.360   7.830
 1650BOLB   GL139579  20.510  11.270   7.660
 1650BOLB   GL239580  20.490  10.920   7.580
 1650BOLB   C1A39581  20.770  11.240   7.350
 1650BOLB   C2A39582  20.770  11.040   6.980
 1650BOLB   C3A39583  20.580  10.660   6.750
 1650BOLB   C4A39584  20.670  10.610   6.210
 1650BOLB   C1B39585  20.720  10.640   7.290
 1650BOLB   C2B39586  21.060  10.660   7.070
 1650BOLB   C3B39587  21.370  10.430   6.810
 1650BOLB   C4B39588  21.360  10.370   6.310
 1650BOLB   NC239589  20.820   9.850   4.090
 1650BOLB   PO239590  20.400   9.960   4.030
 1650BOLB   GL339591  20.530  10.150   4.430
 1650BOLB   GL439592  20.750  10.330   4.510
 1650BOLB   C1C39593  20.520  10.240   4.910
 1650BOLB   C2C39594  20.740  10.200   5.240
 1650BOLB   C3C39595  21.010  10.310   5.590
 1650BOLB   C4C39596  20.940  10.540   5.930
 1650BOLB   C1D39597  20.550  10.660   4.660
 1650BOLB   C2D39598  20.480  11.060   4.840
 1650BOLB   C3D39599  20.490  11.140   5.310
 1650BOLB   C4D39600  20.710  11.030   5.830
 1651BOLB   NC139601  26.240  11.230  23.410
 1651BOLB   PO139602  26.000  10.900  23.110
 1651BOLB   GL139603  25.630  10.760  22.900
 1651BOLB   GL239604  25.780  11.030  22.670
 1651BOLB   C1A39605  25.410  10.470  22.690
 1651BOLB   C2A39606  25.340  10.600  22.290
 1651BOLB   C3A39607  25.260  10.520  21.830
 1651BOLB   C4A39608  25.540  10.230  21.520
 1651BOLB   C1B39609  25.760  10.870  22.250
 1651BOLB   C2B39610  25.670  10.840  21.890
 1651BOLB   C3B39611  25.470  10.800  21.430
 1651BOLB   C4B39612  25.380  10.730  21.000
 1651BOLB   NC239613  24.800  11.750  19.770
 1651BOLB   PO239614  24.370  11.560  19.880
 1651BOLB   GL339615  24.700  11.310  20.130
 1651BOLB   GL439616  24.430  11.160  20.200
 1651BOLB   C1C39617  24.840  10.890  20.340
 1651BOLB   C2C39618  25.330  10.780  20.420
 1651BOLB   C3C39619  25.580  10.410  20.630
 1651BOLB   C4C39620  25.510  10.150  21.030
 1651BOLB   C1D39621  24.410  10.950  20.570
 1651BOLB   C2D39622  24.670  10.750  20.920
 1651BOLB   C3D39623  24.590  10.460  21.270
 1651BOLB   C4D39624  24.230  10.320  21.560
 1652BOLB   NC139625  26.090  10.140  11.010
 1652BOLB   PO139626  26.180   9.780  10.710
 1652BOLB   GL139627  26.690   9.790  10.490
 1652BOLB   GL239628  26.670   9.670  10.180
 1652BOLB   C1A39629  27.110   9.690  10.400
 1652BOLB   C2A39630  27.410   9.370  10.220
 1652BOLB   C3A39631  27.790   9.230  10.310
 1652BOLB   C4A39632  28.120   8.810  10.300
 1652BOLB   C1B39633  26.960   9.540   9.900
 1652BOLB   C2B39634  27.320   9.430   9.640
 1652BOLB   C3B39635  27.500   8.960   9.530
 1652BOLB   C4B39636  27.810   8.710   9.450
 1652BOLB   NC239637  29.740   7.090  10.020
 1652BOLB   PO239638  29.400   7.210   9.750
 1652BOLB   GL339639  29.130   7.460   9.700
 1652BOLB   GL439640  29.120   7.760   9.540
 1652BOLB   C1C39641  28.790   7.610   9.910
 1652BOLB   C2C39642  28.280   7.640  10.030
 1652BOLB   C3C39643  28.020   7.950  10.170
 1652BOLB   C4C39644  27.990   8.300  10.370
 1652BOLB   C1D39645  28.660   7.930   9.500
 1652BOLB   C2D39646  28.200   8.070   9.610
 1652BOLB   C3D39647  28.010   8.390   9.820
 1652BOLB   C4D39648  27.760   8.840   9.930
 1653BOLB   NC139649  28.350   5.330  10.450
 1653BOLB   PO139650  27.890   5.040  10.530
 1653BOLB   GL139651  27.630   5.310  10.590
 1653BOLB   GL239652  27.260   5.270  10.570
 1653BOLB   C1A39653  27.470   5.580  10.920
 1653BOLB   C2A39654  27.420   5.620  11.430
 1653BOLB   C3A39655  27.330   5.840  11.830
 1653BOLB   C4A39656  27.600   6.050  12.070
 1653BOLB   C1B39657  27.060   5.680  10.550
 1653BOLB   C2B39658  27.160   6.080  10.510
 1653BOLB   C3B39659  26.930   6.440  10.620
 1653BOLB   C4B39660  26.660   6.730  10.850
 1653BOLB   NC239661  28.710   5.000  12.300
 1653BOLB   PO239662  29.020   5.090  12.520
 1653BOLB   GL339663  28.820   5.230  12.800
 1653BOLB   GL439664  28.550   5.020  12.760
 1653BOLB   C1C39665  28.530   5.310  13.190
 1653BOLB   C2C39666  28.080   5.590  13.130
 1653BOLB   C3C39667  27.960   5.780  12.740
 1653BOLB   C4C39668  27.770   6.000  12.450
 1653BOLB   C1D39669  28.150   5.220  12.830
 1653BOLB   C2D39670  27.720   5.200  12.580
 1653BOLB   C3D39671  27.490   5.520  12.640
 1653BOLB   C4D39672  27.320   5.850  12.450
 1654BOLB   NC139673  23.930   8.290  18.580
 1654BOLB   PO139674  23.990   8.610  19.000
 1654BOLB   GL139675  24.250   8.570  19.350
 1654BOLB   GL239676  24.000   8.540  19.480
 1654BOLB   C1A39677  24.480   8.480  19.700
 1654BOLB   C2A39678  24.800   8.430  20.100
 1654BOLB   C3A39679  25.120   8.260  20.350
 1654BOLB   C4A39680  25.410   8.350  20.650
 1654BOLB   C1B39681  24.040   8.240  19.690
 1654BOLB   C2B39682  24.210   8.080  20.060
 1654BOLB   C3B39683  24.020   7.800  20.310
 1654BOLB   C4B39684  24.000   7.480  20.690
 1654BOLB   NC239685  25.760   7.610  23.010
 1654BOLB   PO239686  25.340   7.890  23.080
 1654BOLB   GL339687  25.340   7.830  22.730
 1654BOLB   GL439688  25.640   7.720  22.530
 1654BOLB   C1C39689  25.280   8.090  22.280
 1654BOLB   C2C39690  25.190   8.180  21.870
 1654BOLB   C3C39691  25.390   8.260  21.510
 1654BOLB   C4C39692  25.520   8.260  21.080
 1654BOLB   C1D39693  25.770   7.900  22.250
 1654BOLB   C2D39694  25.730   8.230  21.980
 1654BOLB   C3D39695  25.900   8.430  21.650
 1654BOLB   C4D39696  26.040   8.870  21.540
 1655BOLB   NC139697  21.490   5.280  13.150
 1655BOLB   PO139698  21.730   4.990  13.060
 1655BOLB   GL139699  21.870   4.640  13.350
 1655BOLB   GL239700  21.760   4.360  13.320
 1655BOLB   C1A39701  22.320   4.310  13.250
 1655BOLB   C2A39702  22.590   4.020  13.140
 1655BOLB   C3A39703  23.020   3.810  13.260
 1655BOLB   C4A39704  23.570   3.660  13.350
 1655BOLB   C1B39705  21.940   4.020  13.180
 1655BOLB   C2B39706  22.010   3.550  13.100
 1655BOLB   C3B39707  21.970   3.190  13.310
 1655BOLB   C4B39708  22.160   2.880  13.270
 1655BOLB   NC239709  23.680   1.640  12.710
 1655BOLB   PO239710  23.340   1.460  12.840
 1655BOLB   GL339711  23.280   1.730  13.150
 1655BOLB   GL439712  23.090   1.930  12.890
 1655BOLB   C1C39713  23.370   2.090  13.360
 1655BOLB   C2C39714  23.390   2.550  13.480
 1655BOLB   C3C39715  23.490   2.940  13.670
 1655BOLB   C4C39716  23.700   3.240  13.550
 1655BOLB   C1D39717  23.020   2.340  13.040
 1655BOLB   C2D39718  23.030   2.760  13.160
 1655BOLB   C3D39719  23.220   3.060  13.310
 1655BOLB   C4D39720  23.240   3.390  13.560
 1656BOLB   NC139721  25.630   9.490   9.690
 1656BOLB   PO139722  26.020   9.620   9.910
 1656BOLB   GL139723  26.390   9.480   9.790
 1656BOLB   GL239724  26.510   9.620   9.560
 1656BOLB   C1A39725  26.440   9.060   9.560
 1656BOLB   C2A39726  26.770   8.740   9.350
 1656BOLB   C3A39727  27.170   8.510   9.310
 1656BOLB   C4A39728  27.520   8.550   9.050
 1656BOLB   C1B39729  26.870   9.510   9.370
 1656BOLB   C2B39730  26.970   9.480   8.940
 1656BOLB   C3B39731  27.400   9.630   8.820
 1656BOLB   C4B39732  27.830   9.770   9.010
 1656BOLB   NC239733  29.940   8.010   9.900
 1656BOLB   PO239734  29.880   8.140   9.510
 1656BOLB   GL339735  29.430   8.130   9.650
 1656BOLB   GL439736  29.460   8.240   9.960
 1656BOLB   C1C39737  28.980   8.270   9.650
 1656BOLB   C2C39738  28.550   8.470   9.320
 1656BOLB   C3C39739  28.130   8.460   9.190
 1656BOLB   C4C39740  27.970   8.420   8.950
 1656BOLB   C1D39741  29.220   8.470  10.360
 1656BOLB   C2D39742  29.090   8.700  10.760
 1656BOLB   C3D39743  29.080   9.020  10.850
 1656BOLB   C4D39744  29.030   9.280  11.140
 1657BOLB   NC139745  24.790   6.390  13.770
 1657BOLB   PO139746  24.860   6.480  14.190
 1657BOLB   GL139747  25.170   6.230  14.430
 1657BOLB   GL239748  25.440   6.300  14.280
 1657BOLB   C1A39749  25.300   5.840  14.590
 1657BOLB   C2A39750  25.490   5.450  14.800
 1657BOLB   C3A39751  25.760   5.070  14.910
 1657BOLB   C4A39752  26.230   4.850  15.090
 1657BOLB   C1B39753  25.820   6.000  14.300
 1657BOLB   C2B39754  26.070   5.690  14.040
 1657BOLB   C3B39755  26.280   5.560  13.680
 1657BOLB   C4B39756  26.740   5.570  13.560
 1657BOLB   NC239757  27.100   2.890  16.650
 1657BOLB   PO239758  27.070   2.650  16.250
 1657BOLB   GL339759  26.680   2.920  16.280
 1657BOLB   GL439760  26.780   3.200  16.540
 1657BOLB   C1C39761  26.490   3.290  16.010
 1657BOLB   C2C39762  26.550   3.690  15.890
 1657BOLB   C3C39763  26.420   4.050  15.450
 1657BOLB   C4C39764  26.500   4.520  15.270
 1657BOLB   C1D39765  26.610   3.500  16.560
 1657BOLB   C2D39766  26.490   3.820  16.640
 1657BOLB   C3D39767  26.400   4.190  16.940
 1657BOLB   C4D39768  26.090   4.310  17.310
 1658BOLB   NC139769  21.190   5.980  17.430
 1658BOLB   PO139770  21.640   5.970  17.400
 1658BOLB   GL139771  21.440   5.540  17.350
 1658BOLB   GL239772  21.530   5.280  17.210
 1658BOLB   C1A39773  21.590   5.220  17.750
 1658BOLB   C2A39774  21.750   4.850  18.170
 1658BOLB   C3A39775  21.720   4.490  18.350
 1658BOLB   C4A39776  21.890   4.290  18.590
 1658BOLB   C1B39777  21.860   4.930  17.120
 1658BOLB   C2B39778  22.120   4.630  17.190
 1658BOLB   C3B39779  22.340   4.390  17.470
 1658BOLB   C4B39780  22.640   4.510  17.700
 1658BOLB   NC239781  22.700   2.310  20.590
 1658BOLB   PO239782  22.470   2.520  20.340
 1658BOLB   GL339783  22.260   2.940  20.310
 1658BOLB   GL439784  21.940   2.980  20.240
 1658BOLB   C1C39785  22.250   3.350  20.110
 1658BOLB   C2C39786  22.110   3.710  19.800
 1658BOLB   C3C39787  22.050   4.050  19.450
 1658BOLB   C4C39788  22.070   4.200  19.020
 1658BOLB   C1D39789  21.780   3.480  20.340
 1658BOLB   C2D39790  21.670   3.990  20.200
 1658BOLB   C3D39791  21.490   4.300  19.840
 1658BOLB   C4D39792  21.130   4.220  19.520
 1659BOLB   NC139793  18.120   1.840  18.270
 1659BOLB   PO139794  18.220   1.650  17.880
 1659BOLB   GL139795  18.500   2.100  17.750
 1659BOLB   GL239796  18.870   2.040  17.550
 1659BOLB   C1A39797  18.510   2.510  17.910
 1659BOLB   C2A39798  18.420   2.910  17.800
 1659BOLB   C3A39799  18.200   3.140  17.490
 1659BOLB   C4A39800  18.060   3.380  17.080
 1659BOLB   C1B39801  18.900   2.040  17.090
 1659BOLB   C2B39802  18.820   2.170  16.640
 1659BOLB   C3B39803  18.680   2.440  16.190
 1659BOLB   C4B39804  18.750   2.620  15.860
 1659BOLB   NC239805  18.800   4.870  16.390
 1659BOLB   PO239806  18.640   4.860  15.960
 1659BOLB   GL339807  18.430   4.570  15.900
 1659BOLB   GL439808  18.090   4.630  15.740
 1659BOLB   C1C39809  18.180   4.180  15.710
 1659BOLB   C2C39810  17.950   3.830  15.860
 1659BOLB   C3C39811  18.100   3.590  16.150
 1659BOLB   C4C39812  18.060   3.550  16.650
 1659BOLB   C1D39813  17.750   4.420  15.600
 1659BOLB   C2D39814  17.630   3.990  15.540
 1659BOLB   C3D39815  17.560   3.640  15.720
 1659BOLB   C4D39816  17.320   3.390  15.530
 1660BOLB   NC139817  26.840   4.040  18.620
 1660BOLB   PO139818  26.620   3.630  18.530
 1660BOLB   GL139819  26.300   3.770  18.240
 1660BOLB   GL239820  26.320   3.710  17.880
 1660BOLB   C1A39821  26.030   4.170  18.160
 1660BOLB   C2A39822  25.580   4.420  18.190
 1660BOLB   C3A39823  25.370   4.790  18.240
 1660BOLB   C4A39824  25.220   5.010  18.640
 1660BOLB   C1B39825  26.620   3.940  17.700
 1660BOLB   C2B39826  26.640   4.350  17.370
 1660BOLB   C3B39827  26.470   4.680  17.240
 1660BOLB   C4B39828  26.140   4.720  17.040
 1660BOLB   NC239829  25.670   4.420  20.570
 1660BOLB   PO239830  25.200   4.580  20.760
 1660BOLB   GL339831  25.020   4.820  20.400
 1660BOLB   GL439832  24.970   4.660  20.080
 1660BOLB   C1C39833  25.130   5.110  20.100
 1660BOLB   C2C39834  25.230   5.420  19.740
 1660BOLB   C3C39835  25.280   5.530  19.240
 1660BOLB   C4C39836  25.100   5.410  18.850
 1660BOLB   C1D39837  24.680   4.930  20.000
 1660BOLB   C2D39838  24.730   5.300  19.760
 1660BOLB   C3D39839  24.730   5.760  19.650
 1660BOLB   C4D39840  24.640   6.170  19.700
 1661BOLB   NC139841  23.950   6.400  23.060
 1661BOLB   PO139842  24.000   6.850  23.060
 1661BOLB   GL139843  23.920   7.140  22.760
 1661BOLB   GL239844  24.140   7.040  22.440
 1661BOLB   C1A39845  23.680   7.300  22.400
 1661BOLB   C2A39846  23.690   7.700  22.070
 1661BOLB   C3A39847  23.420   8.000  22.030
 1661BOLB   C4A39848  23.290   8.240  21.680
 1661BOLB   C1B39849  24.080   7.080  22.060
 1661BOLB   C2B39850  24.100   7.060  21.700
 1661BOLB   C3B39851  23.960   7.370  21.470
 1661BOLB   C4B39852  23.760   7.590  21.140
 1661BOLB   NC239853  23.300   9.060  19.030
 1661BOLB   PO239854  23.280   8.900  19.420
 1661BOLB   GL339855  23.550   8.810  19.750
 1661BOLB   GL439856  23.610   9.030  19.940
 1661BOLB   C1C39857  23.650   8.430  20.110
 1661BOLB   C2C39858  23.590   8.060  20.370
 1661BOLB   C3C39859  23.560   8.140  20.770
 1661BOLB   C4C39860  23.460   8.200  21.210
 1661BOLB   C1D39861  23.400   8.830  20.290
 1661BOLB   C2D39862  23.240   8.410  20.450
 1661BOLB   C3D39863  23.140   7.910  20.620
 1661BOLB   C4D39864  23.510   7.620  20.660
 1662BOLB   NC139865  23.560  20.800   9.880
 1662BOLB   PO139866  23.400  20.570   9.530
 1662BOLB   GL139867  23.510  21.000   9.460
 1662BOLB   GL239868  23.840  21.190   9.570
 1662BOLB   C1A39869  23.650  21.330   9.090
 1662BOLB   C2A39870  23.720  21.570   8.830
 1662BOLB   C3A39871  23.940  21.970   8.680
 1662BOLB   C4A39872  23.930  22.060   8.140
 1662BOLB   C1B39873  24.190  21.530   9.310
 1662BOLB   C2B39874  24.370  21.700   8.890
 1662BOLB   C3B39875  24.720  21.660   8.620
 1662BOLB   C4B39876  25.190  21.770   8.660
 1662BOLB   NC239877  23.860  24.190   6.640
 1662BOLB   PO239878  23.810  23.780   6.780
 1662BOLB   GL339879  23.800  23.460   7.030
 1662BOLB   GL439880  23.450  23.520   6.970
 1662BOLB   C1C39881  23.830  23.070   6.890
 1662BOLB   C2C39882  23.720  22.600   6.930
 1662BOLB   C3C39883  23.790  22.250   7.200
 1662BOLB   C4C39884  23.770  22.230   7.730
 1662BOLB   C1D39885  23.160  23.210   6.980
 1662BOLB   C2D39886  22.800  22.900   7.040
 1662BOLB   C3D39887  22.390  22.830   7.150
 1662BOLB   C4D39888  22.060  23.030   7.360
 1663BOLB   NC139889  19.890   8.930   8.800
 1663BOLB   PO139890  20.130   8.660   8.640
 1663BOLB   GL139891  20.340   8.510   8.250
 1663BOLB   GL239892  20.590   8.720   8.050
 1663BOLB   C1A39893  20.150   8.240   7.900
 1663BOLB   C2A39894  19.990   8.050   7.550
 1663BOLB   C3A39895  19.860   7.720   7.490
 1663BOLB   C4A39896  20.130   7.480   7.120
 1663BOLB   C1B39897  20.680   8.370   7.720
 1663BOLB   C2B39898  20.760   8.080   7.410
 1663BOLB   C3B39899  20.980   7.770   7.150
 1663BOLB   C4B39900  21.130   7.430   7.170
 1663BOLB   NC239901  18.720   6.100   5.840
 1663BOLB   PO239902  19.000   6.350   5.650
 1663BOLB   GL339903  19.170   6.490   5.990
 1663BOLB   GL439904  18.970   6.420   6.190
 1663BOLB   C1C39905  19.510   6.390   6.220
 1663BOLB   C2C39906  19.950   6.510   6.440
 1663BOLB   C3C39907  20.230   6.790   6.690
 1663BOLB   C4C39908  20.310   6.990   7.030
 1663BOLB   C1D39909  19.050   6.840   6.360
 1663BOLB   C2D39910  19.010   7.110   6.740
 1663BOLB   C3D39911  19.060   7.590   6.850
 1663BOLB   C4D39912  19.420   7.740   7.120
 1664BOLB   NC139913  22.520   6.000  12.820
 1664BOLB   PO139914  22.410   5.650  12.800
 1664BOLB   GL139915  22.680   5.360  12.460
 1664BOLB   GL239916  23.020   5.320  12.560
 1664BOLB   C1A39917  22.810   5.160  12.100
 1664BOLB   C2A39918  22.990   4.830  11.920
 1664BOLB   C3A39919  23.080   4.450  11.730
 1664BOLB   C4A39920  22.980   4.010  11.600
 1664BOLB   C1B39921  23.220   4.980  12.330
 1664BOLB   C2B39922  23.510   4.720  12.030
 1664BOLB   C3B39923  23.760   4.500  11.760
 1664BOLB   C4B39924  23.890   4.290  11.300
 1664BOLB   NC239925  22.840   2.040   9.500
 1664BOLB   PO239926  22.890   2.230   9.980
 1664BOLB   GL339927  22.600   2.590  10.280
 1664BOLB   GL439928  22.270   2.550  10.280
 1664BOLB   C1C39929  22.660   2.890  10.530
 1664BOLB   C2C39930  22.500   3.220  10.720
 1664BOLB   C3C39931  22.650   3.420  11.060
 1664BOLB   C4C39932  22.770   3.710  11.420
 1664BOLB   C1D39933  22.070   2.980  10.360
 1664BOLB   C2D39934  21.930   2.950  10.860
 1664BOLB   C3D39935  21.670   3.240  11.000
 1664BOLB   C4D39936  21.250   3.410  10.950
 1665BOLB   NC139937  25.980   8.320  14.670
 1665BOLB   PO139938  26.140   8.370  14.200
 1665BOLB   GL139939  26.520   8.020  14.200
 1665BOLB   GL239940  26.410   7.690  14.180
 1665BOLB   C1A39941  26.960   7.900  13.990
 1665BOLB   C2A39942  27.440   7.890  13.960
 1665BOLB   C3A39943  27.880   7.860  13.920
 1665BOLB   C4A39944  28.210   7.550  13.710
 1665BOLB   C1B39945  26.500   7.270  14.030
 1665BOLB   C2B39946  26.910   6.970  14.060
 1665BOLB   C3B39947  26.910   6.570  13.990
 1665BOLB   C4B39948  27.010   6.170  13.750
 1665BOLB   NC239949  30.930   6.370  13.030
 1665BOLB   PO239950  30.600   6.550  13.240
 1665BOLB   GL339951  30.150   6.630  13.340
 1665BOLB   GL439952  30.070   6.690  13.090
 1665BOLB   C1C39953  29.630   6.710  13.400
 1665BOLB   C2C39954  29.320   7.000  13.340
 1665BOLB   C3C39955  29.000   7.160  13.320
 1665BOLB   C4C39956  28.660   7.420  13.590
 1665BOLB   C1D39957  29.640   6.840  12.900
 1665BOLB   C2D39958  29.150   7.060  12.840
 1665BOLB   C3D39959  28.690   6.830  13.000
 1665BOLB   C4D39960  28.370   6.630  13.070
 1666BOLB   NC139961  24.340   1.360  12.870
 1666BOLB   PO139962  24.130   1.690  12.900
 1666BOLB   GL139963  24.040   2.050  12.670
 1666BOLB   GL239964  24.360   2.210  12.610
 1666BOLB   C1A39965  23.900   2.500  12.680
 1666BOLB   C2A39966  23.930   3.010  12.630
 1666BOLB   C3A39967  23.690   3.230  12.340
 1666BOLB   C4A39968  23.490   3.340  11.990
 1666BOLB   C1B39969  24.330   2.610  12.460
 1666BOLB   C2B39970  24.510   2.850  12.110
 1666BOLB   C3B39971  24.880   2.820  12.060
 1666BOLB   C4B39972  25.330   2.960  12.290
 1666BOLB   NC239973  23.320   2.030  10.140
 1666BOLB   PO239974  23.120   2.360  10.430
 1666BOLB   GL339975  23.080   2.700  10.540
 1666BOLB   GL439976  23.150   2.960  10.330
 1666BOLB   C1C39977  23.060   3.160  10.800
 1666BOLB   C2C39978  23.170   3.440  11.060
 1666BOLB   C3C39979  23.250   3.690  11.320
 1666BOLB   C4C39980  23.320   3.690  11.780
 1666BOLB   C1D39981  22.720   3.130  10.050
 1666BOLB   C2D39982  22.380   3.410  10.190
 1666BOLB   C3D39983  22.110   3.510  10.550
 1666BOLB   C4D39984  21.920   3.860  10.590
 1667BOLB   NC139985  18.550   6.840  10.540
 1667BOLB   PO139986  18.520   7.050  10.150
 1667BOLB   GL139987  18.530   6.690   9.960
 1667BOLB   GL239988  18.640   6.390  10.170
 1667BOLB   C1A39989  18.170   6.410   9.980
 1667BOLB   C2A39990  17.890   6.160   9.690
 1667BOLB   C3A39991  17.760   5.680   9.580
 1667BOLB   C4A39992  17.630   5.320   9.360
 1667BOLB   C1B39993  18.490   6.110   9.810
 1667BOLB   C2B39994  18.590   6.120   9.400
 1667BOLB   C3B39995  18.890   5.810   9.330
 1667BOLB   C4B39996  19.220   5.480   9.230
 1667BOLB   NC239997  16.850   4.360   7.390
 1667BOLB   PO239998  16.470   4.330   7.660
 1667BOLB   GL339999  16.630   4.340   8.070
 1667BOLB   GL440000  16.810   4.610   8.000
 1667BOLB   C1C40001  16.920   4.420   8.470
 1667BOLB   C2C40002  17.170   4.440   8.900
 1667BOLB   C3C40003  17.050   4.730   9.240
 1667BOLB   C4C40004  17.260   4.980   9.440
 1667BOLB   C1D40005  17.050   4.870   8.250
 1667BOLB   C2D40006  17.300   5.260   8.340
 1667BOLB   C3D40007  17.250   5.690   8.520
 1667BOLB   C4D40008  17.450   6.100   8.600
 1668BOLB   NC140009  21.420  10.930  20.130
 1668BOLB   PO140010  21.730  11.160  20.190
 1668BOLB   GL140011  21.790  11.230  20.680
 1668BOLB   GL240012  22.150  11.150  20.860
 1668BOLB   C1A40013  21.790  10.900  21.120
 1668BOLB   C2A40014  21.910  10.560  21.350
 1668BOLB   C3A40015  22.070  10.550  21.710
 1668BOLB   C4A40016  22.280  10.460  22.200
 1668BOLB   C1B40017  22.190  11.400  21.150
 1668BOLB   C2B40018  22.250  11.370  21.610
 1668BOLB   C3B40019  22.070  11.580  21.970
 1668BOLB   C4B40020  22.040  11.800  22.310
 1668BOLB   NC240021  22.830  10.540  24.510
 1668BOLB   PO240022  22.590  10.030  24.350
 1668BOLB   GL340023  22.400   9.700  24.000
 1668BOLB   GL440024  22.030   9.730  24.010
 1668BOLB   C1C40025  22.400   9.910  23.620
 1668BOLB   C2C40026  22.300   9.970  23.220
 1668BOLB   C3C40027  22.560  10.160  23.000
 1668BOLB   C4C40028  22.500  10.330  22.540
 1668BOLB   C1D40029  21.770   9.870  23.600
 1668BOLB   C2D40030  21.520   9.640  23.250
 1668BOLB   C3D40031  21.420   9.360  22.910
 1668BOLB   C4D40032  21.620   9.200  22.520
 1669BOLB   NC140033  20.150   8.300   8.970
 1669BOLB   PO140034  19.810   8.030   9.030
 1669BOLB   GL140035  19.510   7.760   9.060
 1669BOLB   GL240036  19.520   7.460   8.910
 1669BOLB   C1A40037  19.170   7.410   9.270
 1669BOLB   C2A40038  18.930   7.130   9.060
 1669BOLB   C3A40039  18.740   6.890   8.710
 1669BOLB   C4A40040  18.550   6.990   8.300
 1669BOLB   C1B40041  19.260   7.190   8.730
 1669BOLB   C2B40042  19.040   7.140   8.420
 1669BOLB   C3B40043  19.130   7.240   8.050
 1669BOLB   C4B40044  18.890   7.460   7.720
 1669BOLB   NC240045  17.940   5.620   5.980
 1669BOLB   PO240046  17.640   5.720   6.320
 1669BOLB   GL340047  17.690   6.150   6.460
 1669BOLB   GL440048  18.010   6.140   6.420
 1669BOLB   C1C40049  17.780   6.160   6.900
 1669BOLB   C2C40050  17.870   6.270   7.370
 1669BOLB   C3C40051  18.170   6.390   7.610
 1669BOLB   C4C40052  18.300   6.770   7.940
 1669BOLB   C1D40053  18.170   6.660   6.470
 1669BOLB   C2D40054  17.990   7.050   6.820
 1669BOLB   C3D40055  17.660   7.210   7.090
 1669BOLB   C4D40056  17.480   7.530   7.440
 1670BOLB   NC140057  28.170  10.740  15.810
 1670BOLB   PO140058  28.400  11.100  15.830
 1670BOLB   GL140059  28.810  11.040  15.730
 1670BOLB   GL240060  28.930  10.850  15.390
 1670BOLB   C1A40061  29.340  11.080  15.560
 1670BOLB   C2A40062  29.590  10.880  15.240
 1670BOLB   C3A40063  29.910  10.940  14.950
 1670BOLB   C4A40064  30.220  10.730  14.930
 1670BOLB   C1B40065  29.280  10.450  15.350
 1670BOLB   C2B40066  29.550  10.390  15.040
 1670BOLB   C3B40067  29.960  10.230  14.960
 1670BOLB   C4B40068  30.090  10.200  14.560
 1670BOLB   NC240069  32.100   8.950  15.850
 1670BOLB   PO240070  32.180   9.210  15.530
 1670BOLB   GL340071  31.760   9.410  15.430
 1670BOLB   GL440072  31.490   9.370  15.770
 1670BOLB   C1C40073  31.440   9.670  15.230
 1670BOLB   C2C40074  31.140   9.920  14.990
 1670BOLB   C3C40075  30.680   9.960  15.100
 1670BOLB   C4C40076  30.390  10.280  15.150
 1670BOLB   C1D40077  31.080   9.490  15.590
 1670BOLB   C2D40078  30.750   9.610  15.490
 1670BOLB   C3D40079  30.570   9.920  15.610
 1670BOLB   C4D40080  30.210  10.160  15.600
 1671BOLB   NC140081  27.940  11.230  16.060
 1671BOLB   PO140082  28.180  10.960  16.240
 1671BOLB   GL140083  28.630  10.630  16.060
 1671BOLB   GL240084  28.630  10.490  15.830
 1671BOLB   C1A40085  29.010  10.390  16.260
 1671BOLB   C2A40086  29.210  10.030  16.380
 1671BOLB   C3A40087  29.560   9.630  16.460
 1671BOLB   C4A40088  29.610   9.230  16.300
 1671BOLB   C1B40089  29.090  10.600  15.810
 1671BOLB   C2B40090  29.590  10.690  15.750
 1671BOLB   C3B40091  29.900  10.840  15.810
 1671BOLB   C4B40092  30.360  10.790  15.960
 1671BOLB   NC240093  31.040   7.860  17.510
 1671BOLB   PO240094  31.170   8.200  17.140
 1671BOLB   GL340095  30.820   8.180  16.840
 1671BOLB   GL440096  30.920   8.240  16.540
 1671BOLB   C1C40097  30.490   8.120  16.830
 1671BOLB   C2C40098  30.140   8.320  16.700
 1671BOLB   C3C40099  29.860   8.450  16.570
 1671BOLB   C4C40100  29.520   8.710  16.320
 1671BOLB   C1D40101  30.940   8.520  16.270
 1671BOLB   C2D40102  30.740   8.700  16.020
 1671BOLB   C3D40103  30.270   8.870  15.950
 1671BOLB   C4D40104  30.110   9.290  16.160
 1672BOLB   NC140105  28.570   5.150  17.800
 1672BOLB   PO140106  28.880   5.170  17.510
 1672BOLB   GL140107  28.500   5.330  17.310
 1672BOLB   GL240108  28.200   5.320  17.520
 1672BOLB   C1A40109  28.370   5.520  17.030
 1672BOLB   C2A40110  28.370   5.610  16.670
 1672BOLB   C3A40111  28.220   5.970  16.430
 1672BOLB   C4A40112  28.280   6.280  16.040
 1672BOLB   C1B40113  27.840   5.590  17.550
 1672BOLB   C2B40114  27.640   5.910  17.710
 1672BOLB   C3B40115  27.590   6.440  17.640
 1672BOLB   C4B40116  27.340   6.820  17.610
 1672BOLB   NC240117  30.390   6.100  15.350
 1672BOLB   PO240118  30.160   6.330  15.690
 1672BOLB   GL340119  29.890   6.590  15.710
 1672BOLB   GL440120  29.770   6.680  15.440
 1672BOLB   C1C40121  29.540   6.830  15.820
 1672BOLB   C2C40122  29.180   7.000  15.820
 1672BOLB   C3C40123  28.850   6.850  15.760
 1672BOLB   C4C40124  28.570   6.440  15.650
 1672BOLB   C1D40125  29.390   7.000  15.430
 1672BOLB   C2D40126  28.930   7.070  15.280
 1672BOLB   C3D40127  28.560   6.980  15.410
 1672BOLB   C4D40128  28.300   7.060  15.780
 1673BOLB   NC140129  13.450   9.040  18.390
 1673BOLB   PO140130  13.320   9.440  18.530
 1673BOLB   GL140131  13.110   9.120  18.760
 1673BOLB   GL240132  13.160   8.750  18.770
 1673BOLB   C1A40133  12.850   9.030  19.060
 1673BOLB   C2A40134  12.380   9.140  19.180
 1673BOLB   C3A40135  11.940   9.330  19.240
 1673BOLB   C4A40136  11.600   9.040  19.360
 1673BOLB   C1B40137  12.910   8.500  19.020
 1673BOLB   C2B40138  12.970   8.530  19.430
 1673BOLB   C3B40139  12.960   8.470  19.890
 1673BOLB   C4B40140  13.080   8.610  20.220
 1673BOLB   NC240141  10.250   7.200  20.200
 1673BOLB   PO240142   9.960   7.450  19.980
 1673BOLB   GL340143  10.240   7.480  19.670
 1673BOLB   GL440144  10.180   7.770  19.620
 1673BOLB   C1C40145  10.630   7.660  19.450
 1673BOLB   C2C40146  10.980   7.930  19.340
 1673BOLB   C3C40147  11.180   8.200  19.240
 1673BOLB   C4C40148  11.360   8.570  19.370
 1673BOLB   C1D40149  10.440   8.060  19.640
 1673BOLB   C2D40150  10.790   8.320  19.560
 1673BOLB   C3D40151  10.760   8.750  19.400
 1673BOLB   C4D40152  11.110   9.030  19.300
 1674BOLB   NC140153  15.670  10.510   9.150
 1674BOLB   PO140154  15.780  10.200   8.990
 1674BOLB   GL140155  15.570   9.970   8.590
 1674BOLB   GL240156  15.360  10.170   8.360
 1674BOLB   C1A40157  15.420   9.680   8.180
 1674BOLB   C2A40158  15.130   9.580   7.870
 1674BOLB   C3A40159  14.970   9.410   7.490
 1674BOLB   C4A40160  15.060   9.260   7.110
 1674BOLB   C1B40161  15.050   9.820   8.520
 1674BOLB   C2B40162  14.780   9.660   8.260
 1674BOLB   C3B40163  14.550   9.440   7.870
 1674BOLB   C4B40164  14.540   9.290   7.500
 1674BOLB   NC240165  15.050   7.650   5.350
 1674BOLB   PO240166  14.750   7.480   5.670
 1674BOLB   GL340167  14.660   7.810   5.670
 1674BOLB   GL440168  14.850   7.830   6.000
 1674BOLB   C1C40169  14.650   8.250   5.850
 1674BOLB   C2C40170  14.610   8.340   6.320
 1674BOLB   C3C40171  14.750   8.720   6.560
 1674BOLB   C4C40172  14.940   9.020   6.780
 1674BOLB   C1D40173  15.040   7.950   6.320
 1674BOLB   C2D40174  15.140   8.300   6.530
 1674BOLB   C3D40175  15.280   8.600   6.760
 1674BOLB   C4D40176  15.280   8.770   7.050
 1675BOLB   NC140177  31.800   8.640  18.140
 1675BOLB   PO140178  31.440   8.980  18.180
 1675BOLB   GL140179  30.950   9.090  17.970
 1675BOLB   GL240180  30.930   8.850  17.680
 1675BOLB   C1A40181  30.790   9.470  17.880
 1675BOLB   C2A40182  30.480   9.690  17.920
 1675BOLB   C3A40183  30.220   9.700  17.720
 1675BOLB   C4A40184  29.950  10.000  17.650
 1675BOLB   C1B40185  30.770   8.710  17.220
 1675BOLB   C2B40186  30.620   8.650  16.780
 1675BOLB   C3B40187  30.550   8.990  16.470
 1675BOLB   C4B40188  30.500   9.340  16.470
 1675BOLB   NC240189  30.640   8.940  19.690
 1675BOLB   PO240190  30.310   8.940  19.460
 1675BOLB   GL340191  30.070   9.040  19.090
 1675BOLB   GL440192  30.240   9.040  18.870
 1675BOLB   C1C40193  29.750   9.390  18.680
 1675BOLB   C2C40194  29.520   9.750  18.640
 1675BOLB   C3C40195  29.610  10.020  18.330
 1675BOLB   C4C40196  29.790  10.220  18.020
 1675BOLB   C1D40197  30.160   8.960  18.490
 1675BOLB   C2D40198  30.150   8.850  18.100
 1675BOLB   C3D40199  29.980   8.970  17.770
 1675BOLB   C4D40200  29.740   9.080  17.310
 1676BOLB   NC140201  26.620  14.140  10.090
 1676BOLB   PO140202  26.630  13.970   9.640
 1676BOLB   GL140203  26.940  14.010   9.500
 1676BOLB   GL240204  27.080  13.760   9.710
 1676BOLB   C1A40205  27.080  14.010   9.120
 1676BOLB   C2A40206  27.390  14.200   8.910
 1676BOLB   C3A40207  27.600  14.370   8.580
 1676BOLB   C4A40208  28.020  14.360   8.470
 1676BOLB   C1B40209  27.490  13.700   9.410
 1676BOLB   C2B40210  27.760  13.690   9.030
 1676BOLB   C3B40211  27.790  13.920   8.710
 1676BOLB   C4B40212  27.860  13.990   8.160
 1676BOLB   NC240213  30.800  14.440   8.080
 1676BOLB   PO240214  30.400  14.520   7.890
 1676BOLB   GL340215  29.930  14.490   7.860
 1676BOLB   GL440216  29.830  14.110   7.960
 1676BOLB   C1C40217  29.490  14.550   7.890
 1676BOLB   C2C40218  29.050  14.490   8.070
 1676BOLB   C3C40219  28.700  14.340   8.200
 1676BOLB   C4C40220  28.350  14.440   8.300
 1676BOLB   C1D40221  29.380  14.000   7.860
 1676BOLB   C2D40222  28.970  13.970   8.020
 1676BOLB   C3D40223  28.700  13.630   8.330
 1676BOLB   C4D40224  28.440  13.380   8.260
 1677BOLB   NC140225  24.420  13.320  19.650
 1677BOLB   PO140226  24.010  13.160  19.810
 1677BOLB   GL140227  23.970  13.030  20.130
 1677BOLB   GL240228  24.070  12.660  20.190
 1677BOLB   C1A40229  24.120  13.400  20.500
 1677BOLB   C2A40230  24.070  13.620  20.910
 1677BOLB   C3A40231  24.300  13.490  21.220
 1677BOLB   C4A40232  24.540  13.490  21.640
 1677BOLB   C1B40233  24.310  12.910  20.530
 1677BOLB   C2B40234  24.460  13.210  20.780
 1677BOLB   C3B40235  24.800  13.200  21.060
 1677BOLB   C4B40236  24.910  13.410  21.300
 1677BOLB   NC240237  24.960  13.790  24.310
 1677BOLB   PO240238  25.100  14.170  24.090
 1677BOLB   GL340239  25.000  14.120  23.640
 1677BOLB   GL440240  24.800  14.420  23.480
 1677BOLB   C1C40241  24.670  13.980  23.250
 1677BOLB   C2C40242  24.510  13.790  22.880
 1677BOLB   C3C40243  24.520  13.630  22.520
 1677BOLB   C4C40244  24.580  13.590  22.060
 1677BOLB   C1D40245  24.800  14.560  23.070
 1677BOLB   C2D40246  24.930  14.480  22.660
 1677BOLB   C3D40247  25.030  14.460  22.310
 1677BOLB   C4D40248  25.070  14.810  22.020
 1678BOLB   NC140249  26.970   8.800  15.500
 1678BOLB   PO140250  26.820   8.360  15.630
 1678BOLB   GL140251  27.200   8.220  15.590
 1678BOLB   GL240252  27.160   8.020  15.290
 1678BOLB   C1A40253  27.430   7.890  15.650
 1678BOLB   C2A40254  27.590   7.590  15.460
 1678BOLB   C3A40255  27.750   7.190  15.640
 1678BOLB   C4A40256  27.930   6.730  15.730
 1678BOLB   C1B40257  27.290   7.770  15.010
 1678BOLB   C2B40258  27.720   7.540  14.990
 1678BOLB   C3B40259  28.040   7.340  15.280
 1678BOLB   C4B40260  28.560   7.410  15.190
 1678BOLB   NC240261  29.980   5.300  15.210
 1678BOLB   PO240262  29.650   5.200  15.460
 1678BOLB   GL340263  29.150   5.290  15.380
 1678BOLB   GL440264  28.970   5.030  15.250
 1678BOLB   C1C40265  28.770   5.530  15.440
 1678BOLB   C2C40266  28.410   5.740  15.570
 1678BOLB   C3C40267  28.320   6.070  15.420
 1678BOLB   C4C40268  28.120   6.410  15.490
 1678BOLB   C1D40269  28.770   4.970  15.680
 1678BOLB   C2D40270  28.560   5.280  15.840
 1678BOLB   C3D40271  28.610   5.720  16.020
 1678BOLB   C4D40272  28.770   5.800  16.430
 1679BOLB   NC140273  23.340   7.190  10.250
 1679BOLB   PO140274  23.310   6.900  10.540
 1679BOLB   GL140275  23.250   6.570  10.400
 1679BOLB   GL240276  23.530   6.420  10.450
 1679BOLB   C1A40277  23.250   6.540   9.930
 1679BOLB   C2A40278  23.450   6.520   9.590
 1679BOLB   C3A40279  23.790   6.340   9.390
 1679BOLB   C4A40280  23.950   6.280   9.070
 1679BOLB   C1B40281  23.860   6.140  10.460
 1679BOLB   C2B40282  24.290   5.940  10.260
 1679BOLB   C3B40283  24.450   5.740   9.980
 1679BOLB   C4B40284  24.810   5.740   9.720
 1679BOLB   NC240285  24.430   5.280   6.780
 1679BOLB   PO240286  23.980   5.210   6.780
 1679BOLB   GL340287  24.030   5.400   7.150
 1679BOLB   GL440288  23.640   5.510   7.100
 1679BOLB   C1C40289  23.950   5.530   7.500
 1679BOLB   C2C40290  24.110   5.590   7.930
 1679BOLB   C3C40291  24.000   5.780   8.390
 1679BOLB   C4C40292  24.090   5.940   8.830
 1679BOLB   C1D40293  23.430   5.550   7.530
 1679BOLB   C2D40294  23.190   5.860   7.770
 1679BOLB   C3D40295  23.210   6.030   8.180
 1679BOLB   C4D40296  23.620   6.150   8.450
 1680BOLB   NC140297  27.990  11.340  15.190
 1680BOLB   PO140298  28.290  11.120  14.960
 1680BOLB   GL140299  28.750  11.300  14.900
 1680BOLB   GL240300  28.790  11.590  15.050
 1680BOLB   C1A40301  29.220  11.160  14.960
 1680BOLB   C2A40302  29.630  11.170  14.670
 1680BOLB   C3A40303  30.000  11.050  14.460
 1680BOLB   C4A40304  30.350  11.110  14.590
 1680BOLB   C1B40305  29.210  11.620  15.280
 1680BOLB   C2B40306  29.610  11.660  15.730
 1680BOLB   C3B40307  30.000  11.400  15.850
 1680BOLB   C4B40308  30.420  11.220  15.730
 1680BOLB   NC240309  32.590  10.660  14.850
 1680BOLB   PO240310  32.480  10.220  14.760
 1680BOLB   GL340311  32.120  10.340  14.770
 1680BOLB   GL440312  32.130  10.570  15.140
 1680BOLB   C1C40313  31.700  10.590  14.870
 1680BOLB   C2C40314  31.350  10.740  14.840
 1680BOLB   C3C40315  31.030  11.100  14.910
 1680BOLB   C4C40316  30.710  11.160  14.760
 1680BOLB   C1D40317  31.730  10.730  15.350
 1680BOLB   C2D40318  31.450  10.890  15.360
 1680BOLB   C3D40319  31.280  11.000  15.730
 1680BOLB   C4D40320  30.990  11.290  15.990
 1681BOLB   NC140321  18.760  10.270   8.120
 1681BOLB   PO140322  18.380  10.020   8.160
 1681BOLB   GL140323  18.080   9.790   7.900
 1681BOLB   GL240324  17.830   9.810   7.550
 1681BOLB   C1A40325  17.900   9.390   7.740
 1681BOLB   C2A40326  17.570   9.140   7.650
 1681BOLB   C3A40327  17.550   8.920   7.240
 1681BOLB   C4A40328  17.560   8.780   6.850
 1681BOLB   C1B40329  17.800   9.520   7.220
 1681BOLB   C2B40330  17.710   9.240   6.840
 1681BOLB   C3B40331  17.940   9.230   6.490
 1681BOLB   C4B40332  18.290   9.140   6.290
 1681BOLB   NC240333  17.690   7.270   4.930
 1681BOLB   PO240334  17.790   7.320   5.410
 1681BOLB   GL340335  18.210   7.550   5.670
 1681BOLB   GL440336  18.160   7.360   5.930
 1681BOLB   C1C40337  18.250   7.820   6.010
 1681BOLB   C2C40338  17.940   7.800   6.220
 1681BOLB   C3C40339  17.630   7.960   6.510
 1681BOLB   C4C40340  17.440   8.380   6.610
 1681BOLB   C1D40341  18.390   7.190   6.410
 1681BOLB   C2D40342  18.550   7.280   6.820
 1681BOLB   C3D40343  18.330   7.370   7.210
 1681BOLB   C4D40344  18.030   7.250   7.480
 1682BOLB   NC140345  22.890   5.680  12.850
 1682BOLB   PO140346  23.210   5.770  12.720
 1682BOLB   GL140347  23.610   5.540  12.900
 1682BOLB   GL240348  23.360   5.220  12.840
 1682BOLB   C1A40349  23.840   5.190  12.860
 1682BOLB   C2A40350  24.190   4.950  12.880
 1682BOLB   C3A40351  24.530   4.710  13.050
 1682BOLB   C4A40352  24.940   4.740  13.120
 1682BOLB   C1B40353  23.500   4.860  12.730
 1682BOLB   C2B40354  23.560   4.470  12.670
 1682BOLB   C3B40355  23.810   4.050  12.560
 1682BOLB   C4B40356  24.270   4.080  12.330
 1682BOLB   NC240357  26.100   2.400  12.720
 1682BOLB   PO240358  26.180   2.810  12.480
 1682BOLB   GL340359  26.050   3.190  12.540
 1682BOLB   GL440360  25.680   3.270  12.550
 1682BOLB   C1C40361  26.070   3.580  12.730
 1682BOLB   C2C40362  25.770   3.640  12.960
 1682BOLB   C3C40363  25.690   4.070  13.010
 1682BOLB   C4C40364  25.360   4.490  12.940
 1682BOLB   C1D40365  25.370   3.750  12.710
 1682BOLB   C2D40366  24.920   3.910  12.800
 1682BOLB   C3D40367  24.520   4.070  12.830
 1682BOLB   C4D40368  24.090   3.840  13.000
 1683BOLB   NC140369  26.910   8.830  13.710
 1683BOLB   PO140370  27.040   8.690  13.450
 1683BOLB   GL140371  27.490   8.570  13.230
 1683BOLB   GL240372  27.490   8.450  12.920
 1683BOLB   C1A40373  27.880   8.490  13.320
 1683BOLB   C2A40374  28.410   8.400  13.220
 1683BOLB   C3A40375  28.640   8.030  13.350
 1683BOLB   C4A40376  28.840   7.670  13.260
 1683BOLB   C1B40377  27.890   8.410  12.830
 1683BOLB   C2B40378  28.100   8.040  12.980
 1683BOLB   C3B40379  28.350   7.640  13.220
 1683BOLB   C4B40380  28.590   7.290  13.000
 1683BOLB   NC240381  30.880   7.470  11.940
 1683BOLB   PO240382  31.120   7.760  12.220
 1683BOLB   GL340383  30.820   8.040  12.390
 1683BOLB   GL440384  30.930   8.350  12.560
 1683BOLB   C1C40385  30.330   7.860  12.550
 1683BOLB   C2C40386  29.960   7.790  12.700
 1683BOLB   C3C40387  29.510   7.800  12.830
 1683BOLB   C4C40388  29.070   7.550  12.880
 1683BOLB   C1D40389  30.520   8.390  12.620
 1683BOLB   C2D40390  29.990   8.290  12.520
 1683BOLB   C3D40391  29.580   8.280  12.540
 1683BOLB   C4D40392  29.410   8.250  12.830
 1684BOLB   NC140393  30.130  11.470  20.700
 1684BOLB   PO140394  29.780  11.370  20.930
 1684BOLB   GL140395  29.610  11.510  20.520
 1684BOLB   GL240396  29.490  11.730  20.670
 1684BOLB   C1A40397  29.550  11.410  20.120
 1684BOLB   C2A40398  29.370  11.490  19.730
 1684BOLB   C3A40399  28.930  11.700  19.560
 1684BOLB   C4A40400  28.520  11.540  19.550
 1684BOLB   C1B40401  29.130  11.670  20.310
 1684BOLB   C2B40402  28.970  11.410  20.010
 1684BOLB   C3B40403  28.920  11.210  19.620
 1684BOLB   C4B40404  29.180  11.390  19.240
 1684BOLB   NC240405  29.710   9.880  20.710
 1684BOLB   PO240406  29.930  10.230  20.480
 1684BOLB   GL340407  29.490  10.280  20.470
 1684BOLB   GL440408  29.620  10.630  20.240
 1684BOLB   C1C40409  29.150  10.570  20.370
 1684BOLB   C2C40410  28.810  10.880  20.330
 1684BOLB   C3C40411  28.550  11.100  20.080
 1684BOLB   C4C40412  28.410  11.540  19.880
 1684BOLB   C1D40413  29.460  10.580  19.890
 1684BOLB   C2D40414  29.130  10.310  19.620
 1684BOLB   C3D40415  28.770  10.210  19.410
 1684BOLB   C4D40416  28.690   9.850  19.130
 1685BOLB   NC140417  28.060  11.650  16.650
 1685BOLB   PO140418  27.860  11.340  16.520
 1685BOLB   GL140419  28.390  11.220  16.610
 1685BOLB   GL240420  28.540  10.920  16.540
 1685BOLB   C1A40421  28.890  11.220  16.660
 1685BOLB   C2A40422  29.340  11.070  16.610
 1685BOLB   C3A40423  29.710  10.840  16.770
 1685BOLB   C4A40424  29.890  10.490  17.040
 1685BOLB   C1B40425  28.880  10.710  16.640
 1685BOLB   C2B40426  29.290  10.470  16.640
 1685BOLB   C3B40427  29.570  10.150  16.810
 1685BOLB   C4B40428  29.830   9.850  16.870
 1685BOLB   NC240429  32.090   9.370  17.620
 1685BOLB   PO240430  32.080   9.800  17.960
 1685BOLB   GL340431  31.650   9.680  17.880
 1685BOLB   GL440432  31.620   9.280  17.860
 1685BOLB   C1C40433  31.200   9.800  17.730
 1685BOLB   C2C40434  30.770   9.860  17.480
 1685BOLB   C3C40435  30.460  10.010  17.330
 1685BOLB   C4C40436  30.050  10.140  17.170
 1685BOLB   C1D40437  31.260   9.320  17.600
 1685BOLB   C2D40438  30.800   9.270  17.430
 1685BOLB   C3D40439  30.400   9.400  17.350
 1685BOLB   C4D40440  30.000   9.510  17.180
 1686BOLB   NC140441  30.680   6.520  15.780
 1686BOLB   PO140442  30.830   6.840  16.020
 1686BOLB   GL140443  30.660   7.250  15.980
 1686BOLB   GL240444  30.870   7.540  16.120
 1686BOLB   C1A40445  30.290   7.480  16.250
 1686BOLB   C2A40446  29.960   7.570  16.490
 1686BOLB   C3A40447  29.600   7.720  16.480
 1686BOLB   C4A40448  29.420   7.810  16.070
 1686BOLB   C1B40449  30.600   7.850  16.250
 1686BOLB   C2B40450  30.470   8.180  16.350
 1686BOLB   C3B40451  30.320   8.560  16.360
 1686BOLB   C4B40452  30.030   8.920  16.460
 1686BOLB   NC240453  31.710   7.940  15.460
 1686BOLB   PO240454  31.500   7.620  15.260
 1686BOLB   GL340455  31.070   7.600  15.110
 1686BOLB   GL440456  30.880   7.340  15.270
 1686BOLB   C1C40457  30.670   7.750  15.050
 1686BOLB   C2C40458  30.280   7.690  15.280
 1686BOLB   C3C40459  29.900   7.710  15.370
 1686BOLB   C4C40460  29.750   7.910  15.680
 1686BOLB   C1D40461  30.780   7.570  15.570
 1686BOLB   C2D40462  30.470   7.870  15.780
 1686BOLB   C3D40463  30.130   7.970  16.050
 1686BOLB   C4D40464  29.870   8.040  16.330
 1687BOLB   NC140465  19.650   5.860  18.380
 1687BOLB   PO140466  19.570   6.190  18.670
 1687BOLB   GL140467  19.390   5.850  18.980
 1687BOLB   GL240468  19.560   5.600  18.800
 1687BOLB   C1A40469  19.550   5.660  19.400
 1687BOLB   C2A40470  19.730   5.170  19.410
 1687BOLB   C3A40471  19.910   4.730  19.280
 1687BOLB   C4A40472  19.760   4.490  19.300
 1687BOLB   C1B40473  19.320   5.350  19.150
 1687BOLB   C2B40474  19.270   5.250  19.550
 1687BOLB   C3B40475  19.210   5.390  19.990
 1687BOLB   C4B40476  19.070   5.820  20.160
 1687BOLB   NC240477  18.920   2.690  20.340
 1687BOLB   PO240478  19.210   2.370  20.420
 1687BOLB   GL340479  19.480   2.740  20.270
 1687BOLB   GL440480  19.630   2.560  20.010
 1687BOLB   C1C40481  19.680   3.130  20.070
 1687BOLB   C2C40482  19.730   3.450  19.750
 1687BOLB   C3C40483  19.860   3.670  19.410
 1687BOLB   C4C40484  19.940   4.040  19.240
 1687BOLB   C1D40485  19.460   2.820  19.730
 1687BOLB   C2D40486  19.400   3.160  19.450
 1687BOLB   C3D40487  19.590   3.340  19.190
 1687BOLB   C4D40488  19.690   3.280  18.760
 1688BOLB   NC140489  26.480   2.430  14.320
 1688BOLB   PO140490  26.160   2.590  14.140
 1688BOLB   GL140491  26.170   2.990  14.120
 1688BOLB   GL240492  26.010   3.180  14.380
 1688BOLB   C1A40493  25.940   3.300  13.890
 1688BOLB   C2A40494  25.510   3.380  13.840
 1688BOLB   C3A40495  25.240   3.430  13.520
 1688BOLB   C4A40496  25.010   3.530  13.120
 1688BOLB   C1B40497  26.240   3.370  14.630
 1688BOLB   C2B40498  26.150   3.740  14.710
 1688BOLB   C3B40499  25.900   4.030  14.620
 1688BOLB   C4B40500  25.940   4.470  14.840
 1688BOLB   NC240501  24.730   1.970  12.050
 1688BOLB   PO240502  24.280   1.870  12.200
 1688BOLB   GL340503  23.940   2.240  12.130
 1688BOLB   GL440504  23.630   2.300  12.130
 1688BOLB   C1C40505  23.930   2.730  12.140
 1688BOLB   C2C40506  24.180   3.260  12.180
 1688BOLB   C3C40507  24.600   3.280  12.320
 1688BOLB   C4C40508  24.830   3.450  12.740
 1688BOLB   C1D40509  23.340   2.620  11.880
 1688BOLB   C2D40510  22.930   2.740  11.790
 1688BOLB   C3D40511  22.670   2.940  12.110
 1688BOLB   C4D40512  22.630   3.060  12.550
 1689BOLB   NC140513  27.520  11.420  17.210
 1689BOLB   PO140514  27.710  11.670  17.020
 1689BOLB   GL140515  28.160  11.350  17.040
 1689BOLB   GL240516  28.310  11.040  17.090
 1689BOLB   C1A40517  28.540  11.520  17.100
 1689BOLB   C2A40518  28.900  11.450  17.180
 1689BOLB   C3A40519  29.320  11.280  17.410
 1689BOLB   C4A40520  29.650  10.920  17.330
 1689BOLB   C1B40521  28.630  10.940  17.060
 1689BOLB   C2B40522  29.100  10.960  17.040
 1689BOLB   C3B40523  29.360  10.610  17.100
 1689BOLB   C4B40524  29.560  10.440  17.510
 1689BOLB   NC240525  31.770   9.670  18.370
 1689BOLB   PO240526  31.540   9.860  18.750
 1689BOLB   GL340527  31.280   9.940  18.370
 1689BOLB   GL440528  31.010  10.090  18.700
 1689BOLB   C1C40529  30.890   9.960  18.070
 1689BOLB   C2C40530  30.410  10.150  17.840
 1689BOLB   C3C40531  30.240  10.400  17.610
 1689BOLB   C4C40532  30.100  10.760  17.380
 1689BOLB   C1D40533  31.200  10.390  18.500
 1689BOLB   C2D40534  31.240  10.320  18.020
 1689BOLB   C3D40535  31.140  10.220  17.550
 1689BOLB   C4D40536  30.820  10.410  17.220
 1690BOLB   NC140537  20.050   4.960  15.000
 1690BOLB   PO140538  20.380   4.710  14.730
 1690BOLB   GL140539  20.370   4.370  14.690
 1690BOLB   GL240540  20.470   4.370  15.040
 1690BOLB   C1A40541  20.180   3.980  14.830
 1690BOLB   C2A40542  19.840   3.660  14.970
 1690BOLB   C3A40543  19.560   3.340  15.050
 1690BOLB   C4A40544  19.370   2.920  15.150
 1690BOLB   C1B40545  20.570   4.030  15.250
 1690BOLB   C2B40546  20.650   3.710  14.960
 1690BOLB   C3B40547  20.740   3.280  15.150
 1690BOLB   C4B40548  20.620   2.880  15.310
 1690BOLB   NC240549  20.270   1.190  15.690
 1690BOLB   PO240550  20.030   0.950  15.530
 1690BOLB   GL340551  19.610   1.130  15.450
 1690BOLB   GL440552  19.380   1.120  15.320
 1690BOLB   C1C40553  19.370   1.580  15.540
 1690BOLB   C2C40554  19.250   1.940  15.400
 1690BOLB   C3C40555  19.230   2.220  15.120
 1690BOLB   C4C40556  19.210   2.600  15.010
 1690BOLB   C1D40557  19.390   1.560  15.060
 1690BOLB   C2D40558  19.570   1.860  14.840
 1690BOLB   C3D40559  19.790   2.260  14.830
 1690BOLB   C4D40560  19.550   2.610  14.630
 1691BOLB   NC140561  25.230  13.510  19.690
 1691BOLB   PO140562  24.860  13.700  19.900
 1691BOLB   GL140563  25.090  13.530  20.180
 1691BOLB   GL240564  25.010  13.620  20.400
 1691BOLB   C1A40565  25.540  13.610  20.280
 1691BOLB   C2A40566  25.970  13.680  20.590
 1691BOLB   C3A40567  26.190  13.900  20.870
 1691BOLB   C4A40568  26.670  14.000  20.920
 1691BOLB   C1B40569  25.290  13.530  20.750
 1691BOLB   C2B40570  25.470  13.490  21.130
 1691BOLB   C3B40571  25.460  13.590  21.530
 1691BOLB   C4B40572  25.360  13.700  21.930
 1691BOLB   NC240573  28.310  14.950  22.860
 1691BOLB   PO240574  27.990  14.680  22.730
 1691BOLB   GL340575  27.700  14.690  22.320
 1691BOLB   GL440576  27.800  14.860  21.910
 1691BOLB   C1C40577  27.460  14.470  22.070
 1691BOLB   C2C40578  27.310  14.110  21.800
 1691BOLB   C3C40579  27.320  14.240  21.430
 1691BOLB   C4C40580  27.130  14.100  21.060
 1691BOLB   C1D40581  27.380  14.740  21.630
 1691BOLB   C2D40582  27.200  14.810  21.230
 1691BOLB   C3D40583  27.040  14.640  20.900
 1691BOLB   C4D40584  26.980  14.200  20.570
 1692BOLB   NC140585  24.630   7.750  10.800
 1692BOLB   PO140586  24.560   7.370  11.050
 1692BOLB   GL140587  24.860   7.090  10.890
 1692BOLB   GL240588  24.650   6.870  10.750
 1692BOLB   C1A40589  25.120   6.980  10.520
 1692BOLB   C2A40590  25.520   6.870  10.450
 1692BOLB   C3A40591  25.770   6.430  10.580
 1692BOLB   C4A40592  25.740   6.070  10.860
 1692BOLB   C1B40593  24.880   6.550  10.700
 1692BOLB   C2B40594  25.240   6.330  10.440
 1692BOLB   C3B40595  25.460   6.050  10.360
 1692BOLB   C4B40596  25.690   5.720  10.210
 1692BOLB   NC240597  27.040   3.780  10.710
 1692BOLB   PO240598  26.710   3.910  10.750
 1692BOLB   GL340599  26.500   4.320  10.580
 1692BOLB   GL440600  26.530   4.540  10.770
 1692BOLB   C1C40601  26.110   4.570  10.460
 1692BOLB   C2C40602  25.810   4.880  10.610
 1692BOLB   C3C40603  25.700   5.300  10.750
 1692BOLB   C4C40604  25.570   5.670  10.880
 1692BOLB   C1D40605  26.390   4.950  10.680
 1692BOLB   C2D40606  26.610   5.330  10.830
 1692BOLB   C3D40607  26.770   5.730  11.050
 1692BOLB   C4D40608  27.150   5.950  10.990
 1693BOLB   NC140609  11.040   4.590  11.510
 1693BOLB   PO140610  11.470   4.600  11.530
 1693BOLB   GL140611  11.770   4.860  11.800
 1693BOLB   GL240612  11.590   5.130  11.790
 1693BOLB   C1A40613  12.080   5.200  11.870
 1693BOLB   C2A40614  12.140   5.600  12.060
 1693BOLB   C3A40615  12.650   5.700  12.000
 1693BOLB   C4A40616  13.020   5.470  12.040
 1693BOLB   C1B40617  11.680   5.470  12.060
 1693BOLB   C2B40618  11.890   5.840  12.360
 1693BOLB   C3B40619  12.060   6.260  12.510
 1693BOLB   C4B40620  12.270   6.640  12.300
 1693BOLB   NC240621  11.990   4.190  10.880
 1693BOLB   PO240622  12.240   4.610  11.060
 1693BOLB   GL340623  12.280   4.830  11.410
 1693BOLB   GL440624  12.040   5.040  11.440
 1693BOLB   C1C40625  12.460   4.670  11.750
 1693BOLB   C2C40626  12.770   4.570  12.100
 1693BOLB   C3C40627  13.060   4.720  12.350
 1693BOLB   C4C40628  13.070   5.080  12.160
 1693BOLB   C1D40629  12.440   5.310  11.410
 1693BOLB   C2D40630  12.810   5.540  11.580
 1693BOLB   C3D40631  13.150   5.790  11.370
 1693BOLB   C4D40632  13.610   5.790  11.330
 1694BOLB   NC140633  23.710   6.710  10.810
 1694BOLB   PO140634  23.670   6.810  11.240
 1694BOLB   GL140635  23.780   6.300  11.030
 1694BOLB   GL240636  23.640   6.000  11.260
 1694BOLB   C1A40637  24.030   5.900  10.900
 1694BOLB   C2A40638  24.130   5.560  10.630
 1694BOLB   C3A40639  24.360   5.210  10.490
 1694BOLB   C4A40640  24.560   4.890  10.210
 1694BOLB   C1B40641  23.680   5.520  11.000
 1694BOLB   C2B40642  23.690   5.110  11.030
 1694BOLB   C3B40643  23.810   4.740  11.240
 1694BOLB   C4B40644  24.230   4.630  11.590
 1694BOLB   NC240645  24.710   3.800   7.820
 1694BOLB   PO240646  24.960   3.980   8.270
 1694BOLB   GL340647  24.850   4.220   8.660
 1694BOLB   GL440648  24.650   4.480   8.560
 1694BOLB   C1C40649  25.100   4.480   8.810
 1694BOLB   C2C40650  25.090   4.790   9.010
 1694BOLB   C3C40651  25.080   4.860   9.490
 1694BOLB   C4C40652  24.980   4.960   9.930
 1694BOLB   C1D40653  24.670   4.910   8.570
 1694BOLB   C2D40654  24.790   5.340   8.650
 1694BOLB   C3D40655  24.510   5.640   8.560
 1694BOLB   C4D40656  24.590   5.930   8.830
 1695BOLB   NC140657  24.760   6.830  12.360
 1695BOLB   PO140658  24.680   6.730  12.850
 1695BOLB   GL140659  24.960   6.400  12.710
 1695BOLB   GL240660  25.030   6.470  12.440
 1695BOLB   C1A40661  25.090   6.040  12.550
 1695BOLB   C2A40662  25.060   5.610  12.480
 1695BOLB   C3A40663  25.370   5.290  12.360
 1695BOLB   C4A40664  25.680   5.080  12.300
 1695BOLB   C1B40665  25.490   6.350  12.490
 1695BOLB   C2B40666  25.900   6.200  12.550
 1695BOLB   C3B40667  26.030   5.980  12.160
 1695BOLB   C4B40668  26.430   5.840  12.040
 1695BOLB   NC240669  26.280   3.110  11.130
 1695BOLB   PO240670  26.030   2.970  11.470
 1695BOLB   GL340671  25.960   3.160  11.740
 1695BOLB   GL440672  25.920   3.040  12.080
 1695BOLB   C1C40673  25.800   3.620  11.820
 1695BOLB   C2C40674  25.690   4.120  11.760
 1695BOLB   C3C40675  25.610   4.560  11.740
 1695BOLB   C4C40676  25.860   4.910  11.980
 1695BOLB   C1D40677  25.540   3.320  12.090
 1695BOLB   C2D40678  25.160   3.410  12.360
 1695BOLB   C3D40679  24.860   3.770  12.350
 1695BOLB   C4D40680  24.730   4.140  12.380
 1696BOLB   NC140681  22.550   6.750  18.020
 1696BOLB   PO140682  22.290   6.280  17.860
 1696BOLB   GL140683  22.250   5.910  17.890
 1696BOLB   GL240684  21.920   5.910  17.880
 1696BOLB   C1A40685  22.290   5.750  18.260
 1696BOLB   C2A40686  21.940   5.630  18.650
 1696BOLB   C3A40687  21.920   5.330  18.920
 1696BOLB   C4A40688  21.890   5.250  19.350
 1696BOLB   C1B40689  21.840   6.000  18.290
 1696BOLB   C2B40690  22.190   6.180  18.600
 1696BOLB   C3B40691  22.270   5.950  18.960
 1696BOLB   C4B40692  22.180   5.670  19.320
 1696BOLB   NC240693  22.620   4.200  21.550
 1696BOLB   PO240694  22.730   4.110  21.120
 1696BOLB   GL340695  22.620   4.190  20.750
 1696BOLB   GL440696  22.210   4.270  20.720
 1696BOLB   C1C40697  22.650   4.270  20.280
 1696BOLB   C2C40698  22.430   4.470  20.100
 1696BOLB   C3C40699  22.420   4.760  19.920
 1696BOLB   C4C40700  22.180   4.970  19.690
 1696BOLB   C1D40701  21.890   4.480  20.400
 1696BOLB   C2D40702  21.930   4.830  20.150
 1696BOLB   C3D40703  22.150   5.220  20.090
 1696BOLB   C4D40704  22.230   5.720  20.160
 1697BOLB   NC140705  26.090  14.820  18.660
 1697BOLB   PO140706  26.260  14.450  18.790
 1697BOLB   GL140707  26.510  14.620  19.100
 1697BOLB   GL240708  26.250  14.770  19.250
 1697BOLB   C1A40709  26.960  14.580  19.220
 1697BOLB   C2A40710  27.120  14.550  19.550
 1697BOLB   C3A40711  27.330  14.160  19.760
 1697BOLB   C4A40712  27.460  14.000  20.260
 1697BOLB   C1B40713  26.680  14.820  19.550
 1697BOLB   C2B40714  26.870  14.830  19.950
 1697BOLB   C3B40715  27.240  14.920  20.020
 1697BOLB   C4B40716  27.580  15.220  20.110
 1697BOLB   NC240717  29.220  14.160  21.670
 1697BOLB   PO240718  29.610  14.140  21.430
 1697BOLB   GL340719  29.160  14.020  21.210
 1697BOLB   GL440720  28.870  14.300  21.330
 1697BOLB   C1C40721  28.800  13.770  21.160
 1697BOLB   C2C40722  28.340  13.730  20.980
 1697BOLB   C3C40723  28.080  13.960  20.830
 1697BOLB   C4C40724  27.630  14.020  20.660
 1697BOLB   C1D40725  28.480  14.210  21.110
 1697BOLB   C2D40726  28.400  14.210  20.560
 1697BOLB   C3D40727  28.420  14.060  20.120
 1697BOLB   C4D40728  28.310  13.830  19.780
 1698BOLB   NC140729  27.540  18.040  13.920
 1698BOLB   PO140730  27.330  18.360  13.670
 1698BOLB   GL140731  27.610  18.610  13.570
 1698BOLB   GL240732  27.890  18.450  13.750
 1698BOLB   C1A40733  28.080  18.820  13.490
 1698BOLB   C2A40734  28.370  19.160  13.300
 1698BOLB   C3A40735  28.640  19.450  13.450
 1698BOLB   C4A40736  28.880  19.780  13.360
 1698BOLB   C1B40737  28.410  18.300  13.600
 1698BOLB   C2B40738  28.920  18.510  13.670
 1698BOLB   C3B40739  29.320  18.620  13.560
 1698BOLB   C4B40740  29.800  18.570  13.590
 1698BOLB   NC240741  30.050  21.310  14.330
 1698BOLB   PO240742  29.940  21.640  14.600
 1698BOLB   GL340743  29.640  21.540  14.280
 1698BOLB   GL440744  29.400  21.680  14.030
 1698BOLB   C1C40745  29.420  21.180  14.140
 1698BOLB   C2C40746  29.080  20.960  13.940
 1698BOLB   C3C40747  28.850  20.670  13.680
 1698BOLB   C4C40748  28.880  20.270  13.400
 1698BOLB   C1D40749  29.110  21.570  14.230
 1698BOLB   C2D40750  28.680  21.320  14.150
 1698BOLB   C3D40751  28.400  20.940  14.160
 1698BOLB   C4D40752  28.240  20.490  14.080
 1699BOLB   NC140753  21.010  25.460   6.730
 1699BOLB   PO140754  20.530  25.470   6.760
 1699BOLB   GL140755  20.360  25.040   6.840
 1699BOLB   GL240756  20.470  24.700   6.740
 1699BOLB   C1A40757  20.030  24.740   6.960
 1699BOLB   C2A40758  19.990  24.520   7.340
 1699BOLB   C3A40759  20.110  24.110   7.520
 1699BOLB   C4A40760  20.270  23.690   7.440
 1699BOLB   C1B40761  20.470  24.670   7.160
 1699BOLB   C2B40762  20.610  24.250   7.490
 1699BOLB   C3B40763  20.980  23.850   7.690
 1699BOLB   C4B40764  21.380  23.580   7.710
 1699BOLB   NC240765  21.680  24.980   6.200
 1699BOLB   PO240766  21.200  25.240   6.280
 1699BOLB   GL340767  21.130  24.840   6.210
 1699BOLB   GL440768  20.830  24.720   6.200
 1699BOLB   C1C40769  21.130  24.500   6.610
 1699BOLB   C2C40770  21.160  24.180   6.830
 1699BOLB   C3C40771  21.010  23.960   7.240
 1699BOLB   C4C40772  20.650  23.670   7.360
 1699BOLB   C1D40773  20.740  24.400   6.310
 1699BOLB   C2D40774  20.470  24.070   6.410
 1699BOLB   C3D40775  20.100  23.900   6.470
 1699BOLB   C4D40776  19.640  23.710   6.460
 1700BOLB   NC140777  22.050   9.350   9.070
 1700BOLB   PO140778  21.750   9.540   8.770
 1700BOLB   GL140779  22.000   9.460   8.400
 1700BOLB   GL240780  22.150   9.180   8.450
 1700BOLB   C1A40781  21.950   9.300   7.970
 1700BOLB   C2A40782  22.220   9.100   7.590
 1700BOLB   C3A40783  22.420   8.790   7.300
 1700BOLB   C4A40784  22.750   8.610   7.020
 1700BOLB   C1B40785  22.300   8.900   8.100
 1700BOLB   C2B40786  22.460   8.610   7.830
 1700BOLB   C3B40787  22.640   8.390   7.510
 1700BOLB   C4B40788  22.710   8.170   7.270
 1700BOLB   NC240789  24.200   8.200   4.990
 1700BOLB   PO240790  24.040   7.840   5.020
 1700BOLB   GL340791  23.880   8.060   5.410
 1700BOLB   GL440792  24.110   8.160   5.620
 1700BOLB   C1C40793  23.580   8.210   5.770
 1700BOLB   C2C40794  23.620   8.120   6.140
 1700BOLB   C3C40795  23.310   8.370   6.510
 1700BOLB   C4C40796  22.890   8.430   6.610
 1700BOLB   C1D40797  24.060   8.360   5.940
 1700BOLB   C2D40798  23.880   8.440   6.390
 1700BOLB   C3D40799  23.680   8.650   6.750
 1700BOLB   C4D40800  23.610   8.850   7.100
 1701BOLB   NC140801  28.830  23.310  15.580
 1701BOLB   PO140802  28.740  22.950  15.350
 1701BOLB   GL140803  28.510  22.530  15.280
 1701BOLB   GL240804  28.510  22.220  15.350
 1701BOLB   C1A40805  28.050  22.670  15.250
 1701BOLB   C2A40806  27.640  22.310  15.470
 1701BOLB   C3A40807  27.390  22.030  15.550
 1701BOLB   C4A40808  27.270  21.640  15.810
 1701BOLB   C1B40809  28.210  21.960  15.430
 1701BOLB   C2B40810  27.850  21.740  15.410
 1701BOLB   C3B40811  27.470  21.510  15.300
 1701BOLB   C4B40812  27.260  21.090  15.260
 1701BOLB   NC240813  28.920  21.720  16.660
 1701BOLB   PO240814  28.840  21.410  16.940
 1701BOLB   GL340815  28.720  20.950  16.810
 1701BOLB   GL440816  28.630  20.880  17.130
 1701BOLB   C1C40817  28.340  20.740  16.440
 1701BOLB   C2C40818  28.050  20.660  16.090
 1701BOLB   C3C40819  27.810  20.890  15.790
 1701BOLB   C4C40820  27.480  21.210  15.730
 1701BOLB   C1D40821  28.250  20.660  16.950
 1701BOLB   C2D40822  27.940  20.490  17.030
 1701BOLB   C3D40823  27.680  20.160  17.040
 1701BOLB   C4D40824  27.370  19.880  16.980
 1702BOLB   NC140825  31.170   7.860  10.690
 1702BOLB   PO140826  30.770   7.810  11.000
 1702BOLB   GL140827  30.500   8.200  11.150
 1702BOLB   GL240828  30.240   8.060  11.220
 1702BOLB   C1A40829  30.200   8.570  11.240
 1702BOLB   C2A40830  29.890   8.820  11.260
 1702BOLB   C3A40831  29.680   9.060  11.640
 1702BOLB   C4A40832  29.830   9.520  11.860
 1702BOLB   C1B40833  30.040   7.980  11.600
 1702BOLB   C2B40834  29.750   7.620  11.700
 1702BOLB   C3B40835  29.630   7.350  11.960
 1702BOLB   C4B40836  29.860   7.090  12.220
 1702BOLB   NC240837  32.150   9.610  11.430
 1702BOLB   PO240838  31.860   9.350  11.200
 1702BOLB   GL340839  31.630   9.550  11.410
 1702BOLB   GL440840  31.670   9.870  11.260
 1702BOLB   C1C40841  31.280   9.460  11.720
 1702BOLB   C2C40842  30.890   9.700  11.820
 1702BOLB   C3C40843  30.520   9.960  11.960
 1702BOLB   C4C40844  30.100   9.710  12.180
 1702BOLB   C1D40845  31.140   9.820  11.380
 1702BOLB   C2D40846  30.830  10.150  11.580
 1702BOLB   C3D40847  30.500  10.440  11.790
 1702BOLB   C4D40848  30.410  10.810  11.990
 1703BOLB   NC140849  31.450  20.420  14.130
 1703BOLB   PO140850  31.060  20.340  13.840
 1703BOLB   GL140851  30.730  20.160  13.650
 1703BOLB   GL240852  30.840  19.810  13.810
 1703BOLB   C1A40853  30.390  20.140  13.930
 1703BOLB   C2A40854  30.120  19.930  14.070
 1703BOLB   C3A40855  30.010  19.590  14.090
 1703BOLB   C4A40856  29.910  19.310  14.390
 1703BOLB   C1B40857  30.510  19.660  13.760
 1703BOLB   C2B40858  30.310  19.360  13.430
 1703BOLB   C3B40859  29.890  19.180  13.550
 1703BOLB   C4B40860  29.450  19.070  13.610
 1703BOLB   NC240861  31.790  18.390  16.470
 1703BOLB   PO240862  31.640  18.620  16.120
 1703BOLB   GL340863  31.170  18.440  15.960
 1703BOLB   GL440864  30.960  18.300  16.210
 1703BOLB   C1C40865  30.890  18.720  15.830
 1703BOLB   C2C40866  30.620  18.790  15.440
 1703BOLB   C3C40867  30.400  18.910  15.100
 1703BOLB   C4C40868  30.120  19.050  14.750
 1703BOLB   C1D40869  30.820  17.940  15.970
 1703BOLB   C2D40870  30.710  17.550  15.590
 1703BOLB   C3D40871  30.470  17.280  15.480
 1703BOLB   C4D40872  30.120  17.110  15.150
 1704BOLB   NC140873  17.680  12.870   7.980
 1704BOLB   PO140874  17.310  12.820   7.650
 1704BOLB   GL140875  17.280  12.780   7.200
 1704BOLB   GL240876  17.090  13.000   7.030
 1704BOLB   C1A40877  17.320  12.450   6.790
 1704BOLB   C2A40878  17.020  12.160   6.630
 1704BOLB   C3A40879  16.980  12.060   6.310
 1704BOLB   C4A40880  17.040  11.730   5.910
 1704BOLB   C1B40881  17.310  12.930   6.580
 1704BOLB   C2B40882  17.430  12.600   6.310
 1704BOLB   C3B40883  17.440  12.230   6.260
 1704BOLB   C4B40884  17.460  12.000   5.950
 1704BOLB   NC240885  17.110  11.430   3.430
 1704BOLB   PO240886  17.360  11.800   3.640
 1704BOLB   GL340887  17.660  11.890   3.990
 1704BOLB   GL440888  17.900  11.720   3.830
 1704BOLB   C1C40889  17.560  11.820   4.360
 1704BOLB   C2C40890  17.710  11.790   4.820
 1704BOLB   C3C40891  17.630  11.730   5.180
 1704BOLB   C4C40892  17.300  11.770   5.480
 1704BOLB   C1D40893  17.740  11.400   4.030
 1704BOLB   C2D40894  17.840  11.280   4.380
 1704BOLB   C3D40895  17.720  11.290   4.840
 1704BOLB   C4D40896  17.920  11.280   5.160
 1705BOLB   NC140897  22.380   9.580   8.740
 1705BOLB   PO140898  22.500   9.260   8.790
 1705BOLB   GL140899  22.600   9.060   8.480
 1705BOLB   GL240900  22.600   8.740   8.550
 1705BOLB   C1A40901  22.860   8.810   8.180
 1705BOLB   C2A40902  22.930   8.430   7.940
 1705BOLB   C3A40903  23.070   8.170   7.690
 1705BOLB   C4A40904  23.360   8.010   7.420
 1705BOLB   C1B40905  22.420   8.420   8.330
 1705BOLB   C2B40906  22.470   8.130   7.970
 1705BOLB   C3B40907  22.700   7.840   7.730
 1705BOLB   C4B40908  22.950   7.670   7.440
 1705BOLB   NC240909  24.340   7.690   5.390
 1705BOLB   PO240910  24.610   7.230   5.400
 1705BOLB   GL340911  24.440   7.360   5.820
 1705BOLB   GL440912  24.100   7.430   5.810
 1705BOLB   C1C40913  24.310   7.440   6.260
 1705BOLB   C2C40914  24.240   7.470   6.690
 1705BOLB   C3C40915  23.850   7.480   6.950
 1705BOLB   C4C40916  23.650   7.740   7.320
 1705BOLB   C1D40917  24.010   7.760   5.980
 1705BOLB   C2D40918  23.960   7.930   6.450
 1705BOLB   C3D40919  23.700   8.010   6.920
 1705BOLB   C4D40920  23.630   8.330   7.160
 1706BOLB   NC140921  21.150  12.100   7.950
 1706BOLB   PO140922  21.500  11.840   7.900
 1706BOLB   GL140923  21.430  11.740   7.580
 1706BOLB   GL240924  21.410  11.420   7.600
 1706BOLB   C1A40925  21.400  11.750   7.170
 1706BOLB   C2A40926  21.590  11.720   6.720
 1706BOLB   C3A40927  21.930  11.720   6.420
 1706BOLB   C4A40928  22.020  11.600   6.010
 1706BOLB   C1B40929  21.240  11.290   7.310
 1706BOLB   C2B40930  21.150  11.370   6.870
 1706BOLB   C3B40931  21.300  11.290   6.470
 1706BOLB   C4B40932  21.110  11.440   6.110
 1706BOLB   NC240933  21.310  10.740   3.700
 1706BOLB   PO240934  21.750  10.770   3.460
 1706BOLB   GL340935  21.870  11.010   3.830
 1706BOLB   GL440936  21.670  10.820   4.200
 1706BOLB   C1C40937  21.910  11.290   4.190
 1706BOLB   C2C40938  21.990  11.230   4.690
 1706BOLB   C3C40939  21.910  11.260   5.140
 1706BOLB   C4C40940  21.960  11.450   5.620
 1706BOLB   C1D40941  21.500  11.160   4.490
 1706BOLB   C2D40942  21.490  11.290   4.860
 1706BOLB   C3D40943  21.440  11.540   5.200
 1706BOLB   C4D40944  21.170  11.790   5.570
 1707BOLB   NC140945  25.990   9.280  10.890
 1707BOLB   PO140946  26.210   9.090  10.740
 1707BOLB   GL140947  26.610   8.950  10.810
 1707BOLB   GL240948  26.680   9.180  10.570
 1707BOLB   C1A40949  26.920   8.760  10.670
 1707BOLB   C2A40950  27.280   8.430  10.760
 1707BOLB   C3A40951  27.570   8.050  10.520
 1707BOLB   C4A40952  27.620   7.740  10.190
 1707BOLB   C1B40953  26.910   9.120  10.180
 1707BOLB   C2B40954  26.960   9.060   9.670
 1707BOLB   C3B40955  27.080   9.110   9.190
 1707BOLB   C4B40956  27.330   9.080   8.740
 1707BOLB   NC240957  29.490   6.920   9.170
 1707BOLB   PO240958  29.190   6.740   9.080
 1707BOLB   GL340959  28.990   7.050   9.370
 1707BOLB   GL440960  28.870   6.910   9.560
 1707BOLB   C1C40961  28.750   7.430   9.410
 1707BOLB   C2C40962  28.400   7.600   9.250
 1707BOLB   C3C40963  28.020   7.550   9.500
 1707BOLB   C4C40964  27.780   7.740   9.780
 1707BOLB   C1D40965  28.490   7.140   9.700
 1707BOLB   C2D40966  28.180   7.180   9.980
 1707BOLB   C3D40967  27.670   7.260  10.070
 1707BOLB   C4D40968  27.220   7.190  10.230
 1708BOLB   NC140969  30.230   9.190   7.990
 1708BOLB   PO140970  29.890   9.310   7.880
 1708BOLB   GL140971  29.490   9.470   8.300
 1708BOLB   GL240972  29.520   9.320   8.620
 1708BOLB   C1A40973  29.190   9.680   8.470
 1708BOLB   C2A40974  28.950   9.730   8.770
 1708BOLB   C3A40975  28.660   9.820   9.100
 1708BOLB   C4A40976  28.620   9.930   9.590
 1708BOLB   C1B40977  29.410   9.620   8.950
 1708BOLB   C2B40978  29.180   9.760   9.270
 1708BOLB   C3B40979  28.950   9.560   9.700
 1708BOLB   C4B40980  28.650   9.710  10.020
 1708BOLB   NC240981  26.960  10.040  11.320
 1708BOLB   PO240982  26.810  10.290  10.950
 1708BOLB   GL340983  27.270  10.360  10.900
 1708BOLB   GL440984  27.560  10.580  11.060
 1708BOLB   C1C40985  27.440  10.350  10.540
 1708BOLB   C2C40986  27.640  10.380  10.180
 1708BOLB   C3C40987  27.950  10.330  10.000
 1708BOLB   C4C40988  28.270  10.030   9.770
 1708BOLB   C1D40989  27.900  10.470  10.800
 1708BOLB   C2D40990  28.270  10.410  10.580
 1708BOLB   C3D40991  28.680  10.210  10.530
 1708BOLB   C4D40992  29.100  10.090  10.530
 1709BOLB   NC140993  18.390  22.230   4.290
 1709BOLB   PO140994  18.670  22.390   4.660
 1709BOLB   GL140995  18.560  22.040   4.880
 1709BOLB   GL240996  18.530  21.770   4.610
 1709BOLB   C1A40997  18.450  21.880   5.270
 1709BOLB   C2A40998  18.750  21.530   5.440
 1709BOLB   C3A40999  19.040  21.200   5.530
 1709BOLB   C4A41000  19.120  20.860   5.270
 1709BOLB   C1B41001  18.370  21.570   4.940
 1709BOLB   C2B41002  18.280  21.250   5.290
 1709BOLB   C3B41003  18.420  21.290   5.660
 1709BOLB   C4B41004  18.640  21.570   5.950
 1709BOLB   NC241005  19.120  20.810   3.420
 1709BOLB   PO241006  18.870  20.450   3.440
 1709BOLB   GL341007  18.830  20.310   3.920
 1709BOLB   GL441008  18.690  20.430   4.200
 1709BOLB   C1C41009  19.000  20.010   4.070
 1709BOLB   C2C41010  19.290  19.940   4.380
 1709BOLB   C3C41011  19.340  20.230   4.790
 1709BOLB   C4C41012  19.290  20.500   5.100
 1709BOLB   C1D41013  18.510  20.550   4.600
 1709BOLB   C2D41014  18.210  20.290   4.520
 1709BOLB   C3D41015  17.920  19.970   4.820
 1709BOLB   C4D41016  17.800  19.700   5.190
 1710BOLB   NC141017  27.660  17.970  12.510
 1710BOLB   PO141018  27.610  17.610  12.720
 1710BOLB   GL141019  28.040  17.590  12.780
 1710BOLB   GL241020  28.100  17.930  12.960
 1710BOLB   C1A41021  28.360  17.920  12.560
 1710BOLB   C2A41022  28.730  17.930  12.530
 1710BOLB   C3A41023  29.240  18.030  12.560
 1710BOLB   C4A41024  29.680  17.890  12.760
 1710BOLB   C1B41025  28.490  18.040  13.110
 1710BOLB   C2B41026  28.950  17.860  12.950
 1710BOLB   C3B41027  29.160  17.450  12.700
 1710BOLB   C4B41028  29.520  17.460  12.470
 1710BOLB   NC241029  32.270  18.910  13.280
 1710BOLB   PO241030  31.950  18.790  13.030
 1710BOLB   GL341031  31.500  18.690  12.820
 1710BOLB   GL441032  31.280  19.010  12.790
 1710BOLB   C1C41033  31.120  18.500  12.870
 1710BOLB   C2C41034  30.700  18.460  13.040
 1710BOLB   C3C41035  30.370  18.190  12.790
 1710BOLB   C4C41036  30.080  18.050  12.570
 1710BOLB   C1D41037  30.840  18.850  12.690
 1710BOLB   C2D41038  30.680  18.520  12.490
 1710BOLB   C3D41039  30.410  18.330  12.240
 1710BOLB   C4D41040  29.970  18.320  12.080
 1711BOLB   NC141041  20.970  11.650   3.720
 1711BOLB   PO141042  20.540  11.900   3.600
 1711BOLB   GL141043  20.870  12.150   3.910
 1711BOLB   GL241044  21.250  12.200   3.900
 1711BOLB   C1A41045  20.790  12.440   4.240
 1711BOLB   C2A41046  20.710  12.780   4.440
 1711BOLB   C3A41047  20.570  13.010   4.770
 1711BOLB   C4A41048  20.700  13.430   4.880
 1711BOLB   C1B41049  21.200  12.130   4.360
 1711BOLB   C2B41050  21.020  12.080   4.830
 1711BOLB   C3B41051  20.790  12.240   5.230
 1711BOLB   C4B41052  20.940  12.320   5.710
 1711BOLB   NC241053  22.010  12.680   2.870
 1711BOLB   PO241054  21.710  12.440   3.290
 1711BOLB   GL341055  21.680  12.480   3.760
 1711BOLB   GL441056  21.390  12.670   3.830
 1711BOLB   C1C41057  21.530  12.540   4.270
 1711BOLB   C2C41058  21.710  12.910   4.510
 1711BOLB   C3C41059  21.520  13.290   4.910
 1711BOLB   C4C41060  21.120  13.510   5.060
 1711BOLB   C1D41061  21.050  12.830   4.110
 1711BOLB   C2D41062  20.840  13.250   4.410
 1711BOLB   C3D41063  20.960  13.730   4.630
 1711BOLB   C4D41064  20.970  14.010   4.920
 1712BOLB   NC141065  25.090  14.340   8.600
 1712BOLB   PO141066  24.890  14.100   8.150
 1712BOLB   GL141067  24.990  14.060   7.820
 1712BOLB   GL241068  24.810  13.680   7.800
 1712BOLB   C1A41069  25.300  14.000   7.530
 1712BOLB   C2A41070  25.340  14.150   7.170
 1712BOLB   C3A41071  25.610  13.980   6.800
 1712BOLB   C4A41072  25.780  13.970   6.420
 1712BOLB   C1B41073  25.010  13.600   7.440
 1712BOLB   C2B41074  25.470  13.600   7.230
 1712BOLB   C3B41075  25.630  13.540   6.950
 1712BOLB   C4B41076  25.670  13.500   6.540
 1712BOLB   NC241077  26.080  12.270   4.410
 1712BOLB   PO241078  26.360  12.100   4.650
 1712BOLB   GL341079  26.560  12.480   4.930
 1712BOLB   GL441080  26.810  12.600   4.750
 1712BOLB   C1C41081  26.430  12.680   5.270
 1712BOLB   C2C41082  26.300  12.830   5.620
 1712BOLB   C3C41083  26.170  13.230   5.800
 1712BOLB   C4C41084  25.960  13.570   6.130
 1712BOLB   C1D41085  26.970  12.730   5.110
 1712BOLB   C2D41086  26.830  12.920   5.530
 1712BOLB   C3D41087  26.740  12.950   5.930
 1712BOLB   C4D41088  26.940  13.020   6.430
 1713BOLB   NC141089  16.810  18.260   2.980
 1713BOLB   PO141090  17.200  18.260   3.180
 1713BOLB   GL141091  17.260  17.910   3.540
 1713BOLB   GL241092  17.550  17.980   3.590
 1713BOLB   C1A41093  17.130  17.820   3.950
 1713BOLB   C2A41094  17.060  17.680   4.360
 1713BOLB   C3A41095  17.190  17.420   4.650
 1713BOLB   C4A41096  17.310  16.950   4.840
 1713BOLB   C1B41097  17.800  18.000   4.000
 1713BOLB   C2B41098  18.130  17.920   4.210
 1713BOLB   C3B41099  18.470  17.770   4.490
 1713BOLB   C4B41100  18.810  17.570   4.410
 1713BOLB   NC241101  19.350  17.350   3.050
 1713BOLB   PO241102  19.100  16.960   2.960
 1713BOLB   GL341103  18.900  17.110   3.340
 1713BOLB   GL441104  18.700  17.380   3.530
 1713BOLB   C1C41105  18.650  16.820   3.720
 1713BOLB   C2C41106  18.440  16.640   4.130
 1713BOLB   C3C41107  18.280  16.630   4.590
 1713BOLB   C4C41108  17.790  16.720   4.770
 1713BOLB   C1D41109  18.310  17.230   3.740
 1713BOLB   C2D41110  17.960  17.030   3.860
 1713BOLB   C3D41111  17.980  16.740   4.260
 1713BOLB   C4D41112  17.830  16.370   4.290
 1714BOLB   NC141113  26.470   8.860  12.000
 1714BOLB   PO141114  26.810   9.030  12.370
 1714BOLB   GL141115  26.940   8.540  12.260
 1714BOLB   GL241116  27.020   8.230  12.320
 1714BOLB   C1A41117  27.270   8.350  11.950
 1714BOLB   C2A41118  27.310   8.010  11.660
 1714BOLB   C3A41119  27.220   7.930  11.060
 1714BOLB   C4A41120  27.590   7.670  10.960
 1714BOLB   C1B41121  27.330   7.910  12.180
 1714BOLB   C2B41122  27.520   7.650  11.890
 1714BOLB   C3B41123  27.510   7.510  11.460
 1714BOLB   C4B41124  27.870   7.170  11.460
 1714BOLB   NC241125  29.110   5.790  11.090
 1714BOLB   PO241126  29.380   5.970  10.670
 1714BOLB   GL341127  29.050   6.230  10.720
 1714BOLB   GL441128  28.700   6.110  10.720
 1714BOLB   C1C41129  28.890   6.580  10.970
 1714BOLB   C2C41130  28.510   6.900  11.060
 1714BOLB   C3C41131  28.190   7.020  11.060
 1714BOLB   C4C41132  27.960   7.360  10.990
 1714BOLB   C1D41133  28.390   6.360  11.010
 1714BOLB   C2D41134  28.090   6.550  11.230
 1714BOLB   C3D41135  27.690   6.770  11.220
 1714BOLB   C4D41136  27.370   6.860  11.510
 1715BOLB   NC141137  15.490   6.580  11.900
 1715BOLB   PO141138  15.860   6.570  11.680
 1715BOLB   GL141139  15.660   6.140  11.610
 1715BOLB   GL241140  15.440   6.080  11.870
 1715BOLB   C1A41141  15.260   6.110  11.410
 1715BOLB   C2A41142  15.010   5.980  11.100
 1715BOLB   C3A41143  14.800   5.730  11.070
 1715BOLB   C4A41144  15.020   5.270  10.940
 1715BOLB   C1B41145  15.420   5.690  11.540
 1715BOLB   C2B41146  15.400   5.550  11.100
 1715BOLB   C3B41147  15.590   5.390  10.740
 1715BOLB   C4B41148  15.910   5.220  10.460
 1715BOLB   NC241149  14.380   3.140   9.760
 1715BOLB   PO241150  14.370   3.420   9.460
 1715BOLB   GL341151  14.670   3.680   9.710
 1715BOLB   GL441152  14.560   3.710   9.930
 1715BOLB   C1C41153  14.800   4.140   9.790
 1715BOLB   C2C41154  14.930   4.530  10.010
 1715BOLB   C3C41155  14.940   4.910  10.220
 1715BOLB   C4C41156  14.930   5.020  10.620
 1715BOLB   C1D41157  14.280   4.100   9.790
 1715BOLB   C2D41158  14.200   4.370  10.060
 1715BOLB   C3D41159  14.510   4.450  10.340
 1715BOLB   C4D41160  14.790   4.290  10.500
 1716BOLB   NC141161  21.970  10.320   8.230
 1716BOLB   PO141162  22.260   9.960   8.470
 1716BOLB   GL141163  22.230   9.740   8.070
 1716BOLB   GL241164  22.480   9.520   8.220
 1716BOLB   C1A41165  22.290   9.620   7.630
 1716BOLB   C2A41166  22.360   9.490   7.290
 1716BOLB   C3A41167  22.350   9.150   6.920
 1716BOLB   C4A41168  22.450   8.840   6.610
 1716BOLB   C1B41169  22.640   9.200   7.940
 1716BOLB   C2B41170  22.760   8.980   7.580
 1716BOLB   C3B41171  22.820   9.080   7.220
 1716BOLB   C4B41172  22.850   9.230   6.760
 1716BOLB   NC241173  22.870   8.800   4.430
 1716BOLB   PO241174  22.990   8.460   4.720
 1716BOLB   GL341175  22.550   8.440   4.930
 1716BOLB   GL441176  22.250   8.490   4.870
 1716BOLB   C1C41177  22.320   8.380   5.330
 1716BOLB   C2C41178  22.410   8.210   5.670
 1716BOLB   C3C41179  22.580   8.160   6.060
 1716BOLB   C4C41180  22.460   8.450   6.290
 1716BOLB   C1D41181  22.320   8.900   5.180
 1716BOLB   C2D41182  22.000   9.100   5.370
 1716BOLB   C3D41183  21.740   9.170   5.670
 1716BOLB   C4D41184  21.790   9.300   6.040
 1717BOLB   NC141185  25.880  17.070   4.420
 1717BOLB   PO141186  25.780  17.250   4.130
 1717BOLB   GL141187  25.580  17.420   4.640
 1717BOLB   GL241188  25.810  17.580   4.770
 1717BOLB   C1A41189  25.530  17.200   4.950
 1717BOLB   C2A41190  25.450  16.870   5.230
 1717BOLB   C3A41191  25.030  16.750   5.460
 1717BOLB   C4A41192  24.540  16.650   5.500
 1717BOLB   C1B41193  25.470  17.730   5.010
 1717BOLB   C2B41194  25.380  17.840   5.430
 1717BOLB   C3B41195  25.250  17.830   5.820
 1717BOLB   C4B41196  25.150  17.620   6.170
 1717BOLB   NC241197  23.100  15.980   8.010
 1717BOLB   PO241198  23.250  16.140   7.610
 1717BOLB   GL341199  23.500  16.220   7.290
 1717BOLB   GL441200  23.770  16.260   7.430
 1717BOLB   C1C41201  23.590  16.260   6.840
 1717BOLB   C2C41202  23.770  16.280   6.490
 1717BOLB   C3C41203  24.000  16.260   6.130
 1717BOLB   C4C41204  24.240  16.550   5.820
 1717BOLB   C1D41205  24.000  16.360   7.090
 1717BOLB   C2D41206  24.250  16.400   6.650
 1717BOLB   C3D41207  24.480  16.430   6.320
 1717BOLB   C4D41208  24.760  16.660   6.030
 1718BOLB   NC141209  12.650  19.340  10.320
 1718BOLB   PO141210  13.030  19.610  10.180
 1718BOLB   GL141211  12.640  19.780  10.010
 1718BOLB   GL241212  12.620  19.900   9.680
 1718BOLB   C1A41213  12.180  19.940   9.870
 1718BOLB   C2A41214  11.780  20.030   9.680
 1718BOLB   C3A41215  11.450  20.040   9.430
 1718BOLB   C4A41216  11.190  20.110   9.120
 1718BOLB   C1B41217  12.410  20.300   9.540
 1718BOLB   C2B41218  12.090  20.520   9.600
 1718BOLB   C3B41219  11.700  20.610   9.430
 1718BOLB   C4B41220  11.400  20.880   9.420
 1718BOLB   NC241221   9.270  21.230   8.040
 1718BOLB   PO241222   9.690  21.310   8.100
 1718BOLB   GL341223  10.060  21.230   8.380
 1718BOLB   GL441224  10.370  21.370   8.300
 1718BOLB   C1C41225  10.070  20.980   8.700
 1718BOLB   C2C41226  10.380  20.750   8.990
 1718BOLB   C3C41227  10.530  20.350   9.150
 1718BOLB   C4C41228  10.740  20.040   9.000
 1718BOLB   C1D41229  10.610  20.940   8.440
 1718BOLB   C2D41230  10.910  20.830   8.230
 1718BOLB   C3D41231  11.260  20.650   7.940
 1718BOLB   C4D41232  11.510  20.240   8.000
 1719BOLB   NC141233  22.370   4.980  13.960
 1719BOLB   PO141234  22.500   5.320  13.720
 1719BOLB   GL141235  22.720   5.000  13.440
 1719BOLB   GL241236  22.600   4.810  13.210
 1719BOLB   C1A41237  22.800   4.600  13.630
 1719BOLB   C2A41238  23.060   4.250  13.640
 1719BOLB   C3A41239  23.400   4.090  13.920
 1719BOLB   C4A41240  23.520   3.610  13.870
 1719BOLB   C1B41241  22.810   4.410  13.120
 1719BOLB   C2B41242  23.090   4.220  12.900
 1719BOLB   C3B41243  23.300   4.040  12.600
 1719BOLB   C4B41244  23.490   3.760  12.340
 1719BOLB   NC241245  25.990   1.950  13.550
 1719BOLB   PO241246  25.560   2.210  13.400
 1719BOLB   GL341247  25.210   2.390  13.210
 1719BOLB   GL441248  25.220   2.650  13.020
 1719BOLB   C1C41249  24.820   2.460  13.470
 1719BOLB   C2C41250  24.450   2.830  13.550
 1719BOLB   C3C41251  24.050   3.080  13.820
 1719BOLB   C4C41252  23.650   3.250  14.060
 1719BOLB   C1D41253  24.840   2.780  13.110
 1719BOLB   C2D41254  24.650   3.150  13.040
 1719BOLB   C3D41255  24.490   3.560  13.060
 1719BOLB   C4D41256  24.580   3.830  13.450
 1720BOLB   NC141257  28.540  14.510   5.790
 1720BOLB   PO141258  28.460  14.300   6.170
 1720BOLB   GL141259  28.200  14.520   6.510
 1720BOLB   GL241260  28.430  14.800   6.710
 1720BOLB   C1A41261  28.100  14.420   6.900
 1720BOLB   C2A41262  27.970  14.070   7.170
 1720BOLB   C3A41263  27.570  14.000   7.350
 1720BOLB   C4A41264  27.420  13.560   7.270
 1720BOLB   C1B41265  28.560  14.310   6.830
 1720BOLB   C2B41266  28.450  14.070   7.260
 1720BOLB   C3B41267  28.110  14.010   7.640
 1720BOLB   C4B41268  27.800  14.240   7.720
 1720BOLB   NC241269  29.070  12.240   6.390
 1720BOLB   PO241270  29.000  12.410   5.940
 1720BOLB   GL341271  28.820  12.680   6.280
 1720BOLB   GL441272  28.680  12.440   6.580
 1720BOLB   C1C41273  28.630  12.990   6.480
 1720BOLB   C2C41274  28.340  13.140   6.880
 1720BOLB   C3C41275  27.930  13.150   7.040
 1720BOLB   C4C41276  27.550  13.220   7.030
 1720BOLB   C1D41277  28.510  12.220   6.860
 1720BOLB   C2D41278  28.510  12.320   7.360
 1720BOLB   C3D41279  28.490  12.400   7.840
 1720BOLB   C4D41280  28.240  12.530   8.180
 1721BOLB   NC141281  31.240  13.020   9.030
 1721BOLB   PO141282  31.350  12.800   9.430
 1721BOLB   GL141283  30.950  12.850   9.390
 1721BOLB   GL241284  30.840  12.670   9.150
 1721BOLB   C1A41285  30.570  12.980   9.430
 1721BOLB   C2A41286  30.290  13.140   9.700
 1721BOLB   C3A41287  29.900  13.200   9.870
 1721BOLB   C4A41288  29.680  13.140  10.130
 1721BOLB   C1B41289  30.410  12.620   9.190
 1721BOLB   C2B41290  30.140  13.020   9.040
 1721BOLB   C3B41291  29.790  13.000   8.820
 1721BOLB   C4B41292  29.620  12.830   8.410
 1721BOLB   NC241293  27.870  11.920  11.500
 1721BOLB   PO241294  28.300  11.680  11.390
 1721BOLB   GL341295  28.560  11.960  11.220
 1721BOLB   GL441296  28.710  12.010  11.380
 1721BOLB   C1C41297  28.700  12.220  10.960
 1721BOLB   C2C41298  28.830  12.480  10.780
 1721BOLB   C3C41299  29.040  12.730  10.560
 1721BOLB   C4C41300  29.400  12.790  10.320
 1721BOLB   C1D41301  29.000  11.610  11.340
 1721BOLB   C2D41302  29.090  11.320  11.010
 1721BOLB   C3D41303  29.450  11.360  10.670
 1721BOLB   C4D41304  29.720  11.360  10.390
 1722BOLB   NC141305  22.420  18.500   8.430
 1722BOLB   PO141306  22.710  18.670   8.150
 1722BOLB   GL141307  22.800  18.590   7.750
 1722BOLB   GL241308  22.510  18.620   7.460
 1722BOLB   C1A41309  22.930  18.880   7.420
 1722BOLB   C2A41310  23.380  19.120   7.240
 1722BOLB   C3A41311  23.590  19.260   6.940
 1722BOLB   C4A41312  23.910  19.360   6.820
 1722BOLB   C1B41313  22.290  18.640   7.060
 1722BOLB   C2B41314  22.250  18.940   6.670
 1722BOLB   C3B41315  22.320  18.990   6.190
 1722BOLB   C4B41316  22.380  19.180   5.800
 1722BOLB   NC241317  23.570  20.860   4.360
 1722BOLB   PO241318  23.810  20.580   4.610
 1722BOLB   GL341319  23.860  20.330   4.870
 1722BOLB   GL441320  24.070  20.070   4.860
 1722BOLB   C1C41321  23.780  20.330   5.260
 1722BOLB   C2C41322  23.880  20.030   5.630
 1722BOLB   C3C41323  23.910  19.780   6.080
 1722BOLB   C4C41324  24.070  19.470   6.390
 1722BOLB   C1D41325  24.040  19.720   5.200
 1722BOLB   C2D41326  23.860  19.490   5.540
 1722BOLB   C3D41327  23.760  19.180   5.970
 1722BOLB   C4D41328  23.590  19.030   6.360
 1723BOLB   NC141329  25.290  15.920   4.050
 1723BOLB   PO141330  25.410  16.440   4.170
 1723BOLB   GL141331  25.170  16.390   4.540
 1723BOLB   GL241332  25.170  16.070   4.550
 1723BOLB   C1A41333  24.770  16.270   4.720
 1723BOLB   C2A41334  24.450  16.020   4.960
 1723BOLB   C3A41335  24.170  15.720   5.060
 1723BOLB   C4A41336  23.760  15.480   5.140
 1723BOLB   C1B41337  25.080  15.980   5.030
 1723BOLB   C2B41338  25.330  15.720   5.420
 1723BOLB   C3B41339  25.190  15.780   5.800
 1723BOLB   C4B41340  24.930  15.900   6.240
 1723BOLB   NC241341  23.920  13.690   3.530
 1723BOLB   PO241342  23.490  13.860   3.570
 1723BOLB   GL341343  23.740  14.010   3.880
 1723BOLB   GL441344  23.460  13.920   4.080
 1723BOLB   C1C41345  23.860  14.130   4.280
 1723BOLB   C2C41346  23.770  14.390   4.670
 1723BOLB   C3C41347  23.700  14.680   5.080
 1723BOLB   C4C41348  23.640  15.100   5.140
 1723BOLB   C1D41349  23.490  13.910   4.500
 1723BOLB   C2D41350  23.320  13.870   4.910
 1723BOLB   C3D41351  23.090  13.930   5.330
 1723BOLB   C4D41352  22.990  13.930   5.790
 1724BOLB   NC141353  20.890  21.940  11.880
 1724BOLB   PO141354  21.220  21.870  11.920
 1724BOLB   GL141355  21.430  21.550  12.080
 1724BOLB   GL241356  21.500  21.560  12.440
 1724BOLB   C1A41357  21.360  21.150  12.100
 1724BOLB   C2A41358  21.440  20.740  12.200
 1724BOLB   C3A41359  21.290  20.350  12.120
 1724BOLB   C4A41360  21.120  19.990  11.890
 1724BOLB   C1B41361  21.180  21.560  12.600
 1724BOLB   C2B41362  20.950  21.320  12.970
 1724BOLB   C3B41363  20.960  21.380  13.390
 1724BOLB   C4B41364  20.850  21.080  13.770
 1724BOLB   NC241365  21.650  20.910  10.360
 1724BOLB   PO241366  21.990  20.600  10.380
 1724BOLB   GL341367  21.720  20.350  10.440
 1724BOLB   GL441368  21.480  20.360  10.150
 1724BOLB   C1C41369  21.460  20.190  10.780
 1724BOLB   C2C41370  21.080  20.130  10.950
 1724BOLB   C3C41371  20.790  19.940  11.210
 1724BOLB   C4C41372  20.830  19.890  11.630
 1724BOLB   C1D41373  21.030  20.190   9.920
 1724BOLB   C2D41374  20.690  20.080  10.200
 1724BOLB   C3D41375  20.610  19.720  10.460
 1724BOLB   C4D41376  20.850  19.530  10.770
 1725BOLB   NC141377  28.000  12.050  10.990
 1725BOLB   PO141378  27.880  11.640  10.980
 1725BOLB   GL141379  28.080  11.440  10.670
 1725BOLB   GL241380  28.250  11.760  10.380
 1725BOLB   C1A41381  28.250  11.260  10.370
 1725BOLB   C2A41382  28.290  11.120   9.890
 1725BOLB   C3A41383  28.610  11.120   9.530
 1725BOLB   C4A41384  28.790  11.240   9.210
 1725BOLB   C1B41385  28.530  11.750  10.720
 1725BOLB   C2B41386  29.020  11.820  10.860
 1725BOLB   C3B41387  29.190  12.230  10.570
 1725BOLB   C4B41388  29.260  12.160  10.120
 1725BOLB   NC241389  30.530  10.570   7.990
 1725BOLB   PO241390  30.830  10.440   8.360
 1725BOLB   GL341391  30.440  10.480   8.640
 1725BOLB   GL441392  30.200  10.420   8.860
 1725BOLB   C1C41393  30.320  10.900   8.760
 1725BOLB   C2C41394  29.760  10.990   8.780
 1725BOLB   C3C41395  29.370  11.140   8.710
 1725BOLB   C4C41396  29.080  11.320   8.980
 1725BOLB   C1D41397  29.890  10.170   9.000
 1725BOLB   C2D41398  29.740   9.880   9.200
 1725BOLB   C3D41399  29.630   9.740   9.550
 1725BOLB   C4D41400  29.670   9.700   9.880
 1726BOLB   NC141401  10.500  13.240  12.310
 1726BOLB   PO141402  10.820  13.440  12.170
 1726BOLB   GL141403  10.360  13.640  11.950
 1726BOLB   GL241404  10.150  13.490  12.140
 1726BOLB   C1A41405  10.120  13.460  11.550
 1726BOLB   C2A41406   9.770  13.330  11.290
 1726BOLB   C3A41407   9.570  13.210  10.880
 1726BOLB   C4A41408   9.230  13.030  10.660
 1726BOLB   C1B41409   9.760  13.190  12.300
 1726BOLB   C2B41410   9.300  13.090  12.290
 1726BOLB   C3B41411   8.800  13.120  12.090
 1726BOLB   C4B41412   8.370  12.940  11.910
 1726BOLB   NC241413   6.870  12.630   9.440
 1726BOLB   PO241414   7.050  12.520   9.870
 1726BOLB   GL341415   7.430  12.710   9.920
 1726BOLB   GL441416   7.640  12.460   9.980
 1726BOLB   C1C41417   7.850  12.910  10.060
 1726BOLB   C2C41418   8.300  12.860  10.050
 1726BOLB   C3C41419   8.620  12.960  10.220
 1726BOLB   C4C41420   9.030  12.980  10.370
 1726BOLB   C1D41421   8.120  12.330   9.990
 1726BOLB   C2D41422   8.570  12.410  10.170
 1726BOLB   C3D41423   8.950  12.490  10.350
 1726BOLB   C4D41424   9.180  12.560  10.730
 1727BOLB   NC141425  25.130  10.320   8.870
 1727BOLB   PO141426  25.100   9.930   8.970
 1727BOLB   GL141427  25.160   9.800   8.570
 1727BOLB   GL241428  24.870   9.780   8.350
 1727BOLB   C1A41429  25.280   9.530   8.200
 1727BOLB   C2A41430  25.630   9.320   7.950
 1727BOLB   C3A41431  25.960   9.110   7.770
 1727BOLB   C4A41432  26.070   8.710   7.800
 1727BOLB   C1B41433  24.850   9.390   8.470
 1727BOLB   C2B41434  25.090   9.070   8.410
 1727BOLB   C3B41435  25.340   8.750   8.590
 1727BOLB   C4B41436  25.380   8.530   8.940
 1727BOLB   NC241437  26.000   6.500   6.870
 1727BOLB   PO241438  25.990   6.810   6.590
 1727BOLB   GL341439  25.780   7.190   6.630
 1727BOLB   GL441440  25.720   7.450   6.440
 1727BOLB   C1C41441  25.960   7.350   7.030
 1727BOLB   C2C41442  26.310   7.640   7.080
 1727BOLB   C3C41443  26.300   8.040   7.380
 1727BOLB   C4C41444  26.200   8.310   7.580
 1727BOLB   C1D41445  25.640   7.770   6.820
 1727BOLB   C2D41446  25.830   7.890   7.210
 1727BOLB   C3D41447  25.740   7.900   7.640
 1727BOLB   C4D41448  26.060   7.990   7.940
 1728BOLB   NC141449  13.010  14.040   9.000
 1728BOLB   PO141450  12.920  14.090   8.600
 1728BOLB   GL141451  12.680  14.080   8.190
 1728BOLB   GL241452  12.520  14.410   8.120
 1728BOLB   C1A41453  12.540  13.980   7.790
 1728BOLB   C2A41454  12.470  13.900   7.480
 1728BOLB   C3A41455  12.420  13.540   7.210
 1728BOLB   C4A41456  12.270  13.330   6.820
 1728BOLB   C1B41457  12.080  14.470   8.240
 1728BOLB   C2B41458  11.770  14.530   8.030
 1728BOLB   C3B41459  11.470  14.420   7.780
 1728BOLB   C4B41460  11.220  14.440   7.480
 1728BOLB   NC241461  10.070  12.510   6.200
 1728BOLB   PO241462  10.210  12.140   6.400
 1728BOLB   GL341463  10.530  12.380   6.240
 1728BOLB   GL441464  10.670  12.530   5.910
 1728BOLB   C1C41465  10.920  12.460   6.540
 1728BOLB   C2C41466  11.230  12.720   6.420
 1728BOLB   C3C41467  11.640  12.920   6.320
 1728BOLB   C4C41468  11.970  13.180   6.630
 1728BOLB   C1D41469  11.000  12.310   5.950
 1728BOLB   C2D41470  11.440  12.340   6.140
 1728BOLB   C3D41471  11.800  12.300   6.520
 1728BOLB   C4D41472  11.980  12.720   6.610
 1729BOLB   NC141473  24.080  10.830   3.990
 1729BOLB   PO141474  24.500  10.650   4.280
 1729BOLB   GL141475  24.370  10.910   4.500
 1729BOLB   GL241476  24.010  10.810   4.550
 1729BOLB   C1A41477  24.440  11.220   4.870
 1729BOLB   C2A41478  24.340  11.300   5.280
 1729BOLB   C3A41479  24.180  11.620   5.610
 1729BOLB   C4A41480  23.990  11.930   5.710
 1729BOLB   C1B41481  23.590  10.950   4.600
 1729BOLB   C2B41482  23.420  11.070   4.920
 1729BOLB   C3B41483  23.170  11.270   5.300
 1729BOLB   C4B41484  22.850  11.620   5.320
 1729BOLB   NC241485  24.210  12.740   3.370
 1729BOLB   PO241486  23.900  12.610   3.760
 1729BOLB   GL341487  23.800  12.590   4.150
 1729BOLB   GL441488  24.070  12.710   4.450
 1729BOLB   C1C41489  23.580  12.440   4.490
 1729BOLB   C2C41490  23.570  12.600   4.870
 1729BOLB   C3C41491  23.480  12.410   5.340
 1729BOLB   C4C41492  23.750  12.320   5.620
 1729BOLB   C1D41493  24.100  13.010   4.720
 1729BOLB   C2D41494  24.210  12.990   5.120
 1729BOLB   C3D41495  24.090  13.240   5.460
 1729BOLB   C4D41496  24.250  13.480   5.790
 1730BOLB   NC141497  20.400   6.970  10.050
 1730BOLB   PO141498  20.010   6.770  10.030
 1730BOLB   GL141499  19.910   6.180  10.040
 1730BOLB   GL241500  19.790   6.040  10.310
 1730BOLB   C1A41501  19.980   5.850   9.860
 1730BOLB   C2A41502  20.180   5.400   9.840
 1730BOLB   C3A41503  20.190   5.090   9.440
 1730BOLB   C4A41504  19.970   4.710   9.410
 1730BOLB   C1B41505  19.510   5.800  10.150
 1730BOLB   C2B41506  19.600   5.370  10.070
 1730BOLB   C3B41507  19.720   5.080   9.760
 1730BOLB   C4B41508  19.540   5.100   9.350
 1730BOLB   NC241509  20.590   2.470   8.530
 1730BOLB   PO241510  20.880   2.820   8.420
 1730BOLB   GL341511  20.720   3.220   8.590
 1730BOLB   GL441512  20.870   3.510   8.470
 1730BOLB   C1C41513  20.550   3.280   8.900
 1730BOLB   C2C41514  20.220   3.560   9.210
 1730BOLB   C3C41515  20.100   3.980   9.350
 1730BOLB   C4C41516  19.850   4.310   9.540
 1730BOLB   C1D41517  21.250   3.440   8.770
 1730BOLB   C2D41518  21.480   3.120   9.030
 1730BOLB   C3D41519  21.470   3.030   9.490
 1730BOLB   C4D41520  21.480   2.590   9.600
 1731BOLB   NC141521  28.000  17.990   5.980
 1731BOLB   PO141522  27.770  17.650   5.990
 1731BOLB   GL141523  27.960  17.430   6.380
 1731BOLB   GL241524  27.790  17.760   6.450
 1731BOLB   C1A41525  27.930  17.400   6.790
 1731BOLB   C2A41526  27.510  17.200   7.070
 1731BOLB   C3A41527  27.190  17.090   7.270
 1731BOLB   C4A41528  26.760  16.830   7.200
 1731BOLB   C1B41529  27.340  17.920   6.510
 1731BOLB   C2B41530  27.010  18.020   6.670
 1731BOLB   C3B41531  26.860  18.170   7.100
 1731BOLB   C4B41532  26.830  18.460   7.440
 1731BOLB   NC241533  27.370  17.170   5.460
 1731BOLB   PO241534  27.300  16.830   5.440
 1731BOLB   GL341535  27.450  16.480   5.790
 1731BOLB   GL441536  27.750  16.610   6.040
 1731BOLB   C1C41537  27.370  16.240   6.110
 1731BOLB   C2C41538  26.910  16.240   6.260
 1731BOLB   C3C41539  26.610  16.600   6.490
 1731BOLB   C4C41540  26.470  16.740   6.870
 1731BOLB   C1D41541  27.450  16.700   6.310
 1731BOLB   C2D41542  27.180  16.500   6.580
 1731BOLB   C3D41543  26.880  16.400   6.920
 1731BOLB   C4D41544  26.740  16.370   7.300
 1732BOLB   NC141545  24.400  15.290   8.010
 1732BOLB   PO141546  24.390  14.840   7.940
 1732BOLB   GL141547  24.430  14.670   7.470
 1732BOLB   GL241548  24.530  14.430   7.490
 1732BOLB   C1A41549  24.640  14.580   7.000
 1732BOLB   C2A41550  25.010  14.510   6.930
 1732BOLB   C3A41551  25.190  14.160   6.590
 1732BOLB   C4A41552  25.290  13.730   6.310
 1732BOLB   C1B41553  24.870  14.270   7.330
 1732BOLB   C2B41554  24.880  14.000   7.090
 1732BOLB   C3B41555  25.080  13.720   6.910
 1732BOLB   C4B41556  25.050  13.260   7.040
 1732BOLB   NC241557  25.670  13.300   4.310
 1732BOLB   PO241558  26.040  13.510   4.260
 1732BOLB   GL341559  25.750  13.500   4.750
 1732BOLB   GL441560  25.970  13.500   4.870
 1732BOLB   C1C41561  25.570  13.150   4.970
 1732BOLB   C2C41562  25.290  13.170   5.310
 1732BOLB   C3C41563  24.940  13.280   5.680
 1732BOLB   C4C41564  25.030  13.460   6.040
 1732BOLB   C1D41565  25.760  13.600   5.270
 1732BOLB   C2D41566  25.700  13.400   5.680
 1732BOLB   C3D41567  25.730  13.110   6.080
 1732BOLB   C4D41568  26.050  12.910   6.120
 1733BOLB   NC141569  27.200  15.620  12.220
 1733BOLB   PO141570  27.570  15.540  11.870
 1733BOLB   GL141571  27.950  15.570  11.570
 1733BOLB   GL241572  27.910  15.850  11.400
 1733BOLB   C1A41573  28.410  15.570  11.470
 1733BOLB   C2A41574  28.820  15.500  11.470
 1733BOLB   C3A41575  29.150  15.490  11.190
 1733BOLB   C4A41576  29.170  15.510  10.710
 1733BOLB   C1B41577  28.180  16.010  11.220
 1733BOLB   C2B41578  28.400  16.490  11.220
 1733BOLB   C3B41579  28.610  16.650  10.890
 1733BOLB   C4B41580  29.000  16.600  10.750
 1733BOLB   NC241581  31.020  16.430  10.040
 1733BOLB   PO241582  30.890  16.080   9.730
 1733BOLB   GL341583  30.490  16.030   9.630
 1733BOLB   GL441584  30.440  15.870   9.890
 1733BOLB   C1C41585  30.110  16.050   9.470
 1733BOLB   C2C41586  29.770  15.960   9.620
 1733BOLB   C3C41587  29.530  15.750   9.980
 1733BOLB   C4C41588  29.550  15.500  10.430
 1733BOLB   C1D41589  30.340  15.480   9.990
 1733BOLB   C2D41590  30.010  15.420  10.260
 1733BOLB   C3D41591  29.980  15.410  10.670
 1733BOLB   C4D41592  30.090  15.280  10.940
 1734BOLB   NC141593  25.330   8.880   9.830
 1734BOLB   PO141594  24.970   8.860   9.510
 1734BOLB   GL141595  25.230   8.970   9.090
 1734BOLB   GL241596  25.070   9.240   8.940
 1734BOLB   C1A41597  25.610   8.990   8.930
 1734BOLB   C2A41598  25.810   8.790   8.840
 1734BOLB   C3A41599  25.760   8.450   8.540
 1734BOLB   C4A41600  25.720   8.010   8.360
 1734BOLB   C1B41601  25.440   9.370   8.670
 1734BOLB   C2B41602  25.640   9.150   8.430
 1734BOLB   C3B41603  25.720   8.810   8.170
 1734BOLB   C4B41604  25.760   8.360   8.000
 1734BOLB   NC241605  27.380   6.870   7.370
 1734BOLB   PO241606  27.590   7.260   7.300
 1734BOLB   GL341607  27.140   7.320   7.470
 1734BOLB   GL441608  26.920   7.600   7.420
 1734BOLB   C1C41609  26.860   7.320   7.850
 1734BOLB   C2C41610  26.770   7.270   8.230
 1734BOLB   C3C41611  26.420   7.510   8.400
 1734BOLB   C4C41612  25.950   7.730   8.460
 1734BOLB   C1D41613  26.560   7.630   7.540
 1734BOLB   C2D41614  26.080   7.470   7.530
 1734BOLB   C3D41615  25.740   7.250   7.530
 1734BOLB   C4D41616  25.330   7.210   7.420
 1735BOLB   NC141617  18.930   3.540   8.000
 1735BOLB   PO141618  18.760   3.470   8.290
 1735BOLB   GL141619  19.200   3.480   8.500
 1735BOLB   GL241620  19.410   3.220   8.710
 1735BOLB   C1A41621  19.410   3.710   8.790
 1735BOLB   C2A41622  19.140   3.920   9.080
 1735BOLB   C3A41623  18.870   4.180   9.280
 1735BOLB   C4A41624  18.800   4.490   9.370
 1735BOLB   C1B41625  19.240   3.350   9.200
 1735BOLB   C2B41626  19.060   3.450   9.520
 1735BOLB   C3B41627  19.070   3.710   9.930
 1735BOLB   C4B41628  18.840   3.870  10.270
 1735BOLB   NC241629  17.820   3.940   8.040
 1735BOLB   PO241630  17.600   3.890   8.430
 1735BOLB   GL341631  17.570   4.260   8.530
 1735BOLB   GL441632  17.470   4.470   8.310
 1735BOLB   C1C41633  17.950   4.570   8.360
 1735BOLB   C2C41634  18.050   4.900   8.700
 1735BOLB   C3C41635  18.290   4.820   9.050
 1735BOLB   C4C41636  18.560   4.700   9.530
 1735BOLB   C1D41637  17.600   4.680   8.830
 1735BOLB   C2D41638  17.760   4.880   9.210
 1735BOLB   C3D41639  18.090   4.980   9.450
 1735BOLB   C4D41640  18.260   5.080   9.750
 1736BOLB   NC141641  25.770  15.770   9.100
 1736BOLB   PO141642  25.720  16.060   8.820
 1736BOLB   GL141643  26.020  15.940   8.480
 1736BOLB   GL241644  25.790  16.030   8.150
 1736BOLB   C1A41645  26.380  15.980   8.200
 1736BOLB   C2A41646  26.720  16.200   8.070
 1736BOLB   C3A41647  26.930  16.260   7.750
 1736BOLB   C4A41648  27.300  16.190   7.600
 1736BOLB   C1B41649  26.150  16.370   7.970
 1736BOLB   C2B41650  26.400  16.500   7.730
 1736BOLB   C3B41651  26.710  16.730   7.710
 1736BOLB   C4B41652  26.970  17.170   7.720
 1736BOLB   NC241653  28.780  17.490   6.180
 1736BOLB   PO241654  29.000  17.080   6.400
 1736BOLB   GL341655  28.820  17.080   6.810
 1736BOLB   GL441656  28.900  17.220   7.060
 1736BOLB   C1C41657  28.400  17.170   7.070
 1736BOLB   C2C41658  28.020  17.190   7.240
 1736BOLB   C3C41659  27.850  16.810   7.380
 1736BOLB   C4C41660  27.660  16.350   7.400
 1736BOLB   C1D41661  28.740  17.140   7.390
 1736BOLB   C2D41662  28.910  16.790   7.540
 1736BOLB   C3D41663  28.590  16.520   7.680
 1736BOLB   C4D41664  28.150  16.420   7.660
 1737BOLB   NC141665  16.340  11.950   7.870
 1737BOLB   PO141666  16.160  12.290   7.870
 1737BOLB   GL141667  15.900  11.980   7.550
 1737BOLB   GL241668  16.170  11.670   7.450
 1737BOLB   C1A41669  15.820  12.110   7.200
 1737BOLB   C2A41670  15.770  12.220   6.780
 1737BOLB   C3A41671  15.600  12.140   6.440
 1737BOLB   C4A41672  15.580  11.950   6.030
 1737BOLB   C1B41673  16.220  11.800   7.110
 1737BOLB   C2B41674  16.030  11.790   6.770
 1737BOLB   C3B41675  15.680  11.730   6.640
 1737BOLB   C4B41676  15.400  11.680   6.360
 1737BOLB   NC241677  14.410  10.650   4.280
 1737BOLB   PO241678  14.370  11.000   4.570
 1737BOLB   GL341679  14.300  11.130   4.960
 1737BOLB   GL441680  14.030  11.260   5.000
 1737BOLB   C1C41681  14.560  11.390   5.260
 1737BOLB   C2C41682  14.580  11.730   5.460
 1737BOLB   C3C41683  14.750  11.990   5.750
 1737BOLB   C4C41684  15.150  11.880   5.850
 1737BOLB   C1D41685  14.020  11.420   5.410
 1737BOLB   C2D41686  14.310  11.460   5.750
 1737BOLB   C3D41687  14.530  11.580   5.990
 1737BOLB   C4D41688  14.840  11.710   6.200
 1738BOLB   NC141689  19.580  15.650   7.060
 1738BOLB   PO141690  19.900  16.130   6.940
 1738BOLB   GL141691  20.100  16.160   6.590
 1738BOLB   GL241692  19.860  16.260   6.360
 1738BOLB   C1A41693  20.360  16.170   6.150
 1738BOLB   C2A41694  20.470  16.080   5.670
 1738BOLB   C3A41695  20.870  16.010   5.410
 1738BOLB   C4A41696  21.010  16.060   5.080
 1738BOLB   C1B41697  19.920  16.340   5.930
 1738BOLB   C2B41698  19.620  16.450   5.630
 1738BOLB   C3B41699  19.210  16.520   5.400
 1738BOLB   C4B41700  18.690  16.510   5.610
 1738BOLB   NC241701  21.090  16.720   2.960
 1738BOLB   PO241702  21.440  16.380   2.800
 1738BOLB   GL341703  21.520  16.230   3.190
 1738BOLB   GL441704  21.500  16.510   3.270
 1738BOLB   C1C41705  21.370  16.120   3.580
 1738BOLB   C2C41706  21.080  15.990   3.860
 1738BOLB   C3C41707  21.190  16.070   4.260
 1738BOLB   C4C41708  21.190  16.170   4.730
 1738BOLB   C1D41709  21.590  16.650   3.690
 1738BOLB   C2D41710  21.360  16.670   4.200
 1738BOLB   C3D41711  21.240  16.720   4.630
 1738BOLB   C4D41712  21.160  16.580   5.030
 1739BOLB   NC141713  24.180   9.140   4.550
 1739BOLB   PO141714  23.950   9.530   4.670
 1739BOLB   GL141715  24.040   9.740   5.020
 1739BOLB   GL241716  24.360   9.760   5.220
 1739BOLB   C1A41717  23.790   9.820   5.390
 1739BOLB   C2A41718  23.520   9.830   5.730
 1739BOLB   C3A41719  23.390   9.770   6.140
 1739BOLB   C4A41720  23.200   9.260   6.380
 1739BOLB   C1B41721  24.640   9.750   5.620
 1739BOLB   C2B41722  24.840   9.630   5.960
 1739BOLB   C3B41723  24.690   9.590   6.210
 1739BOLB   C4B41724  24.360   9.830   6.220
 1739BOLB   NC241725  23.670   8.130   4.940
 1739BOLB   PO241726  23.750   8.390   4.600
 1739BOLB   GL341727  23.660   8.660   4.930
 1739BOLB   GL441728  23.390   8.760   4.990
 1739BOLB   C1C41729  23.570   8.570   5.380
 1739BOLB   C2C41730  23.260   8.550   5.650
 1739BOLB   C3C41731  23.130   8.500   6.080
 1739BOLB   C4C41732  23.010   8.870   6.400
 1739BOLB   C1D41733  23.140   8.940   5.320
 1739BOLB   C2D41734  22.740   9.090   5.460
 1739BOLB   C3D41735  22.430   9.290   5.740
 1739BOLB   C4D41736  22.230   9.590   6.020
 1740BOLB   NC141737  26.830  10.560  10.550
 1740BOLB   PO141738  26.520  10.960  10.480
 1740BOLB   GL141739  26.850  10.970  10.110
 1740BOLB   GL241740  26.690  10.780   9.940
 1740BOLB   C1A41741  27.260  10.660  10.030
 1740BOLB   C2A41742  27.460  10.340   9.700
 1740BOLB   C3A41743  27.750   9.960   9.660
 1740BOLB   C4A41744  27.800   9.470   9.640
 1740BOLB   C1B41745  26.860  10.610   9.640
 1740BOLB   C2B41746  27.070  10.410   9.270
 1740BOLB   C3B41747  27.570  10.220   9.120
 1740BOLB   C4B41748  27.790  10.250   8.830
 1740BOLB   NC241749  29.340   7.400   8.260
 1740BOLB   PO241750  28.980   7.590   8.390
 1740BOLB   GL341751  28.890   8.040   8.680
 1740BOLB   GL441752  28.630   8.090   8.920
 1740BOLB   C1C41753  28.850   8.440   8.670
 1740BOLB   C2C41754  28.780   8.810   8.910
 1740BOLB   C3C41755  28.330   8.970   9.200
 1740BOLB   C4C41756  28.030   9.240   9.430
 1740BOLB   C1D41757  28.260   8.020   9.030
 1740BOLB   C2D41758  27.740   7.990   9.230
 1740BOLB   C3D41759  27.420   8.060   9.550
 1740BOLB   C4D41760  27.160   8.040   9.840
 1741BOLB   NC141761  27.550  11.370  10.650
 1741BOLB   PO141762  27.160  11.300  10.390
 1741BOLB   GL141763  27.460  11.340  10.170
 1741BOLB   GL241764  27.780  11.530  10.190
 1741BOLB   C1A41765  27.760  11.030   9.980
 1741BOLB   C2A41766  27.840  10.730   9.770
 1741BOLB   C3A41767  27.900  10.400   9.440
 1741BOLB   C4A41768  28.330  10.290   9.240
 1741BOLB   C1B41769  28.100  11.570   9.970
 1741BOLB   C2B41770  28.590  11.450  10.070
 1741BOLB   C3B41771  29.080  11.440  10.140
 1741BOLB   C4B41772  29.270  11.720  10.390
 1741BOLB   NC241773  30.100   9.810   7.780
 1741BOLB   PO241774  30.180  10.230   7.800
 1741BOLB   GL341775  29.910  10.080   8.190
 1741BOLB   GL441776  29.800  10.350   8.430
 1741BOLB   C1C41777  29.680   9.900   8.480
 1741BOLB   C2C41778  29.430  10.080   8.760
 1741BOLB   C3C41779  29.110  10.150   8.950
 1741BOLB   C4C41780  28.780  10.280   9.220
 1741BOLB   C1D41781  29.650  10.510   8.800
 1741BOLB   C2D41782  29.330  10.800   9.090
 1741BOLB   C3D41783  29.010  10.730   9.330
 1741BOLB   C4D41784  28.810  10.620   9.660
 1742BOLB   NC141785  22.240  13.460   7.460
 1742BOLB   PO141786  22.380  12.930   7.550
 1742BOLB   GL141787  22.570  13.130   7.230
 1742BOLB   GL241788  22.660  12.990   6.860
 1742BOLB   C1A41789  22.490  13.460   6.920
 1742BOLB   C2A41790  22.580  13.450   6.480
 1742BOLB   C3A41791  22.650  13.640   6.100
 1742BOLB   C4A41792  22.430  13.520   5.750
 1742BOLB   C1B41793  22.690  12.930   6.450
 1742BOLB   C2B41794  22.830  12.750   6.100
 1742BOLB   C3B41795  22.890  12.510   5.690
 1742BOLB   C4B41796  22.580  12.530   5.400
 1742BOLB   NC241797  22.100  13.590   2.920
 1742BOLB   PO241798  22.070  13.920   3.200
 1742BOLB   GL341799  21.900  14.130   3.620
 1742BOLB   GL441800  22.130  14.430   3.640
 1742BOLB   C1C41801  22.000  13.990   4.210
 1742BOLB   C2C41802  22.070  13.950   4.630
 1742BOLB   C3C41803  22.060  13.730   5.020
 1742BOLB   C4C41804  22.150  13.630   5.330
 1742BOLB   C1D41805  22.240  14.590   4.040
 1742BOLB   C2D41806  22.140  14.460   4.430
 1742BOLB   C3D41807  22.040  14.550   4.840
 1742BOLB   C4D41808  21.860  14.250   5.010
 1743BOLB   NC141809  24.540  11.560   8.290
 1743BOLB   PO141810  24.700  11.240   8.210
 1743BOLB   GL141811  24.990  10.940   8.120
 1743BOLB   GL241812  25.310  11.070   8.130
 1743BOLB   C1A41813  25.140  10.650   7.860
 1743BOLB   C2A41814  25.500  10.380   7.670
 1743BOLB   C3A41815  25.550  10.340   7.290
 1743BOLB   C4A41816  25.620   9.890   7.010
 1743BOLB   C1B41817  25.580  11.310   7.730
 1743BOLB   C2B41818  25.750  11.370   7.300
 1743BOLB   C3B41819  25.990  11.230   6.900
 1743BOLB   C4B41820  26.470  11.400   6.750
 1743BOLB   NC241821  26.310   8.630   5.350
 1743BOLB   PO241822  26.710   8.850   5.350
 1743BOLB   GL341823  26.510   9.120   5.550
 1743BOLB   GL441824  26.160   9.130   5.530
 1743BOLB   C1C41825  26.470   9.160   5.990
 1743BOLB   C2C41826  26.310   9.190   6.390
 1743BOLB   C3C41827  26.130   9.350   6.730
 1743BOLB   C4C41828  25.900   9.570   6.960
 1743BOLB   C1D41829  25.950   8.930   5.950
 1743BOLB   C2D41830  25.780   8.730   6.260
 1743BOLB   C3D41831  25.560   8.880   6.600
 1743BOLB   C4D41832  25.400   9.210   6.780
 1744BOLB   NC141833  12.490  15.110   9.650
 1744BOLB   PO141834  12.040  15.160   9.550
 1744BOLB   GL141835  11.800  15.190   9.120
 1744BOLB   GL241836  11.940  15.460   8.870
 1744BOLB   C1A41837  11.460  15.360   8.800
 1744BOLB   C2A41838  11.230  15.550   8.460
 1744BOLB   C3A41839  10.930  15.680   8.230
 1744BOLB   C4A41840  10.870  15.670   7.860
 1744BOLB   C1B41841  11.780  15.470   8.500
 1744BOLB   C2B41842  11.540  15.260   8.210
 1744BOLB   C3B41843  11.420  15.510   7.910
 1744BOLB   C4B41844  11.390  15.740   7.600
 1744BOLB   NC241845   9.080  14.170   6.030
 1744BOLB   PO241846   9.350  14.240   6.350
 1744BOLB   GL341847   9.670  14.300   6.690
 1744BOLB   GL441848   9.550  14.290   7.050
 1744BOLB   C1C41849   9.840  14.710   6.950
 1744BOLB   C2C41850  10.040  15.110   7.090
 1744BOLB   C3C41851  10.250  15.470   7.340
 1744BOLB   C4C41852  10.640  15.580   7.460
 1744BOLB   C1D41853   9.840  14.340   7.380
 1744BOLB   C2D41854   9.950  14.530   7.750
 1744BOLB   C3D41855   9.990  14.550   8.020
 1744BOLB   C4D41856  10.250  14.920   8.230
 1745BOLB   NC141857  29.280  22.880  12.320
 1745BOLB   PO141858  29.170  22.820  11.990
 1745BOLB   GL141859  28.890  22.440  12.070
 1745BOLB   GL241860  28.950  22.140  12.100
 1745BOLB   C1A41861  28.460  22.280  12.020
 1745BOLB   C2A41862  28.130  22.090  12.230
 1745BOLB   C3A41863  27.760  21.860  12.100
 1745BOLB   C4A41864  27.490  21.580  12.300
 1745BOLB   C1B41865  28.580  21.720  12.160
 1745BOLB   C2B41866  28.190  21.630  12.220
 1745BOLB   C3B41867  27.850  21.810  12.580
 1745BOLB   C4B41868  27.730  21.660  13.030
 1745BOLB   NC241869  28.290  23.230  13.090
 1745BOLB   PO241870  28.620  23.140  12.720
 1745BOLB   GL341871  28.480  22.790  12.850
 1745BOLB   GL441872  28.710  22.520  12.940
 1745BOLB   C1C41873  28.080  22.670  12.960
 1745BOLB   C2C41874  27.600  22.420  13.000
 1745BOLB   C3C41875  27.390  22.010  13.020
 1745BOLB   C4C41876  27.370  21.750  12.720
 1745BOLB   C1D41877  28.500  22.110  13.080
 1745BOLB   C2D41878  28.280  21.710  13.120
 1745BOLB   C3D41879  27.990  21.680  13.490
 1745BOLB   C4D41880  27.580  21.770  13.520
 1746BOLB   NC141881  22.590   6.080  11.220
 1746BOLB   PO141882  22.560   6.280  10.770
 1746BOLB   GL141883  22.630   5.860  10.760
 1746BOLB   GL241884  22.320   5.840  10.570
 1746BOLB   C1A41885  22.900   5.650  10.380
 1746BOLB   C2A41886  23.170   5.530  10.160
 1746BOLB   C3A41887  23.540   5.300  10.150
 1746BOLB   C4A41888  23.590   4.850  10.200
 1746BOLB   C1B41889  22.560   5.320  10.600
 1746BOLB   C2B41890  22.300   5.050  10.660
 1746BOLB   C3B41891  22.260   4.700  10.730
 1746BOLB   C4B41892  22.030   4.320  10.680
 1746BOLB   NC241893  23.740   3.110   9.120
 1746BOLB   PO241894  23.440   3.240   8.830
 1746BOLB   GL341895  23.120   3.480   8.870
 1746BOLB   GL441896  23.010   3.730   8.610
 1746BOLB   C1C41897  22.910   3.720   9.220
 1746BOLB   C2C41898  22.940   4.050   9.490
 1746BOLB   C3C41899  23.330   4.270   9.490
 1746BOLB   C4C41900  23.610   4.570   9.830
 1746BOLB   C1D41901  23.320   3.960   8.970
 1746BOLB   C2D41902  23.600   3.880   9.400
 1746BOLB   C3D41903  23.920   4.080   9.800
 1746BOLB   C4D41904  24.200   4.390  10.120
 1747BOLB   NC141905  17.910  18.690   7.750
 1747BOLB   PO141906  17.960  19.110   7.750
 1747BOLB   GL141907  17.820  19.290   7.340
 1747BOLB   GL241908  18.010  19.180   7.190
 1747BOLB   C1A41909  17.510  19.120   7.110
 1747BOLB   C2A41910  17.450  19.110   6.650
 1747BOLB   C3A41911  17.310  19.090   6.200
 1747BOLB   C4A41912  17.220  19.330   5.810
 1747BOLB   C1B41913  17.890  19.330   6.830
 1747BOLB   C2B41914  18.010  19.670   6.590
 1747BOLB   C3B41915  17.950  19.950   6.200
 1747BOLB   C4B41916  17.900  19.740   5.740
 1747BOLB   NC241917  18.140  19.730   3.340
 1747BOLB   PO241918  18.050  20.130   3.490
 1747BOLB   GL341919  18.220  19.860   3.940
 1747BOLB   GL441920  18.590  19.690   4.110
 1747BOLB   C1C41921  18.100  19.720   4.400
 1747BOLB   C2C41922  17.920  19.370   4.720
 1747BOLB   C3C41923  17.530  19.240   5.020
 1747BOLB   C4C41924  17.380  19.410   5.370
 1747BOLB   C1D41925  18.730  19.840   4.470
 1747BOLB   C2D41926  19.000  19.790   4.800
 1747BOLB   C3D41927  18.980  19.990   5.210
 1747BOLB   C4D41928  18.730  19.990   5.550
 1748BOLB   NC141929  23.850  12.460   8.000
 1748BOLB   PO141930  23.800  12.030   8.060
 1748BOLB   GL141931  23.930  12.140   7.580
 1748BOLB   GL241932  24.040  11.840   7.480
 1748BOLB   C1A41933  23.700  12.110   7.160
 1748BOLB   C2A41934  23.900  12.250   6.710
 1748BOLB   C3A41935  24.080  12.340   6.350
 1748BOLB   C4A41936  24.200  12.310   5.970
 1748BOLB   C1B41937  24.260  11.510   7.320
 1748BOLB   C2B41938  24.130  11.280   7.010
 1748BOLB   C3B41939  24.360  11.320   6.650
 1748BOLB   C4B41940  24.680  11.140   6.420
 1748BOLB   NC241941  24.610  11.570   3.750
 1748BOLB   PO241942  24.980  11.380   3.830
 1748BOLB   GL341943  24.970  11.520   4.240
 1748BOLB   GL441944  24.610  11.470   4.340
 1748BOLB   C1C41945  24.880  11.740   4.660
 1748BOLB   C2C41946  24.870  12.010   4.910
 1748BOLB   C3C41947  24.840  12.170   5.340
 1748BOLB   C4C41948  24.630  12.300   5.740
 1748BOLB   C1D41949  24.220  11.400   4.440
 1748BOLB   C2D41950  23.950  11.200   4.870
 1748BOLB   C3D41951  23.770  11.270   5.260
 1748BOLB   C4D41952  23.710  11.310   5.650
 1749BOLB   NC141953  24.890  18.140   8.450
 1749BOLB   PO141954  24.550  17.920   8.430
 1749BOLB   GL141955  24.570  18.120   8.030
 1749BOLB   GL241956  24.400  17.970   7.790
 1749BOLB   C1A41957  24.860  18.330   7.830
 1749BOLB   C2A41958  24.950  18.450   7.400
 1749BOLB   C3A41959  25.210  18.810   7.310
 1749BOLB   C4A41960  25.640  19.020   7.320
 1749BOLB   C1B41961  24.620  18.120   7.420
 1749BOLB   C2B41962  24.770  18.160   6.880
 1749BOLB   C3B41963  24.960  18.020   6.570
 1749BOLB   C4B41964  25.310  18.130   6.290
 1749BOLB   NC241965  26.280  20.200   5.220
 1749BOLB   PO241966  26.600  19.920   5.240
 1749BOLB   GL341967  26.550  20.080   5.680
 1749BOLB   GL441968  26.750  20.370   5.750
 1749BOLB   C1C41969  26.460  19.900   6.100
 1749BOLB   C2C41970  26.370  19.670   6.520
 1749BOLB   C3C41971  26.020  19.540   6.700
 1749BOLB   C4C41972  25.820  19.290   7.020
 1749BOLB   C1D41973  26.540  20.440   6.110
 1749BOLB   C2D41974  26.360  20.180   6.490
 1749BOLB   C3D41975  26.070  20.040   6.690
 1749BOLB   C4D41976  26.190  20.050   7.030
 1750BOLB   NC141977   6.390  12.240  11.190
 1750BOLB   PO141978   6.790  12.360  11.150
 1750BOLB   GL141979   7.160  12.320  11.040
 1750BOLB   GL241980   7.320  12.380  11.240
 1750BOLB   C1A41981   7.680  12.350  10.880
 1750BOLB   C2A41982   8.120  12.340  10.930
 1750BOLB   C3A41983   8.420  12.060  10.970
 1750BOLB   C4A41984   8.730  11.700  11.050
 1750BOLB   C1B41985   7.570  12.770  11.330
 1750BOLB   C2B41986   7.600  13.250  11.550
 1750BOLB   C3B41987   7.800  13.570  11.390
 1750BOLB   C4B41988   8.120  13.920  11.490
 1750BOLB   NC241989   7.330  11.240  10.330
 1750BOLB   PO241990   7.550  10.940  10.070
 1750BOLB   GL341991   7.840  11.200  10.330
 1750BOLB   GL441992   7.750  11.500  10.480
 1750BOLB   C1C41993   8.250  11.330  10.400
 1750BOLB   C2C41994   8.690  11.070  10.320
 1750BOLB   C3C41995   9.120  11.120  10.520
 1750BOLB   C4C41996   9.050  11.450  10.850
 1750BOLB   C1D41997   7.960  11.400  10.830
 1750BOLB   C2D41998   8.270  11.480  11.150
 1750BOLB   C3D41999   8.660  11.320  11.350
 1750BOLB   C4D42000   8.850  11.120  11.690
 1751BOLB   NC142001  24.140   2.950  10.110
 1751BOLB   PO142002  24.350   3.060   9.800
 1751BOLB   GL142003  24.260   3.510   9.890
 1751BOLB   GL242004  24.300   3.750   9.720
 1751BOLB   C1A42005  24.240   3.830  10.170
 1751BOLB   C2A42006  24.410   4.010  10.400
 1751BOLB   C3A42007  24.470   4.390  10.550
 1751BOLB   C4A42008  24.650   4.770  10.710
 1751BOLB   C1B42009  24.520   4.090   9.900
 1751BOLB   C2B42010  24.740   4.380  10.150
 1751BOLB   C3B42011  24.970   4.470  10.450
 1751BOLB   C4B42012  25.270   4.420  10.660
 1751BOLB   NC242013  26.480   4.020  11.150
 1751BOLB   PO242014  26.370   3.640  11.180
 1751BOLB   GL342015  26.060   3.930  11.400
 1751BOLB   GL442016  26.280   3.830  11.680
 1751BOLB   C1C42017  25.800   4.250  11.240
 1751BOLB   C2C42018  25.570   4.640  11.040
 1751BOLB   C3C42019  25.320   4.930  10.730
 1751BOLB   C4C42020  24.970   5.140  10.610
 1751BOLB   C1D42021  26.090   4.330  11.690
 1751BOLB   C2D42022  26.270   4.710  11.800
 1751BOLB   C3D42023  26.200   5.160  11.570
 1751BOLB   C4D42024  26.450   5.390  11.360
 1752BOLB   NC142025  21.570  17.280   7.530
 1752BOLB   PO142026  21.270  17.610   7.570
 1752BOLB   GL142027  21.310  17.700   7.120
 1752BOLB   GL242028  21.330  18.010   7.080
 1752BOLB   C1A42029  21.710  17.640   6.860
 1752BOLB   C2A42030  21.780  17.840   6.550
 1752BOLB   C3A42031  21.880  17.850   6.070
 1752BOLB   C4A42032  22.080  17.920   5.630
 1752BOLB   C1B42033  21.440  18.210   6.750
 1752BOLB   C2B42034  21.530  18.290   6.400
 1752BOLB   C3B42035  21.560  18.270   5.980
 1752BOLB   C4B42036  21.430  18.370   5.520
 1752BOLB   NC242037  23.390  18.510   3.240
 1752BOLB   PO242038  23.280  18.890   3.490
 1752BOLB   GL342039  23.170  18.650   3.810
 1752BOLB   GL442040  23.270  18.310   3.710
 1752BOLB   C1C42041  22.940  18.370   4.100
 1752BOLB   C2C42042  22.640  18.180   4.430
 1752BOLB   C3C42043  22.520  18.010   4.840
 1752BOLB   C4C42044  22.350  18.090   5.280
 1752BOLB   C1D42045  23.450  18.330   4.160
 1752BOLB   C2D42046  23.720  18.180   4.480
 1752BOLB   C3D42047  23.680  18.080   4.870
 1752BOLB   C4D42048  23.270  18.020   5.060
 1753BOLB   NC142049  16.990  12.400   7.830
 1753BOLB   PO142050  17.250  11.960   7.840
 1753BOLB   GL142051  16.850  11.900   7.530
 1753BOLB   GL242052  16.620  11.620   7.630
 1753BOLB   C1A42053  16.620  12.080   7.180
 1753BOLB   C2A42054  16.590  11.950   6.740
 1753BOLB   C3A42055  16.530  11.840   6.330
 1753BOLB   C4A42056  16.530  11.840   5.880
 1753BOLB   C1B42057  16.670  11.580   7.070
 1753BOLB   C2B42058  16.400  11.390   6.850
 1753BOLB   C3B42059  16.110  11.410   6.480
 1753BOLB   C4B42060  16.160  11.280   6.010
 1753BOLB   NC242061  16.090  12.120   3.270
 1753BOLB   PO242062  15.880  12.260   3.600
 1753BOLB   GL342063  15.790  12.380   4.030
 1753BOLB   GL442064  16.150  12.330   4.030
 1753BOLB   C1C42065  15.860  12.190   4.320
 1753BOLB   C2C42066  15.880  12.050   4.660
 1753BOLB   C3C42067  16.130  11.850   4.990
 1753BOLB   C4C42068  16.310  11.970   5.430
 1753BOLB   C1D42069  16.440  12.560   4.090
 1753BOLB   C2D42070  16.630  12.440   4.330
 1753BOLB   C3D42071  16.730  12.160   4.620
 1753BOLB   C4D42072  16.680  12.070   5.020
 1754BOLB   NC142073  25.750  15.530   8.440
 1754BOLB   PO142074  26.010  15.410   8.760
 1754BOLB   GL142075  26.280  15.530   8.320
 1754BOLB   GL242076  26.070  15.580   8.100
 1754BOLB   C1A42077  26.600  15.580   8.360
 1754BOLB   C2A42078  26.860  15.800   8.360
 1754BOLB   C3A42079  27.160  16.090   8.220
 1754BOLB   C4A42080  27.380  16.370   8.060
 1754BOLB   C1B42081  26.460  15.500   7.830
 1754BOLB   C2B42082  26.700  15.390   7.470
 1754BOLB   C3B42083  26.860  15.220   7.020
 1754BOLB   C4B42084  27.110  14.870   7.190
 1754BOLB   NC242085  28.990  16.610   6.250
 1754BOLB   PO242086  28.990  16.310   6.580
 1754BOLB   GL342087  28.920  16.540   6.980
 1754BOLB   GL442088  28.940  16.350   7.240
 1754BOLB   C1C42089  28.620  16.690   7.160
 1754BOLB   C2C42090  28.320  16.920   7.530
 1754BOLB   C3C42091  27.950  16.900   7.840
 1754BOLB   C4C42092  27.710  16.500   7.860
 1754BOLB   C1D42093  28.590  16.060   7.280
 1754BOLB   C2D42094  28.120  15.980   7.410
 1754BOLB   C3D42095  27.740  16.010   7.740
 1754BOLB   C4D42096  27.440  15.840   7.920
 1755BOLB   NC142097  22.690  14.140   7.630
 1755BOLB   PO142098  22.720  13.690   7.570
 1755BOLB   GL142099  22.730  13.880   7.170
 1755BOLB   GL242100  22.590  14.230   7.150
 1755BOLB   C1A42101  22.830  13.760   6.760
 1755BOLB   C2A42102  22.780  14.030   6.360
 1755BOLB   C3A42103  23.000  14.420   5.980
 1755BOLB   C4A42104  23.210  14.430   5.620
 1755BOLB   C1B42105  22.610  14.410   6.710
 1755BOLB   C2B42106  22.590  14.550   6.220
 1755BOLB   C3B42107  22.590  14.520   5.700
 1755BOLB   C4B42108  22.340  14.380   5.290
 1755BOLB   NC242109  22.970  14.380   3.210
 1755BOLB   PO242110  22.570  14.610   3.290
 1755BOLB   GL342111  22.670  14.360   3.670
 1755BOLB   GL442112  22.520  14.000   3.920
 1755BOLB   C1C42113  23.040  14.330   4.010
 1755BOLB   C2C42114  23.370  14.380   4.330
 1755BOLB   C3C42115  23.320  14.390   4.830
 1755BOLB   C4C42116  23.350  14.350   5.190
 1755BOLB   C1D42117  22.490  14.010   4.400
 1755BOLB   C2D42118  22.520  14.050   4.840
 1755BOLB   C3D42119  22.570  13.910   5.370
 1755BOLB   C4D42120  22.480  14.050   5.770
 1756BOLB   NC142121  24.080  19.790   9.150
 1756BOLB   PO142122  24.360  19.590   8.930
 1756BOLB   GL142123  24.240  19.830   8.620
 1756BOLB   GL242124  23.990  19.900   8.550
 1756BOLB   C1A42125  24.440  20.190   8.440
 1756BOLB   C2A42126  24.700  20.340   8.190
 1756BOLB   C3A42127  24.970  20.580   7.900
 1756BOLB   C4A42128  25.260  20.830   7.700
 1756BOLB   C1B42129  24.250  19.910   8.120
 1756BOLB   C2B42130  24.310  20.260   7.900
 1756BOLB   C3B42131  24.400  20.670   7.790
 1756BOLB   C4B42132  24.490  21.060   7.770
 1756BOLB   NC242133  25.570  22.730   6.710
 1756BOLB   PO242134  25.250  22.730   6.340
 1756BOLB   GL342135  24.890  22.550   6.580
 1756BOLB   GL442136  24.580  22.610   6.530
 1756BOLB   C1C42137  24.880  22.180   6.810
 1756BOLB   C2C42138  25.190  22.020   7.020
 1756BOLB   C3C42139  25.360  21.690   7.140
 1756BOLB   C4C42140  25.280  21.370   7.480
 1756BOLB   C1D42141  24.210  22.570   6.760
 1756BOLB   C2D42142  24.160  22.720   7.160
 1756BOLB   C3D42143  23.950  22.640   7.470
 1756BOLB   C4D42144  23.630  22.720   7.810
 1757BOLB   NC142145  23.660  16.700   7.780
 1757BOLB   PO142146  23.380  17.110   7.940
 1757BOLB   GL142147  23.650  17.170   7.520
 1757BOLB   GL242148  23.470  17.410   7.280
 1757BOLB   C1A42149  23.860  17.080   7.090
 1757BOLB   C2A42150  24.010  17.260   6.630
 1757BOLB   C3A42151  24.110  17.410   6.240
 1757BOLB   C4A42152  24.280  17.770   5.850
 1757BOLB   C1B42153  23.870  17.600   7.110
 1757BOLB   C2B42154  23.800  17.760   6.670
 1757BOLB   C3B42155  23.950  18.000   6.430
 1757BOLB   C4B42156  24.000  18.180   6.030
 1757BOLB   NC242157  24.750  17.990   3.230
 1757BOLB   PO242158  24.340  18.110   3.580
 1757BOLB   GL342159  24.330  18.080   4.090
 1757BOLB   GL442160  24.120  18.250   4.220
 1757BOLB   C1C42161  24.110  17.760   4.300
 1757BOLB   C2C42162  24.000  17.760   4.720
 1757BOLB   C3C42163  24.100  17.860   5.060
 1757BOLB   C4C42164  24.360  18.000   5.420
 1757BOLB   C1D42165  24.200  18.250   4.660
 1757BOLB   C2D42166  24.510  18.330   4.940
 1757BOLB   C3D42167  24.680  18.380   5.310
 1757BOLB   C4D42168  24.620  18.790   5.570
 1758BOLB   NC142169  28.180  10.900   6.120
 1758BOLB   PO142170  28.470  10.750   6.250
 1758BOLB   GL142171  28.390  10.870   6.650
 1758BOLB   GL242172  28.170  11.210   6.530
 1758BOLB   C1A42173  28.190  10.720   7.030
 1758BOLB   C2A42174  27.900  10.920   7.220
 1758BOLB   C3A42175  27.690  11.160   7.520
 1758BOLB   C4A42176  27.770  11.550   7.770
 1758BOLB   C1B42177  28.170  11.250   7.010
 1758BOLB   C2B42178  27.990  11.560   7.270
 1758BOLB   C3B42179  27.640  11.880   7.310
 1758BOLB   C4B42180  27.700  12.260   7.380
 1758BOLB   NC242181  30.100  11.310   7.740
 1758BOLB   PO242182  30.210  11.850   7.830
 1758BOLB   GL342183  29.900  11.740   8.040
 1758BOLB   GL442184  29.870  11.930   8.310
 1758BOLB   C1C42185  29.450  11.720   8.010
 1758BOLB   C2C42186  29.030  11.760   8.290
 1758BOLB   C3C42187  28.460  11.550   8.330
 1758BOLB   C4C42188  28.000  11.560   8.160
 1758BOLB   C1D42189  29.840  12.340   8.430
 1758BOLB   C2D42190  29.500  12.450   8.690
 1758BOLB   C3D42191  29.230  12.380   8.920
 1758BOLB   C4D42192  28.930  12.230   9.150
 1759BOLB   NC142193  12.720  11.380  11.540
 1759BOLB   PO142194  12.230  11.360  11.550
 1759BOLB   GL142195  11.860  11.200  11.450
 1759BOLB   GL242196  11.800  11.380  11.150
 1759BOLB   C1A42197  11.670  10.950  11.280
 1759BOLB   C2A42198  11.370  10.920  10.910
 1759BOLB   C3A42199  11.220  10.900  10.480
 1759BOLB   C4A42200  10.900  11.090  10.290
 1759BOLB   C1B42201  11.570  11.390  10.790
 1759BOLB   C2B42202  11.340  11.440  10.400
 1759BOLB   C3B42203  11.170  11.400   9.990
 1759BOLB   C4B42204  10.990  11.610   9.630
 1759BOLB   NC242205   8.620  11.080   8.590
 1759BOLB   PO242206   8.810  11.480   8.790
 1759BOLB   GL342207   9.140  11.480   9.060
 1759BOLB   GL442208   9.360  11.720   8.870
 1759BOLB   C1C42209   9.550  11.170   9.130
 1759BOLB   C2C42210   9.920  10.940   9.310
 1759BOLB   C3C42211  10.190  11.000   9.670
 1759BOLB   C4C42212  10.500  10.990  10.120
 1759BOLB   C1D42213   9.610  11.630   9.290
 1759BOLB   C2D42214   9.880  11.420   9.660
 1759BOLB   C3D42215  10.290  11.550   9.890
 1759BOLB   C4D42216  10.590  11.390   9.870
 1760BOLB   NC142217  11.960  13.400  10.820
 1760BOLB   PO142218  11.780  13.770  10.900
 1760BOLB   GL142219  11.410  13.530  10.720
 1760BOLB   GL242220  11.090  13.500  10.830
 1760BOLB   C1A42221  11.150  13.410  10.340
 1760BOLB   C2A42222  10.790  13.600  10.210
 1760BOLB   C3A42223  10.420  13.380  10.140
 1760BOLB   C4A42224   9.970  13.530  10.120
 1760BOLB   C1B42225  10.670  13.450  10.700
 1760BOLB   C2B42226  10.250  13.390  10.600
 1760BOLB   C3B42227   9.810  13.440  10.570
 1760BOLB   C4B42228   9.410  13.410  10.410
 1760BOLB   NC242229   7.340  12.110   9.850
 1760BOLB   PO242230   7.550  12.330   9.490
 1760BOLB   GL342231   7.880  12.680   9.560
 1760BOLB   GL442232   8.130  12.520   9.400
 1760BOLB   C1C42233   8.120  13.070   9.640
 1760BOLB   C2C42234   8.700  13.190   9.760
 1760BOLB   C3C42235   9.190  13.200   9.890
 1760BOLB   C4C42236   9.580  13.300   9.910
 1760BOLB   C1D42237   8.520  12.600   9.710
 1760BOLB   C2D42238   8.940  12.750   9.820
 1760BOLB   C3D42239   9.310  12.660  10.070
 1760BOLB   C4D42240   9.660  12.820  10.050
 1761BOLB   NC142241  12.470  11.700  10.720
 1761BOLB   PO142242  12.290  11.340  11.020
 1761BOLB   GL142243  12.060  10.950  11.000
 1761BOLB   GL242244  12.000  11.030  10.620
 1761BOLB   C1A42245  11.820  10.570  10.890
 1761BOLB   C2A42246  11.520  10.400  10.680
 1761BOLB   C3A42247  11.190  10.380  10.540
 1761BOLB   C4A42248  10.730  10.240  10.470
 1761BOLB   C1B42249  11.680  11.020  10.390
 1761BOLB   C2B42250  11.440  10.960  10.010
 1761BOLB   C3B42251  11.010  11.000   9.720
 1761BOLB   C4B42252  10.680  10.960   9.490
 1761BOLB   NC242253   8.790   8.740   9.920
 1761BOLB   PO242254   9.210   8.510  10.010
 1761BOLB   GL342255   9.310   8.780  10.370
 1761BOLB   GL442256   9.100   9.050  10.140
 1761BOLB   C1C42257   9.630   9.120  10.490
 1761BOLB   C2C42258   9.620   9.640  10.430
 1761BOLB   C3C42259   9.900   9.980  10.700
 1761BOLB   C4C42260  10.290   9.940  10.450
 1761BOLB   C1D42261   9.070   9.480  10.300
 1761BOLB   C2D42262   8.850   9.770  10.540
 1761BOLB   C3D42263   8.700  10.200  10.390
 1761BOLB   C4D42264   8.780  10.590  10.200
 1762BOLB   NC142265  18.760   2.640   9.420
 1762BOLB   PO142266  18.780   2.330   9.750
 1762BOLB   GL142267  18.740   2.730   9.960
 1762BOLB   GL242268  18.990   2.640  10.150
 1762BOLB   C1A42269  18.520   3.050  10.140
 1762BOLB   C2A42270  18.590   3.370  10.440
 1762BOLB   C3A42271  18.490   3.500  10.700
 1762BOLB   C4A42272  18.240   3.730  11.170
 1762BOLB   C1B42273  19.390   2.690  10.310
 1762BOLB   C2B42274  19.440   2.960  10.670
 1762BOLB   C3B42275  19.690   3.310  10.740
 1762BOLB   C4B42276  19.710   3.480  11.230
 1762BOLB   NC242277  18.290   2.250   9.890
 1762BOLB   PO242278  17.860   2.430   9.750
 1762BOLB   GL342279  17.910   2.710   9.940
 1762BOLB   GL442280  18.250   2.800   9.770
 1762BOLB   C1C42281  17.940   3.070  10.270
 1762BOLB   C2C42282  17.620   3.240  10.440
 1762BOLB   C3C42283  17.550   3.570  10.720
 1762BOLB   C4C42284  17.790   3.870  10.990
 1762BOLB   C1D42285  18.130   3.140   9.760
 1762BOLB   C2D42286  18.300   3.500   9.570
 1762BOLB   C3D42287  18.530   3.920   9.530
 1762BOLB   C4D42288  18.450   4.220   9.690
 1763BOLB   NC142289  15.900  11.480   8.390
 1763BOLB   PO142290  15.880  11.100   8.140
 1763BOLB   GL142291  15.980  10.810   7.850
 1763BOLB   GL242292  16.210  10.770   7.860
 1763BOLB   C1A42293  15.830  10.550   7.560
 1763BOLB   C2A42294  15.710  10.290   7.250
 1763BOLB   C3A42295  15.350  10.150   7.040
 1763BOLB   C4A42296  14.980  10.500   6.870
 1763BOLB   C1B42297  16.240  10.700   7.380
 1763BOLB   C2B42298  16.170  10.340   7.110
 1763BOLB   C3B42299  15.940  10.130   6.830
 1763BOLB   C4B42300  15.770   9.880   6.530
 1763BOLB   NC242301  14.640  10.580   4.730
 1763BOLB   PO242302  14.190  10.450   4.640
 1763BOLB   GL342303  14.150  10.520   5.110
 1763BOLB   GL442304  14.400  10.690   5.140
 1763BOLB   C1C42305  14.330  10.770   5.600
 1763BOLB   C2C42306  14.350  10.860   5.960
 1763BOLB   C3C42307  14.440  10.650   6.340
 1763BOLB   C4C42308  14.650  10.600   6.780
 1763BOLB   C1D42309  14.680  10.450   5.440
 1763BOLB   C2D42310  15.090  10.600   5.630
 1763BOLB   C3D42311  15.400  10.800   5.980
 1763BOLB   C4D42312  15.410  10.760   6.480
 1764BOLB   NC142313  18.680  12.720   7.670
 1764BOLB   PO142314  18.850  13.050   7.570
 1764BOLB   GL142315  18.830  12.950   7.150
 1764BOLB   GL242316  18.680  12.640   7.130
 1764BOLB   C1A42317  18.660  12.900   6.690
 1764BOLB   C2A42318  18.590  12.510   6.310
 1764BOLB   C3A42319  18.630  12.340   5.860
 1764BOLB   C4A42320  18.840  12.540   5.450
 1764BOLB   C1B42321  18.740  12.410   6.770
 1764BOLB   C2B42322  18.760  12.160   6.530
 1764BOLB   C3B42323  18.720  11.920   6.230
 1764BOLB   C4B42324  18.520  11.660   5.850
 1764BOLB   NC242325  19.600  12.420   3.220
 1764BOLB   PO242326  19.620  12.060   3.420
 1764BOLB   GL342327  19.610  12.310   3.780
 1764BOLB   GL442328  19.930  12.560   3.730
 1764BOLB   C1C42329  19.290  12.330   4.050
 1764BOLB   C2C42330  19.230  12.560   4.460
 1764BOLB   C3C42331  19.220  12.610   4.910
 1764BOLB   C4C42332  19.100  12.500   5.180
 1764BOLB   C1D42333  20.020  12.990   3.980
 1764BOLB   C2D42334  19.840  13.200   4.280
 1764BOLB   C3D42335  19.970  13.310   4.750
 1764BOLB   C4D42336  20.200  13.190   5.100
 1765BOLB   NC142337  28.090  10.700  12.440
 1765BOLB   PO142338  28.290  10.940  12.210
 1765BOLB   GL142339  28.660  11.000  12.040
 1765BOLB   GL242340  28.620  10.900  11.690
 1765BOLB   C1A42341  29.170  10.820  11.980
 1765BOLB   C2A42342  29.540  10.990  11.910
 1765BOLB   C3A42343  29.980  11.200  12.080
 1765BOLB   C4A42344  30.270  11.630  12.060
 1765BOLB   C1B42345  28.850  11.030  11.300
 1765BOLB   C2B42346  28.930  10.760  11.030
 1765BOLB   C3B42347  29.000  10.580  10.650
 1765BOLB   C4B42348  28.940  10.540  10.270
 1765BOLB   NC242349  32.810  11.080  11.300
 1765BOLB   PO242350  32.530  11.200  11.630
 1765BOLB   GL342351  32.150  11.460  11.720
 1765BOLB   GL442352  32.100  11.370  12.130
 1765BOLB   C1C42353  31.910  11.820  11.900
 1765BOLB   C2C42354  31.610  12.010  12.290
 1765BOLB   C3C42355  31.120  11.910  12.410
 1765BOLB   C4C42356  30.640  11.770  12.350
 1765BOLB   C1D42357  31.620  11.370  12.150
 1765BOLB   C2D42358  31.220  11.540  12.080
 1765BOLB   C3D42359  30.890  11.740  11.890
 1765BOLB   C4D42360  30.560  11.630  11.610
 1766BOLB   NC142361  22.270  17.760   7.710
 1766BOLB   PO142362  21.890  18.080   7.820
 1766BOLB   GL142363  22.040  18.240   7.370
 1766BOLB   GL242364  22.260  18.040   7.270
 1766BOLB   C1A42365  21.890  18.240   6.930
 1766BOLB   C2A42366  21.890  18.580   6.670
 1766BOLB   C3A42367  21.820  18.760   6.200
 1766BOLB   C4A42368  21.840  19.110   5.930
 1766BOLB   C1B42369  22.500  18.180   6.880
 1766BOLB   C2B42370  22.370  18.430   6.580
 1766BOLB   C3B42371  22.160  18.440   6.120
 1766BOLB   C4B42372  22.160  18.730   5.740
 1766BOLB   NC242373  22.840  19.020   3.780
 1766BOLB   PO242374  22.640  19.330   3.760
 1766BOLB   GL342375  22.480  19.640   3.990
 1766BOLB   GL442376  22.550  19.800   4.340
 1766BOLB   C1C42377  22.160  19.430   4.270
 1766BOLB   C2C42378  21.950  19.430   4.660
 1766BOLB   C3C42379  22.080  19.360   5.070
 1766BOLB   C4C42380  21.950  19.230   5.460
 1766BOLB   C1D42381  22.450  19.480   4.680
 1766BOLB   C2D42382  22.460  19.110   4.690
 1766BOLB   C3D42383  22.210  18.880   4.790
 1766BOLB   C4D42384  22.080  18.440   4.930
 1767BOLB   NC142385  27.670  15.390   4.530
 1767BOLB   PO142386  27.700  15.420   5.040
 1767BOLB   GL142387  27.280  15.330   5.270
 1767BOLB   GL242388  27.420  15.120   5.560
 1767BOLB   C1A42389  26.850  15.380   5.230
 1767BOLB   C2A42390  26.450  15.160   5.320
 1767BOLB   C3A42391  26.130  15.070   5.610
 1767BOLB   C4A42392  25.730  14.950   5.610
 1767BOLB   C1B42393  27.330  15.330   5.950
 1767BOLB   C2B42394  27.140  15.300   6.310
 1767BOLB   C3B42395  26.790  15.460   6.620
 1767BOLB   C4B42396  26.460  15.750   6.430
 1767BOLB   NC242397  25.240  15.840   3.200
 1767BOLB   PO242398  25.250  15.610   3.600
 1767BOLB   GL342399  25.280  15.430   4.100
 1767BOLB   GL442400  25.440  15.580   4.350
 1767BOLB   C1C42401  25.270  15.100   4.500
 1767BOLB   C2C42402  25.160  14.820   4.740
 1767BOLB   C3C42403  25.040  14.770   5.180
 1767BOLB   C4C42404  25.330  14.730   5.540
 1767BOLB   C1D42405  25.180  15.570   4.730
 1767BOLB   C2D42406  25.080  15.240   5.010
 1767BOLB   C3D42407  24.810  15.170   5.460
 1767BOLB   C4D42408  24.470  15.180   5.760
 1768BOLB   NC142409  27.020  16.710   5.070
 1768BOLB   PO142410  26.920  17.210   5.260
 1768BOLB   GL142411  26.760  16.970   5.590
 1768BOLB   GL242412  26.420  16.990   5.640
 1768BOLB   C1A42413  26.770  16.530   5.740
 1768BOLB   C2A42414  26.440  16.300   6.040
 1768BOLB   C3A42415  26.230  16.280   6.470
 1768BOLB   C4A42416  26.260  16.030   6.840
 1768BOLB   C1B42417  26.300  17.490   5.610
 1768BOLB   C2B42418  26.070  17.920   5.720
 1768BOLB   C3B42419  25.630  18.200   5.710
 1768BOLB   C4B42420  25.500  18.360   5.900
 1768BOLB   NC242421  27.780  16.550   5.420
 1768BOLB   PO242422  27.840  16.080   5.340
 1768BOLB   GL342423  27.730  16.050   5.720
 1768BOLB   GL442424  27.960  16.190   6.060
 1768BOLB   C1C42425  27.450  15.820   5.880
 1768BOLB   C2C42426  27.140  15.790   6.240
 1768BOLB   C3C42427  26.940  15.910   6.620
 1768BOLB   C4C42428  26.640  15.900   6.890
 1768BOLB   C1D42429  27.740  15.850   6.310
 1768BOLB   C2D42430  27.440  16.040   6.560
 1768BOLB   C3D42431  27.230  16.050   6.990
 1768BOLB   C4D42432  26.900  15.790   7.280
 1769BOLB   NC142433  22.650  20.000   8.810
 1769BOLB   PO142434  22.360  20.290   8.650
 1769BOLB   GL142435  22.800  20.250   8.370
 1769BOLB   GL242436  22.940  20.480   8.270
 1769BOLB   C1A42437  23.310  20.330   7.970
 1769BOLB   C2A42438  23.300  20.590   7.650
 1769BOLB   C3A42439  23.370  20.510   7.170
 1769BOLB   C4A42440  23.760  20.690   7.000
 1769BOLB   C1B42441  22.920  20.780   7.940
 1769BOLB   C2B42442  23.020  20.950   7.460
 1769BOLB   C3B42443  23.160  21.280   7.140
 1769BOLB   C4B42444  23.190  21.530   6.800
 1769BOLB   NC242445  23.410  21.700   4.990
 1769BOLB   PO242446  23.570  21.940   5.320
 1769BOLB   GL342447  23.520  21.940   5.730
 1769BOLB   GL442448  23.400  22.250   5.860
 1769BOLB   C1C42449  23.740  22.070   6.120
 1769BOLB   C2C42450  23.960  21.820   6.570
 1769BOLB   C3C42451  23.920  21.560   6.940
 1769BOLB   C4C42452  23.890  21.120   7.000
 1769BOLB   C1D42453  23.030  22.380   5.950
 1769BOLB   C2D42454  22.560  22.410   5.990
 1769BOLB   C3D42455  22.220  22.270   6.190
 1769BOLB   C4D42456  21.950  22.080   6.170
 1770BOLB   NC142457  21.430  11.270   8.100
 1770BOLB   PO142458  21.490  10.810   8.110
 1770BOLB   GL142459  21.340  10.900   7.690
 1770BOLB   GL242460  21.120  10.670   7.570
 1770BOLB   C1A42461  21.560  10.960   7.310
 1770BOLB   C2A42462  21.450  10.960   6.840
 1770BOLB   C3A42463  21.630  10.760   6.480
 1770BOLB   C4A42464  21.790  10.700   6.070
 1770BOLB   C1B42465  21.380  10.460   7.410
 1770BOLB   C2B42466  21.820  10.590   7.150
 1770BOLB   C3B42467  21.950  10.840   6.880
 1770BOLB   C4B42468  22.370  10.780   6.570
 1770BOLB   NC242469  22.730   9.560   4.120
 1770BOLB   PO242470  22.620  10.020   4.010
 1770BOLB   GL342471  22.480   9.920   4.360
 1770BOLB   GL442472  22.270   9.970   4.440
 1770BOLB   C1C42473  22.590   9.810   4.800
 1770BOLB   C2C42474  22.440   9.920   5.210
 1770BOLB   C3C42475  22.200  10.060   5.570
 1770BOLB   C4C42476  22.020  10.490   5.750
 1770BOLB   C1D42477  22.160  10.190   4.760
 1770BOLB   C2D42478  22.160  10.340   5.170
 1770BOLB   C3D42479  22.390  10.540   5.500
 1770BOLB   C4D42480  22.510  10.370   5.880
 1771BOLB   NC142481  19.550  14.080   7.050
 1771BOLB   PO142482  19.960  14.340   7.020
 1771BOLB   GL142483  20.220  14.200   6.760
 1771BOLB   GL242484  20.460  14.010   6.920
 1771BOLB   C1A42485  20.210  14.210   6.330
 1771BOLB   C2A42486  20.190  13.870   6.040
 1771BOLB   C3A42487  20.400  13.620   5.710
 1771BOLB   C4A42488  20.380  13.680   5.240
 1771BOLB   C1B42489  20.520  13.830   6.440
 1771BOLB   C2B42490  20.710  13.650   6.170
 1771BOLB   C3B42491  20.930  13.670   5.770
 1771BOLB   C4B42492  20.830  13.820   5.360
 1771BOLB   NC242493  20.750  12.250   3.350
 1771BOLB   PO242494  20.990  12.520   3.530
 1771BOLB   GL342495  20.630  12.650   3.800
 1771BOLB   GL442496  20.380  12.650   3.660
 1771BOLB   C1C42497  20.590  13.050   3.970
 1771BOLB   C2C42498  20.570  13.540   4.080
 1771BOLB   C3C42499  20.570  13.720   4.400
 1771BOLB   C4C42500  20.290  13.760   4.810
 1771BOLB   C1D42501  20.300  12.600   4.170
 1771BOLB   C2D42502  20.360  12.380   4.510
 1771BOLB   C3D42503  20.460  12.110   4.870
 1771BOLB   C4D42504  20.280  12.070   5.390
 1772BOLB   NC142505  28.840   4.620  12.680
 1772BOLB   PO142506  28.690   4.400  13.100
 1772BOLB   GL142507  28.300   4.670  13.120
 1772BOLB   GL242508  27.950   4.630  13.200
 1772BOLB   C1A42509  28.110   5.080  13.400
 1772BOLB   C2A42510  27.700   5.310  13.500
 1772BOLB   C3A42511  27.210   5.260  13.530
 1772BOLB   C4A42512  26.860   5.070  13.730
 1772BOLB   C1B42513  27.750   4.810  13.580
 1772BOLB   C2B42514  27.380   4.820  13.830
 1772BOLB   C3B42515  27.170   4.780  14.180
 1772BOLB   C4B42516  27.050   4.930  14.550
 1772BOLB   NC242517  25.660   7.110  14.390
 1772BOLB   PO242518  25.320   6.770  14.350
 1772BOLB   GL342519  25.640   6.680  13.970
 1772BOLB   GL442520  25.720   6.390  13.840
 1772BOLB   C1C42521  26.100   6.360  14.100
 1772BOLB   C2C42522  26.400   6.120  14.330
 1772BOLB   C3C42523  26.650   5.710  14.370
 1772BOLB   C4C42524  26.560   5.330  14.030
 1772BOLB   C1D42525  25.980   6.220  13.640
 1772BOLB   C2D42526  26.250   5.980  13.440
 1772BOLB   C3D42527  26.640   6.040  13.360
 1772BOLB   C4D42528  26.800   6.430  13.400
 1773BOLB   NC142529  31.510  14.440  10.020
 1773BOLB   PO142530  31.130  14.610   9.880
 1773BOLB   GL142531  30.860  14.920   9.650
 1773BOLB   GL242532  31.070  15.220   9.880
 1773BOLB   C1A42533  30.390  15.030   9.860
 1773BOLB   C2A42534  30.040  15.110   9.560
 1773BOLB   C3A42535  29.830  15.190   9.100
 1773BOLB   C4A42536  29.680  14.920   8.940
 1773BOLB   C1B42537  30.780  15.260  10.170
 1773BOLB   C2B42538  30.600  15.560  10.470
 1773BOLB   C3B42539  30.320  15.940  10.330
 1773BOLB   C4B42540  29.980  15.930  10.090
 1773BOLB   NC242541  30.750  13.280   7.500
 1773BOLB   PO242542  30.580  13.470   7.860
 1773BOLB   GL342543  30.420  13.550   8.190
 1773BOLB   GL442544  30.080  13.680   8.170
 1773BOLB   C1C42545  30.420  13.680   8.560
 1773BOLB   C2C42546  30.240  13.870   8.970
 1773BOLB   C3C42547  29.890  14.170   9.030
 1773BOLB   C4C42548  29.570  14.570   8.870
 1773BOLB   C1D42549  29.870  13.790   8.470
 1773BOLB   C2D42550  29.520  14.010   8.780
 1773BOLB   C3D42551  29.220  14.140   9.050
 1773BOLB   C4D42552  28.990  14.110   9.490
 1774BOLB   NC142553  16.410  14.100   8.070
 1774BOLB   PO142554  16.130  14.220   7.710
 1774BOLB   GL142555  15.890  14.330   7.310
 1774BOLB   GL242556  15.490  14.190   7.300
 1774BOLB   C1A42557  15.840  14.510   6.900
 1774BOLB   C2A42558  15.760  14.500   6.430
 1774BOLB   C3A42559  15.470  14.660   6.030
 1774BOLB   C4A42560  15.360  14.880   5.550
 1774BOLB   C1B42561  15.570  14.090   6.930
 1774BOLB   C2B42562  15.640  13.990   6.490
 1774BOLB   C3B42563  15.650  14.160   6.080
 1774BOLB   C4B42564  15.780  14.290   5.840
 1774BOLB   NC242565  15.570  15.640   3.400
 1774BOLB   PO242566  15.300  15.260   3.240
 1774BOLB   GL342567  15.250  15.400   3.700
 1774BOLB   GL442568  15.200  15.690   3.830
 1774BOLB   C1C42569  15.390  15.250   4.080
 1774BOLB   C2C42570  15.400  14.970   4.380
 1774BOLB   C3C42571  15.480  14.950   4.740
 1774BOLB   C4C42572  15.400  14.910   5.050
 1774BOLB   C1D42573  15.140  15.680   4.300
 1774BOLB   C2D42574  15.170  15.910   4.610
 1774BOLB   C3D42575  14.860  16.160   4.770
 1774BOLB   C4D42576  14.800  16.510   4.950
 1775BOLB   NC142577  22.990   9.150   8.760
 1775BOLB   PO142578  23.390   9.140   9.010
 1775BOLB   GL142579  23.400   8.850   8.720
 1775BOLB   GL242580  23.400   8.900   8.450
 1775BOLB   C1A42581  23.620   8.500   8.620
 1775BOLB   C2A42582  23.860   8.230   8.400
 1775BOLB   C3A42583  23.840   7.880   8.130
 1775BOLB   C4A42584  23.880   7.640   7.730
 1775BOLB   C1B42585  23.720   8.620   8.130
 1775BOLB   C2B42586  24.230   8.410   8.080
 1775BOLB   C3B42587  24.520   8.370   8.230
 1775BOLB   C4B42588  24.910   8.210   8.180
 1775BOLB   NC242589  25.860   7.760   5.930
 1775BOLB   PO242590  25.590   7.360   5.960
 1775BOLB   GL342591  25.190   7.370   6.270
 1775BOLB   GL442592  25.240   7.150   6.500
 1775BOLB   C1C42593  24.790   7.300   6.380
 1775BOLB   C2C42594  24.660   7.190   6.740
 1775BOLB   C3C42595  24.510   7.370   7.090
 1775BOLB   C4C42596  24.210   7.650   7.400
 1775BOLB   C1D42597  25.450   7.320   6.920
 1775BOLB   C2D42598  25.420   7.660   7.280
 1775BOLB   C3D42599  25.270   7.960   7.560
 1775BOLB   C4D42600  24.890   7.820   7.850
 1776BOLB   NC142601  27.240   4.740   8.710
 1776BOLB   PO142602  27.070   4.800   8.330
 1776BOLB   GL142603  26.970   5.200   8.550
 1776BOLB   GL242604  27.170   5.280   8.780
 1776BOLB   C1A42605  26.550   5.310   8.840
 1776BOLB   C2A42606  26.200   5.520   8.960
 1776BOLB   C3A42607  26.070   5.990   8.850
 1776BOLB   C4A42608  25.990   6.210   9.300
 1776BOLB   C1B42609  27.240   5.670   9.060
 1776BOLB   C2B42610  26.940   5.990   9.130
 1776BOLB   C3B42611  26.600   6.210   9.460
 1776BOLB   C4B42612  26.660   6.510   9.700
 1776BOLB   NC242613  27.580   4.920   9.610
 1776BOLB   PO242614  27.600   5.240   9.470
 1776BOLB   GL342615  27.500   5.570   9.800
 1776BOLB   GL442616  27.630   5.670  10.040
 1776BOLB   C1C42617  27.160   5.520  10.080
 1776BOLB   C2C42618  26.790   5.760  10.160
 1776BOLB   C3C42619  26.390   6.030   9.890
 1776BOLB   C4C42620  26.110   6.120   9.580
 1776BOLB   C1D42621  27.550   5.770  10.380
 1776BOLB   C2D42622  27.720   5.970  10.800
 1776BOLB   C3D42623  27.730   6.210  11.230
 1776BOLB   C4D42624  27.430   6.260  11.630
 1777BOLB   NC142625  16.000  14.670   7.670
 1777BOLB   PO142626  15.560  14.510   7.720
 1777BOLB   GL142627  15.320  14.650   7.440
 1777BOLB   GL242628  15.510  14.940   7.250
 1777BOLB   C1A42629  15.350  14.490   6.930
 1777BOLB   C2A42630  15.220  14.310   6.540
 1777BOLB   C3A42631  15.090  14.220   6.100
 1777BOLB   C4A42632  15.170  14.180   5.730
 1777BOLB   C1B42633  15.150  14.930   7.000
 1777BOLB   C2B42634  14.900  14.790   6.710
 1777BOLB   C3B42635  14.970  14.690   6.270
 1777BOLB   C4B42636  14.960  14.610   5.770
 1777BOLB   NC242637  15.230  12.880   3.620
 1777BOLB   PO242638  15.580  13.150   3.600
 1777BOLB   GL342639  15.710  13.400   3.860
 1777BOLB   GL442640  15.900  13.730   3.920
 1777BOLB   C1C42641  15.550  13.370   4.260
 1777BOLB   C2C42642  15.260  13.470   4.630
 1777BOLB   C3C42643  15.060  13.710   5.020
 1777BOLB   C4C42644  15.250  13.850   5.410
 1777BOLB   C1D42645  16.060  13.680   4.320
 1777BOLB   C2D42646  16.260  13.690   4.670
 1777BOLB   C3D42647  16.220  13.730   5.050
 1777BOLB   C4D42648  16.490  13.950   5.210
 1778BOLB   NC142649  21.950  11.620   7.810
 1778BOLB   PO142650  21.820  11.150   7.880
 1778BOLB   GL142651  21.920  11.240   7.470
 1778BOLB   GL242652  21.810  11.490   7.320
 1778BOLB   C1A42653  22.230  11.350   7.240
 1778BOLB   C2A42654  22.300  11.270   6.790
 1778BOLB   C3A42655  22.430  11.280   6.330
 1778BOLB   C4A42656  22.280  11.110   5.920
 1778BOLB   C1B42657  21.770  11.320   6.900
 1778BOLB   C2B42658  21.880  11.230   6.470
 1778BOLB   C3B42659  21.710  11.210   6.070
 1778BOLB   C4B42660  21.300  10.980   6.050
 1778BOLB   NC242661  22.190  10.570   3.330
 1778BOLB   PO242662  22.460  10.850   3.580
 1778BOLB   GL342663  22.450  10.980   3.990
 1778BOLB   GL442664  22.380  11.340   3.940
 1778BOLB   C1C42665  22.140  10.850   4.300
 1778BOLB   C2C42666  22.080  10.640   4.670
 1778BOLB   C3C42667  22.250  10.870   5.020
 1778BOLB   C4C42668  22.200  11.000   5.440
 1778BOLB   C1D42669  22.360  11.390   4.360
 1778BOLB   C2D42670  22.470  11.290   4.780
 1778BOLB   C3D42671  22.400  11.330   5.210
 1778BOLB   C4D42672  22.440  11.530   5.580
 1779BOLB   NC142673  28.400  12.690  12.580
 1779BOLB   PO142674  28.560  12.640  13.000
 1779BOLB   GL142675  28.920  12.710  12.780
 1779BOLB   GL242676  29.200  12.670  12.890
 1779BOLB   C1A42677  29.150  12.770  12.390
 1779BOLB   C2A42678  29.520  12.660  12.320
 1779BOLB   C3A42679  29.920  12.680  11.970
 1779BOLB   C4A42680  30.130  12.550  11.640
 1779BOLB   C1B42681  29.610  12.610  12.810
 1779BOLB   C2B42682  30.000  12.840  12.790
 1779BOLB   C3B42683  30.420  13.120  12.700
 1779BOLB   C4B42684  30.830  13.140  12.880
 1779BOLB   NC242685  31.870  12.140  10.410
 1779BOLB   PO242686  31.890  11.790  10.450
 1779BOLB   GL342687  31.480  11.820  10.450
 1779BOLB   GL442688  31.330  11.510  10.430
 1779BOLB   C1C42689  31.130  12.000  10.590
 1779BOLB   C2C42690  30.700  11.970  10.820
 1779BOLB   C3C42691  30.430  11.890  11.150
 1779BOLB   C4C42692  30.140  12.230  11.320
 1779BOLB   C1D42693  30.910  11.410  10.480
 1779BOLB   C2D42694  30.520  11.600  10.570
 1779BOLB   C3D42695  30.190  11.600  10.750
 1779BOLB   C4D42696  29.960  11.850  11.040
 1780BOLB   NC142697  26.280  11.020   9.610
 1780BOLB   PO142698  25.940  10.820   9.590
 1780BOLB   GL142699  26.220  10.750   9.210
 1780BOLB   GL242700  26.080  10.710   8.840
 1780BOLB   C1A42701  26.580  10.520   8.990
 1780BOLB   C2A42702  26.800  10.480   8.650
 1780BOLB   C3A42703  27.020  10.610   8.290
 1780BOLB   C4A42704  27.190  10.740   7.780
 1780BOLB   C1B42705  26.250  10.460   8.580
 1780BOLB   C2B42706  26.520  10.320   8.310
 1780BOLB   C3B42707  26.770  10.140   8.070
 1780BOLB   C4B42708  27.070  10.270   7.870
 1780BOLB   NC242709  27.940   9.910   6.450
 1780BOLB   PO242710  27.770   9.590   6.160
 1780BOLB   GL342711  27.460   9.780   6.490
 1780BOLB   GL442712  27.140   9.660   6.320
 1780BOLB   C1C42713  27.230  10.190   6.490
 1780BOLB   C2C42714  27.440  10.470   6.640
 1780BOLB   C3C42715  27.360  10.690   6.990
 1780BOLB   C4C42716  27.320  10.850   7.350
 1780BOLB   C1D42717  27.050   9.760   6.780
 1780BOLB   C2D42718  26.800   9.960   7.080
 1780BOLB   C3D42719  26.400  10.030   7.250
 1780BOLB   C4D42720  25.970  10.030   7.420
 1781BOLB   NC142721  21.690  20.310   8.190
 1781BOLB   PO142722  21.970  20.370   7.880
 1781BOLB   GL142723  22.080  20.630   7.410
 1781BOLB   GL242724  21.900  20.800   7.610
 1781BOLB   C1A42725  21.910  20.720   7.020
 1781BOLB   C2A42726  21.860  20.770   6.550
 1781BOLB   C3A42727  21.660  20.940   6.180
 1781BOLB   C4A42728  21.290  21.110   6.120
 1781BOLB   C1B42729  21.790  21.080   7.350
 1781BOLB   C2B42730  21.510  21.220   6.960
 1781BOLB   C3B42731  21.540  21.270   6.600
 1781BOLB   C4B42732  21.700  21.440   6.130
 1781BOLB   NC242733  20.450  21.700   3.660
 1781BOLB   PO242734  20.650  21.780   4.100
 1781BOLB   GL342735  20.610  21.860   4.500
 1781BOLB   GL442736  20.740  21.560   4.680
 1781BOLB   C1C42737  20.400  21.740   4.930
 1781BOLB   C2C42738  20.390  21.370   5.220
 1781BOLB   C3C42739  20.590  21.120   5.620
 1781BOLB   C4C42740  20.890  20.980   5.950
 1781BOLB   C1D42741  20.830  21.280   4.950
 1781BOLB   C2D42742  21.040  21.100   5.270
 1781BOLB   C3D42743  20.980  21.360   5.630
 1781BOLB   C4D42744  21.230  21.570   5.950
 1782BOLB   NC142745  29.270   9.850   7.150
 1782BOLB   PO142746  29.130   9.520   6.840
 1782BOLB   GL142747  28.850   9.350   7.110
 1782BOLB   GL242748  29.040   9.420   7.390
 1782BOLB   C1A42749  28.470   9.530   7.370
 1782BOLB   C2A42750  28.160   9.800   7.590
 1782BOLB   C3A42751  27.950   9.750   8.030
 1782BOLB   C4A42752  27.660   9.530   8.210
 1782BOLB   C1B42753  28.730   9.300   7.780
 1782BOLB   C2B42754  28.410   9.190   8.060
 1782BOLB   C3B42755  28.140   9.220   8.420
 1782BOLB   C4B42756  27.780   9.280   8.620
 1782BOLB   NC242757  27.960   8.060   6.730
 1782BOLB   PO242758  28.160   8.090   7.090
 1782BOLB   GL342759  28.070   8.470   7.220
 1782BOLB   GL442760  28.170   8.800   7.150
 1782BOLB   C1C42761  27.710   8.620   7.390
 1782BOLB   C2C42762  27.500   8.550   7.680
 1782BOLB   C3C42763  27.520   8.790   7.990
 1782BOLB   C4C42764  27.430   9.160   8.260
 1782BOLB   C1D42765  27.840   9.090   7.120
 1782BOLB   C2D42766  27.510   9.380   7.170
 1782BOLB   C3D42767  27.180   9.670   7.370
 1782BOLB   C4D42768  26.930   9.820   7.640
 1783BOLB   NC142769  24.550  18.310   8.740
 1783BOLB   PO142770  24.350  18.430   8.380
 1783BOLB   GL142771  24.530  18.850   8.140
 1783BOLB   GL242772  24.810  18.840   8.110
 1783BOLB   C1A42773  24.540  19.260   7.950
 1783BOLB   C2A42774  24.600  19.690   7.870
 1783BOLB   C3A42775  24.770  20.110   7.760
 1783BOLB   C4A42776  25.110  20.240   7.540
 1783BOLB   C1B42777  24.800  18.840   7.760
 1783BOLB   C2B42778  24.710  18.910   7.380
 1783BOLB   C3B42779  24.700  18.780   6.920
 1783BOLB   C4B42780  24.680  18.550   6.620
 1783BOLB   NC242781  27.250  21.340   6.250
 1783BOLB   PO242782  26.800  21.410   6.160
 1783BOLB   GL342783  26.620  20.910   6.410
 1783BOLB   GL442784  26.800  20.720   6.640
 1783BOLB   C1C42785  26.290  20.640   6.490
 1783BOLB   C2C42786  26.140  20.560   6.920
 1783BOLB   C3C42787  25.770  20.550   6.970
 1783BOLB   C4C42788  25.410  20.450   7.260
 1783BOLB   C1D42789  26.680  20.360   6.860
 1783BOLB   C2D42790  26.800  20.310   7.320
 1783BOLB   C3D42791  26.670  20.450   7.770
 1783BOLB   C4D42792  26.300  20.430   8.020
 1784BOLB   NC142793  25.560  12.130   9.890
 1784BOLB   PO142794  25.740  11.770   9.550
 1784BOLB   GL142795  26.060  11.760   9.150
 1784BOLB   GL242796  26.150  12.060   8.970
 1784BOLB   C1A42797  26.270  11.530   8.720
 1784BOLB   C2A42798  26.650  11.480   8.640
 1784BOLB   C3A42799  26.880  11.160   8.520
 1784BOLB   C4A42800  26.940  11.110   8.030
 1784BOLB   C1B42801  26.460  12.080   8.640
 1784BOLB   C2B42802  26.720  11.950   8.350
 1784BOLB   C3B42803  27.050  11.600   8.270
 1784BOLB   C4B42804  27.430  11.670   8.230
 1784BOLB   NC242805  28.080  10.090   5.930
 1784BOLB   PO242806  28.050  10.390   6.180
 1784BOLB   GL342807  27.990  10.540   6.580
 1784BOLB   GL442808  28.010  10.220   6.810
 1784BOLB   C1C42809  27.760  10.960   6.750
 1784BOLB   C2C42810  27.480  11.170   6.980
 1784BOLB   C3C42811  27.210  11.310   7.290
 1784BOLB   C4C42812  26.980  11.140   7.580
 1784BOLB   C1D42813  27.780  10.450   7.050
 1784BOLB   C2D42814  27.600  10.480   7.510
 1784BOLB   C3D42815  27.840  10.720   7.840
 1784BOLB   C4D42816  28.220  10.570   8.000
 1785BOLB   NC142817  24.280   6.970  11.150
 1785BOLB   PO142818  24.150   7.060  10.770
 1785BOLB   GL142819  24.260   6.870  10.360
 1785BOLB   GL242820  24.170   7.150  10.150
 1785BOLB   C1A42821  24.660   6.830  10.150
 1785BOLB   C2A42822  24.990   6.610  10.120
 1785BOLB   C3A42823  25.400   6.530   9.900
 1785BOLB   C4A42824  25.560   6.360   9.550
 1785BOLB   C1B42825  24.380   7.100   9.790
 1785BOLB   C2B42826  24.650   6.640   9.680
 1785BOLB   C3B42827  24.920   6.290   9.700
 1785BOLB   C4B42828  24.950   6.060   9.360
 1785BOLB   NC242829  26.440   5.190   7.570
 1785BOLB   PO242830  26.520   5.590   7.840
 1785BOLB   GL342831  26.480   6.010   8.120
 1785BOLB   GL442832  26.280   6.120   8.030
 1785BOLB   C1C42833  26.610   6.100   8.410
 1785BOLB   C2C42834  26.340   6.490   8.570
 1785BOLB   C3C42835  25.890   6.500   8.830
 1785BOLB   C4C42836  25.550   6.330   9.070
 1785BOLB   C1D42837  26.100   6.490   8.050
 1785BOLB   C2D42838  25.930   6.890   7.960
 1785BOLB   C3D42839  25.530   7.090   8.020
 1785BOLB   C4D42840  25.180   7.390   7.910
 1786BOLB   NC142841  23.180  18.530   8.090
 1786BOLB   PO142842  23.060  19.020   8.080
 1786BOLB   GL142843  23.140  19.340   7.710
 1786BOLB   GL242844  23.470  19.440   7.680
 1786BOLB   C1A42845  22.970  19.360   7.250
 1786BOLB   C2A42846  22.720  19.490   6.960
 1786BOLB   C3A42847  22.590  19.940   6.720
 1786BOLB   C4A42848  22.510  19.750   6.300
 1786BOLB   C1B42849  23.420  19.610   7.290
 1786BOLB   C2B42850  23.210  19.520   6.860
 1786BOLB   C3B42851  23.030  19.770   6.470
 1786BOLB   C4B42852  23.060  19.880   6.060
 1786BOLB   NC242853  23.580  19.980   4.060
 1786BOLB   PO242854  23.640  19.720   4.290
 1786BOLB   GL342855  23.450  19.640   4.630
 1786BOLB   GL442856  23.620  19.880   4.790
 1786BOLB   C1C42857  23.410  19.510   5.030
 1786BOLB   C2C42858  23.400  19.310   5.540
 1786BOLB   C3C42859  23.040  19.390   5.770
 1786BOLB   C4C42860  22.780  19.460   6.050
 1786BOLB   C1D42861  23.520  19.900   5.290
 1786BOLB   C2D42862  23.490  19.740   5.770
 1786BOLB   C3D42863  23.400  19.490   6.050
 1786BOLB   C4D42864  23.500  19.490   6.480
 1787BOLB   NC142865  27.300  22.990  18.210
 1787BOLB   PO142866  27.360  22.950  17.800
 1787BOLB   GL142867  26.930  22.720  17.630
 1787BOLB   GL242868  26.620  22.840  17.860
 1787BOLB   C1A42869  26.840  22.260  17.560
 1787BOLB   C2A42870  27.120  22.020  17.710
 1787BOLB   C3A42871  27.510  21.870  17.570
 1787BOLB   C4A42872  27.670  21.960  17.150
 1787BOLB   C1B42873  26.490  22.530  17.760
 1787BOLB   C2B42874  26.330  22.120  17.460
 1787BOLB   C3B42875  25.990  21.850  17.510
 1787BOLB   C4B42876  25.800  21.570  17.590
 1787BOLB   NC242877  28.770  22.590  15.710
 1787BOLB   PO242878  28.690  23.020  15.920
 1787BOLB   GL342879  28.290  22.820  15.670
 1787BOLB   GL442880  27.950  22.920  15.660
 1787BOLB   C1C42881  28.080  22.400  15.740
 1787BOLB   C2C42882  28.020  22.110  15.910
 1787BOLB   C3C42883  27.990  22.000  16.400
 1787BOLB   C4C42884  27.900  21.980  16.830
 1787BOLB   C1D42885  27.570  22.810  15.420
 1787BOLB   C2D42886  27.280  22.720  15.120
 1787BOLB   C3D42887  27.170  22.500  14.800
 1787BOLB   C4D42888  26.900  22.330  14.560
 1788BOLB   NC142889  22.850   6.700  10.760
 1788BOLB   PO142890  22.530   6.690  10.440
 1788BOLB   GL142891  22.780   6.330  10.310
 1788BOLB   GL242892  22.990   6.150  10.570
 1788BOLB   C1A42893  22.760   6.020  10.030
 1788BOLB   C2A42894  22.630   5.550   9.960
 1788BOLB   C3A42895  22.710   5.200   9.810
 1788BOLB   C4A42896  22.590   4.930   9.520
 1788BOLB   C1B42897  23.290   6.030  10.270
 1788BOLB   C2B42898  23.650   5.870  10.030
 1788BOLB   C3B42899  23.950   5.910   9.760
 1788BOLB   C4B42900  23.920   5.830   9.310
 1788BOLB   NC242901  22.110   3.790   8.090
 1788BOLB   PO242902  21.920   3.930   7.740
 1788BOLB   GL342903  21.870   4.270   7.700
 1788BOLB   GL442904  21.550   4.350   7.600
 1788BOLB   C1C42905  21.880   4.530   8.050
 1788BOLB   C2C42906  22.030   4.570   8.530
 1788BOLB   C3C42907  22.270   4.610   8.790
 1788BOLB   C4C42908  22.570   4.710   9.060
 1788BOLB   C1D42909  21.320   4.580   7.900
 1788BOLB   C2D42910  21.030   4.480   8.310
 1788BOLB   C3D42911  20.660   4.710   8.370
 1788BOLB   C4D42912  20.640   5.000   8.620
 1789BOLB   NC142913  12.460  21.970   5.680
 1789BOLB   PO142914  12.870  21.780   5.560
 1789BOLB   GL142915  13.160  21.540   5.710
 1789BOLB   GL242916  13.240  21.810   5.950
 1789BOLB   C1A42917  13.230  21.220   6.030
 1789BOLB   C2A42918  13.190  20.750   6.270
 1789BOLB   C3A42919  13.250  20.440   6.690
 1789BOLB   C4A42920  13.380  19.990   6.660
 1789BOLB   C1B42921  12.980  21.560   6.300
 1789BOLB   C2B42922  13.060  21.340   6.720
 1789BOLB   C3B42923  13.270  21.030   7.070
 1789BOLB   C4B42924  13.440  20.820   7.360
 1789BOLB   NC242925  13.140  19.020   4.520
 1789BOLB   PO242926  13.130  19.260   4.790
 1789BOLB   GL342927  13.460  19.230   5.210
 1789BOLB   GL442928  13.650  19.390   5.150
 1789BOLB   C1C42929  13.620  19.190   5.650
 1789BOLB   C2C42930  13.570  19.170   6.040
 1789BOLB   C3C42931  13.650  19.220   6.480
 1789BOLB   C4C42932  13.320  19.550   6.670
 1789BOLB   C1D42933  14.040  19.220   5.360
 1789BOLB   C2D42934  14.390  18.980   5.620
 1789BOLB   C3D42935  14.430  18.650   5.960
 1789BOLB   C4D42936  14.770  18.430   6.120
 1790BOLB   NC142937  24.410   6.450  14.430
 1790BOLB   PO142938  24.410   6.250  14.000
 1790BOLB   GL142939  24.750   6.030  14.160
 1790BOLB   GL242940  24.560   5.760  13.950
 1790BOLB   C1A42941  25.120   5.870  14.080
 1790BOLB   C2A42942  25.520   5.580  14.170
 1790BOLB   C3A42943  25.750   5.240  14.340
 1790BOLB   C4A42944  26.070   5.000  14.070
 1790BOLB   C1B42945  24.860   5.390  13.960
 1790BOLB   C2B42946  24.840   4.970  14.070
 1790BOLB   C3B42947  25.230   4.750  13.980
 1790BOLB   C4B42948  25.610   4.460  14.000
 1790BOLB   NC242949  27.710   3.290  14.390
 1790BOLB   PO242950  28.050   3.430  14.210
 1790BOLB   GL342951  27.840   3.810  14.120
 1790BOLB   GL442952  27.670   3.770  14.400
 1790BOLB   C1C42953  27.440   4.000  13.920
 1790BOLB   C2C42954  27.150   4.270  14.110
 1790BOLB   C3C42955  26.810   4.490  14.320
 1790BOLB   C4C42956  26.470   4.800  14.100
 1790BOLB   C1D42957  27.330   3.930  14.440
 1790BOLB   C2D42958  26.880   4.030  14.500
 1790BOLB   C3D42959  26.500   4.130  14.540
 1790BOLB   C4D42960  26.360   4.210  14.940
 1791BOLB   NC142961  25.530   8.870  10.640
 1791BOLB   PO142962  25.880   8.760  10.970
 1791BOLB   GL142963  26.180   8.470  11.060
 1791BOLB   GL242964  26.060   8.220  10.840
 1791BOLB   C1A42965  26.540   8.450  11.020
 1791BOLB   C2A42966  26.830   8.190  10.770
 1791BOLB   C3A42967  27.100   7.900  10.570
 1791BOLB   C4A42968  27.100   7.660  10.130
 1791BOLB   C1B42969  26.360   8.170  10.390
 1791BOLB   C2B42970  26.680   8.070  10.010
 1791BOLB   C3B42971  26.600   8.210   9.530
 1791BOLB   C4B42972  26.700   8.320   9.070
 1791BOLB   NC242973  28.400   6.930   8.110
 1791BOLB   PO242974  28.480   6.750   8.540
 1791BOLB   GL342975  28.090   6.930   8.630
 1791BOLB   GL442976  27.930   7.230   8.560
 1791BOLB   C1C42977  27.600   6.930   8.760
 1791BOLB   C2C42978  27.470   7.180   8.990
 1791BOLB   C3C42979  27.440   7.420   9.410
 1791BOLB   C4C42980  27.330   7.510   9.850
 1791BOLB   C1D42981  27.540   7.520   8.570
 1791BOLB   C2D42982  27.390   7.760   8.870
 1791BOLB   C3D42983  27.140   8.010   9.050
 1791BOLB   C4D42984  26.940   7.850   9.440
 1792BOLB   NC142985  22.040   6.880  10.300
 1792BOLB   PO142986  21.610   6.680  10.410
 1792BOLB   GL142987  21.780   6.490  10.070
 1792BOLB   GL242988  22.110   6.490   9.870
 1792BOLB   C1A42989  21.820   6.100   9.760
 1792BOLB   C2A42990  22.040   5.830   9.350
 1792BOLB   C3A42991  21.730   5.890   8.910
 1792BOLB   C4A42992  21.660   5.890   8.480
 1792BOLB   C1B42993  22.340   6.200   9.740
 1792BOLB   C2B42994  22.520   5.880   9.500
 1792BOLB   C3B42995  22.440   5.510   9.310
 1792BOLB   C4B42996  22.400   5.150   9.020
 1792BOLB   NC242997  23.350   4.610   7.310
 1792BOLB   PO242998  23.050   4.550   6.950
 1792BOLB   GL342999  22.970   4.940   7.250
 1792BOLB   GL443000  23.280   5.120   7.410
 1792BOLB   C1C43001  22.530   5.190   7.280
 1792BOLB   C2C43002  22.190   5.460   7.440
 1792BOLB   C3C43003  22.000   5.750   7.670
 1792BOLB   C4C43004  21.720   5.830   8.100
 1792BOLB   C1D43005  22.970   5.500   7.490
 1792BOLB   C2D43006  22.660   5.770   7.580
 1792BOLB   C3D43007  22.390   6.070   7.850
 1792BOLB   C4D43008  22.020   6.180   8.000
 1793BOLB   NC143009  27.540  12.300  10.370
 1793BOLB   PO143010  27.710  12.310  10.710
 1793BOLB   GL143011  28.170  12.330  10.660
 1793BOLB   GL243012  28.320  12.510  10.930
 1793BOLB   C1A43013  28.490  12.160  10.500
 1793BOLB   C2A43014  28.750  11.940  10.210
 1793BOLB   C3A43015  28.940  11.790   9.830
 1793BOLB   C4A43016  28.930  11.670   9.320
 1793BOLB   C1B43017  28.400  12.690  10.470
 1793BOLB   C2B43018  28.380  13.070  10.300
 1793BOLB   C3B43019  28.750  13.290  10.140
 1793BOLB   C4B43020  29.160  13.160  10.040
 1793BOLB   NC243021  30.020  10.490   7.450
 1793BOLB   PO243022  30.010  10.930   7.380
 1793BOLB   GL343023  29.680  10.980   7.640
 1793BOLB   GL443024  29.560  10.710   7.810
 1793BOLB   C1C43025  29.510  11.200   8.020
 1793BOLB   C2C43026  29.570  11.520   8.420
 1793BOLB   C3C43027  29.430  11.780   8.630
 1793BOLB   C4C43028  29.100  11.820   8.900
 1793BOLB   C1D43029  29.400  10.330   8.030
 1793BOLB   C2D43030  29.030  10.160   8.340
 1793BOLB   C3D43031  28.740  10.170   8.660
 1793BOLB   C4D43032  28.320  10.110   8.820
 1794BOLB   NC143033  17.640   8.690   4.780
 1794BOLB   PO143034  17.490   8.240   4.920
 1794BOLB   GL143035  17.710   8.190   5.330
 1794BOLB   GL243036  17.730   8.530   5.290
 1794BOLB   C1A43037  17.770   8.120   5.800
 1794BOLB   C2A43038  17.650   8.390   6.160
 1794BOLB   C3A43039  17.620   8.810   6.360
 1794BOLB   C4A43040  17.320   9.030   6.550
 1794BOLB   C1B43041  17.980   8.680   5.670
 1794BOLB   C2B43042  18.150   9.010   5.790
 1794BOLB   C3B43043  18.480   9.210   5.820
 1794BOLB   C4B43044  18.920   9.450   5.860
 1794BOLB   NC243045  17.000   9.330   4.370
 1794BOLB   PO243046  16.660   9.610   4.410
 1794BOLB   GL343047  16.790   9.590   4.850
 1794BOLB   GL443048  17.090   9.730   4.740
 1794BOLB   C1C43049  16.850   9.810   5.260
 1794BOLB   C2C43050  16.830   9.870   5.770
 1794BOLB   C3C43051  16.770   9.390   6.030
 1794BOLB   C4C43052  17.030   9.330   6.350
 1794BOLB   C1D43053  17.280   9.660   5.040
 1794BOLB   C2D43054  17.370   9.740   5.470
 1794BOLB   C3D43055  17.690   9.820   5.750
 1794BOLB   C4D43056  18.090  10.040   5.890
 1795BOLB   NC143057  28.190  20.220   7.240
 1795BOLB   PO143058  28.510  20.130   7.580
 1795BOLB   GL143059  28.170  20.020   7.760
 1795BOLB   GL243060  28.080  20.340   7.770
 1795BOLB   C1A43061  28.160  19.900   8.200
 1795BOLB   C2A43062  28.040  19.980   8.630
 1795BOLB   C3A43063  27.950  19.790   8.970
 1795BOLB   C4A43064  27.880  19.540   9.420
 1795BOLB   C1B43065  27.700  20.060   7.720
 1795BOLB   C2B43066  27.350  19.810   7.920
 1795BOLB   C3B43067  26.960  19.740   8.160
 1795BOLB   C4B43068  26.730  19.560   8.470
 1795BOLB   NC243069  29.390  20.920   9.220
 1795BOLB   PO243070  29.420  21.170   9.690
 1795BOLB   GL343071  29.120  20.880   9.680
 1795BOLB   GL443072  28.960  21.110   9.850
 1795BOLB   C1C43073  28.920  20.440  10.000
 1795BOLB   C2C43074  28.570  20.200  10.080
 1795BOLB   C3C43075  28.370  19.800   9.990
 1795BOLB   C4C43076  28.100  19.480   9.800
 1795BOLB   C1D43077  28.900  20.950  10.210
 1795BOLB   C2D43078  29.010  20.500  10.470
 1795BOLB   C3D43079  29.390  20.210  10.650
 1795BOLB   C4D43080  29.670  19.980  10.420
 1796BOLB   NC143081  25.660  12.930   8.820
 1796BOLB   PO143082  25.980  12.960   9.150
 1796BOLB   GL143083  26.370  12.820   8.960
 1796BOLB   GL243084  26.470  12.550   8.790
 1796BOLB   C1A43085  26.760  12.880   8.610
 1796BOLB   C2A43086  27.140  12.820   8.340
 1796BOLB   C3A43087  27.230  12.640   7.950
 1796BOLB   C4A43088  27.420  12.610   7.610
 1796BOLB   C1B43089  26.670  12.470   8.310
 1796BOLB   C2B43090  26.820  12.310   7.980
 1796BOLB   C3B43091  26.930  11.920   7.910
 1796BOLB   C4B43092  27.180  11.560   7.790
 1796BOLB   NC243093  27.830  13.460   5.260
 1796BOLB   PO243094  28.060  13.770   5.390
 1796BOLB   GL343095  27.960  13.620   5.740
 1796BOLB   GL443096  27.620  13.520   5.730
 1796BOLB   C1C43097  27.890  13.320   6.190
 1796BOLB   C2C43098  27.910  13.020   6.490
 1796BOLB   C3C43099  27.740  12.740   6.790
 1796BOLB   C4C43100  27.720  12.740   7.160
 1796BOLB   C1D43101  27.360  13.690   6.070
 1796BOLB   C2D43102  26.970  13.790   6.390
 1796BOLB   C3D43103  26.410  13.990   6.450
 1796BOLB   C4D43104  26.090  13.880   6.760
 1797BOLB   NC143105  24.010  16.260   3.570
 1797BOLB   PO143106  24.290  16.570   3.590
 1797BOLB   GL143107  24.160  16.570   4.020
 1797BOLB   GL243108  24.420  16.530   4.250
 1797BOLB   C1A43109  23.850  16.630   4.460
 1797BOLB   C2A43110  23.470  16.750   4.630
 1797BOLB   C3A43111  23.000  16.730   4.640
 1797BOLB   C4A43112  22.610  16.480   4.740
 1797BOLB   C1B43113  24.320  16.380   4.630
 1797BOLB   C2B43114  24.010  16.180   4.810
 1797BOLB   C3B43115  23.720  16.010   5.060
 1797BOLB   C4B43116  23.710  15.970   5.460
 1797BOLB   NC243117  21.750  15.220   2.630
 1797BOLB   PO243118  21.450  15.370   2.990
 1797BOLB   GL343119  21.570  15.630   3.270
 1797BOLB   GL443120  21.760  15.450   3.450
 1797BOLB   C1C43121  21.650  15.820   3.760
 1797BOLB   C2C43122  21.830  15.740   4.140
 1797BOLB   C3C43123  22.140  16.000   4.360
 1797BOLB   C4C43124  22.460  16.160   4.590
 1797BOLB   C1D43125  21.610  15.270   3.730
 1797BOLB   C2D43126  21.500  15.180   4.140
 1797BOLB   C3D43127  21.920  15.270   4.380
 1797BOLB   C4D43128  22.000  15.590   4.610
 1798BOLB   NC143129  25.500   7.330  15.620
 1798BOLB   PO143130  25.660   7.200  15.990
 1798BOLB   GL143131  25.900   6.950  16.140
 1798BOLB   GL243132  25.850   6.860  16.470
 1798BOLB   C1A43133  26.190   6.550  16.150
 1798BOLB   C2A43134  26.370   6.180  16.050
 1798BOLB   C3A43135  26.770   5.910  15.730
 1798BOLB   C4A43136  27.060   5.520  15.680
 1798BOLB   C1B43137  26.240   6.800  16.620
 1798BOLB   C2B43138  26.500   6.500  16.490
 1798BOLB   C3B43139  26.640   6.060  16.500
 1798BOLB   C4B43140  26.500   5.690  16.130
 1798BOLB   NC243141  28.250   3.870  14.490
 1798BOLB   PO243142  28.020   3.550  14.720
 1798BOLB   GL343143  27.750   3.880  14.910
 1798BOLB   GL443144  27.830   4.150  14.700
 1798BOLB   C1C43145  27.600   4.310  15.040
 1798BOLB   C2C43146  27.470   4.720  15.020
 1798BOLB   C3C43147  27.280   5.050  15.010
 1798BOLB   C4C43148  27.220   5.160  15.320
 1798BOLB   C1D43149  27.430   4.480  14.540
 1798BOLB   C2D43150  27.120   4.440  14.750
 1798BOLB   C3D43151  26.790   4.430  14.890
 1798BOLB   C4D43152  26.420   4.620  14.650
 1799BOLB   NC143153  17.080   7.690  10.330
 1799BOLB   PO143154  17.470   7.570  10.570
 1799BOLB   GL143155  17.560   7.190  10.370
 1799BOLB   GL243156  17.480   6.970  10.550
 1799BOLB   C1A43157  17.450   6.930  10.020
 1799BOLB   C2A43158  17.190   6.620   9.780
 1799BOLB   C3A43159  16.850   6.440   9.630
 1799BOLB   C4A43160  16.620   6.240   9.270
 1799BOLB   C1B43161  17.150   6.600  10.300
 1799BOLB   C2B43162  16.980   6.220  10.110
 1799BOLB   C3B43163  16.750   5.930   9.740
 1799BOLB   C4B43164  16.660   5.740   9.390
 1799BOLB   NC243165  15.790   5.120   7.220
 1799BOLB   PO243166  16.090   4.750   7.370
 1799BOLB   GL343167  16.210   5.150   7.460
 1799BOLB   GL443168  16.530   5.300   7.400
 1799BOLB   C1C43169  16.180   5.340   7.900
 1799BOLB   C2C43170  16.180   5.630   8.250
 1799BOLB   C3C43171  16.340   5.780   8.570
 1799BOLB   C4C43172  16.450   5.980   8.900
 1799BOLB   C1D43173  16.630   5.080   7.710
 1799BOLB   C2D43174  16.650   5.240   8.210
 1799BOLB   C3D43175  16.780   5.410   8.560
 1799BOLB   C4D43176  16.720   5.530   8.900
 1800BOLB   NC143177  17.720   7.000  11.840
 1800BOLB   PO143178  17.620   6.730  11.500
 1800BOLB   GL143179  17.520   6.420  11.060
 1800BOLB   GL243180  17.560   6.170  11.130
 1800BOLB   C1A43181  17.450   6.230  10.650
 1800BOLB   C2A43182  17.360   6.020  10.400
 1800BOLB   C3A43183  17.260   5.640  10.290
 1800BOLB   C4A43184  17.280   5.360   9.950
 1800BOLB   C1B43185  17.590   5.740  10.840
 1800BOLB   C2B43186  17.600   5.420  10.600
 1800BOLB   C3B43187  17.600   5.090  10.310
 1800BOLB   C4B43188  17.620   4.660  10.240
 1800BOLB   NC243189  16.810   3.540   8.100
 1800BOLB   PO243190  16.580   3.530   8.510
 1800BOLB   GL343191  16.650   3.910   8.670
 1800BOLB   GL443192  16.430   4.140   8.770
 1800BOLB   C1C43193  16.910   3.990   9.050
 1800BOLB   C2C43194  17.130   4.150   9.440
 1800BOLB   C3C43195  17.330   4.480   9.680
 1800BOLB   C4C43196  17.210   4.880   9.980
 1800BOLB   C1D43197  16.680   4.500   8.940
 1800BOLB   C2D43198  16.640   4.950   9.180
 1800BOLB   C3D43199  16.480   5.300   9.500
 1800BOLB   C4D43200  16.300   5.700   9.750
 1801BOLB   NC143201  20.140  15.180   7.810
 1801BOLB   PO143202  20.120  15.090   7.290
 1801BOLB   GL143203  20.300  15.240   6.880
 1801BOLB   GL243204  20.610  15.310   6.730
 1801BOLB   C1A43205  20.200  15.270   6.420
 1801BOLB   C2A43206  20.010  15.000   6.140
 1801BOLB   C3A43207  19.800  14.880   5.670
 1801BOLB   C4A43208  19.640  14.900   5.210
 1801BOLB   C1B43209  20.940  15.450   6.400
 1801BOLB   C2B43210  21.390  15.570   6.220
 1801BOLB   C3B43211  21.790  15.750   6.010
 1801BOLB   C4B43212  21.670  15.900   5.580
 1801BOLB   NC243213  19.050  14.610   2.590
 1801BOLB   PO243214  19.390  14.670   2.870
 1801BOLB   GL343215  19.580  14.690   3.270
 1801BOLB   GL443216  19.660  14.290   3.290
 1801BOLB   C1C43217  19.650  14.820   3.630
 1801BOLB   C2C43218  19.730  14.630   4.030
 1801BOLB   C3C43219  19.860  14.650   4.400
 1801BOLB   C4C43220  19.750  14.740   4.810
 1801BOLB   C1D43221  19.420  14.420   3.650
 1801BOLB   C2D43222  19.280  14.830   3.900
 1801BOLB   C3D43223  18.980  15.040   4.080
 1801BOLB   C4D43224  18.820  15.320   4.380
 1802BOLB   NC143225  28.500  15.790  13.040
 1802BOLB   PO143226  28.170  16.050  13.270
 1802BOLB   GL143227  28.480  16.390  13.210
 1802BOLB   GL243228  28.470  16.500  12.940
 1802BOLB   C1A43229  28.920  16.500  13.080
 1802BOLB   C2A43230  29.280  16.620  12.970
 1802BOLB   C3A43231  29.640  16.540  12.780
 1802BOLB   C4A43232  30.030  16.480  12.620
 1802BOLB   C1B43233  28.860  16.420  12.610
 1802BOLB   C2B43234  29.220  16.500  12.330
 1802BOLB   C3B43235  29.640  16.660  12.300
 1802BOLB   C4B43236  29.900  16.990  12.120
 1802BOLB   NC243237  32.240  15.870  12.310
 1802BOLB   PO243238  32.070  15.570  12.030
 1802BOLB   GL343239  31.650  15.560  12.130
 1802BOLB   GL443240  31.740  15.460  12.470
 1802BOLB   C1C43241  31.380  15.720  12.260
 1802BOLB   C2C43242  31.110  16.070  12.420
 1802BOLB   C3C43243  30.770  16.230  12.460
 1802BOLB   C4C43244  30.430  16.440  12.590
 1802BOLB   C1D43245  31.370  15.270  12.640
 1802BOLB   C2D43246  31.020  15.180  12.800
 1802BOLB   C3D43247  30.890  15.120  13.190
 1802BOLB   C4D43248  30.670  14.780  13.430
 1803BOLB   NC143249  20.940   8.530   9.090
 1803BOLB   PO143250  21.060   8.540   8.750
 1803BOLB   GL143251  20.930   8.370   8.330
 1803BOLB   GL243252  20.720   8.150   8.280
 1803BOLB   C1A43253  21.070   8.170   7.900
 1803BOLB   C2A43254  21.100   7.770   7.690
 1803BOLB   C3A43255  21.340   7.510   7.840
 1803BOLB   C4A43256  21.600   7.210   7.610
 1803BOLB   C1B43257  20.850   7.800   8.120
 1803BOLB   C2B43258  20.760   7.440   7.840
 1803BOLB   C3B43259  20.950   7.220   7.610
 1803BOLB   C4B43260  21.190   6.970   7.310
 1803BOLB   NC243261  23.110   5.890   6.160
 1803BOLB   PO243262  23.020   5.570   6.480
 1803BOLB   GL343263  22.770   5.910   6.560
 1803BOLB   GL443264  22.900   6.260   6.510
 1803BOLB   C1C43265  22.400   6.080   6.800
 1803BOLB   C2C43266  22.140   6.380   7.010
 1803BOLB   C3C43267  21.900   6.400   7.400
 1803BOLB   C4C43268  21.630   6.750   7.430
 1803BOLB   C1D43269  22.800   6.290   6.890
 1803BOLB   C2D43270  22.900   6.550   7.220
 1803BOLB   C3D43271  22.980   6.740   7.600
 1803BOLB   C4D43272  23.020   7.200   7.680
 1804BOLB   NC143273  24.340  25.910  13.230
 1804BOLB   PO143274  24.460  26.010  13.630
 1804BOLB   GL143275  24.180  25.610  13.600
 1804BOLB   GL243276  24.250  25.600  13.800
 1804BOLB   C1A43277  24.100  25.290  13.440
 1804BOLB   C2A43278  24.120  24.900  13.340
 1804BOLB   C3A43279  24.430  24.500  13.260
 1804BOLB   C4A43280  24.480  24.200  13.560
 1804BOLB   C1B43281  24.610  25.310  13.690
 1804BOLB   C2B43282  25.000  25.260  13.450
 1804BOLB   C3B43283  25.000  24.950  13.600
 1804BOLB   C4B43284  25.050  24.600  13.910
 1804BOLB   NC243285  26.170  25.660  14.250
 1804BOLB   PO243286  25.680  25.610  14.550
 1804BOLB   GL343287  25.780  25.210  14.450
 1804BOLB   GL443288  25.870  25.000  14.730
 1804BOLB   C1C43289  25.800  24.780  14.290
 1804BOLB   C2C43290  25.530  24.440  14.140
 1804BOLB   C3C43291  25.130  24.130  14.080
 1804BOLB   C4C43292  24.880  24.150  13.730
 1804BOLB   C1D43293  25.470  24.720  14.650
 1804BOLB   C2D43294  25.110  24.380  14.540
 1804BOLB   C3D43295  24.810  24.060  14.440
 1804BOLB   C4D43296  24.400  24.180  14.620
 1805BOLB   NC143297  18.030  13.320   7.670
 1805BOLB   PO143298  17.610  13.280   7.690
 1805BOLB   GL143299  17.670  13.120   7.250
 1805BOLB   GL243300  17.920  13.230   7.190
 1805BOLB   C1A43301  17.760  12.880   6.780
 1805BOLB   C2A43302  17.990  12.650   6.450
 1805BOLB   C3A43303  17.840  12.420   6.070
 1805BOLB   C4A43304  17.780  12.340   5.740
 1805BOLB   C1B43305  18.140  13.180   6.870
 1805BOLB   C2B43306  18.300  13.210   6.440
 1805BOLB   C3B43307  18.560  13.150   6.060
 1805BOLB   C4B43308  18.860  12.790   5.990
 1805BOLB   NC243309  16.890  11.830   3.730
 1805BOLB   PO243310  16.790  11.420   3.810
 1805BOLB   GL343311  16.710  11.680   4.160
 1805BOLB   GL443312  16.520  11.960   4.080
 1805BOLB   C1C43313  16.950  11.680   4.530
 1805BOLB   C2C43314  17.220  11.910   4.720
 1805BOLB   C3C43315  17.220  12.110   5.080
 1805BOLB   C4C43316  17.400  12.290   5.450
 1805BOLB   C1D43317  16.300  11.890   4.510
 1805BOLB   C2D43318  16.060  11.560   4.570
 1805BOLB   C3D43319  15.990  11.370   4.880
 1805BOLB   C4D43320  15.980  11.500   5.280
 1806BOLB   NC143321  30.040  15.730   6.550
 1806BOLB   PO143322  29.650  15.720   6.750
 1806BOLB   GL143323  29.470  15.550   7.120
 1806BOLB   GL243324  29.720  15.300   7.220
 1806BOLB   C1A43325  29.260  15.370   7.430
 1806BOLB   C2A43326  28.800  15.140   7.600
 1806BOLB   C3A43327  28.390  14.990   7.610
 1806BOLB   C4A43328  27.990  15.140   7.660
 1806BOLB   C1B43329  29.590  15.050   7.600
 1806BOLB   C2B43330  29.240  15.070   7.870
 1806BOLB   C3B43331  28.750  15.010   8.070
 1806BOLB   C4B43332  28.340  14.920   8.060
 1806BOLB   NC243333  29.050  15.870   5.590
 1806BOLB   PO243334  28.610  15.710   5.870
 1806BOLB   GL343335  28.290  15.720   6.090
 1806BOLB   GL443336  28.320  15.470   6.350
 1806BOLB   C1C43337  28.190  15.930   6.520
 1806BOLB   C2C43338  27.950  15.940   6.810
 1806BOLB   C3C43339  27.650  15.790   7.100
 1806BOLB   C4C43340  27.740  15.470   7.490
 1806BOLB   C1D43341  28.080  15.180   6.720
 1806BOLB   C2D43342  27.750  14.750   6.700
 1806BOLB   C3D43343  27.580  14.570   7.030
 1806BOLB   C4D43344  27.380  14.500   7.490
 1807BOLB   NC143345  22.700  12.260   8.610
 1807BOLB   PO143346  22.710  12.370   8.090
 1807BOLB   GL143347  23.000  12.190   7.760
 1807BOLB   GL243348  22.740  12.000   7.660
 1807BOLB   C1A43349  23.120  12.280   7.280
 1807BOLB   C2A43350  23.320  12.300   6.860
 1807BOLB   C3A43351  23.490  12.450   6.440
 1807BOLB   C4A43352  23.570  12.630   6.030
 1807BOLB   C1B43353  22.670  12.160   7.230
 1807BOLB   C2B43354  22.930  11.970   6.840
 1807BOLB   C3B43355  23.070  12.090   6.500
 1807BOLB   C4B43356  23.030  12.290   6.170
 1807BOLB   NC243357  23.780  12.150   3.860
 1807BOLB   PO243358  23.420  12.400   3.740
 1807BOLB   GL343359  23.230  12.360   4.130
 1807BOLB   GL443360  23.000  12.130   4.150
 1807BOLB   C1C43361  23.130  12.400   4.590
 1807BOLB   C2C43362  23.060  12.720   4.990
 1807BOLB   C3C43363  23.270  12.870   5.360
 1807BOLB   C4C43364  23.330  12.740   5.800
 1807BOLB   C1D43365  22.710  12.150   4.470
 1807BOLB   C2D43366  22.750  12.330   4.940
 1807BOLB   C3D43367  22.990  12.140   5.380
 1807BOLB   C4D43368  23.290  12.220   5.750
 1808BOLB   NC143369  30.480  18.100   9.250
 1808BOLB   PO143370  30.890  18.160   9.420
 1808BOLB   GL143371  30.610  17.770   9.620
 1808BOLB   GL243372  30.290  17.690   9.660
 1808BOLB   C1A43373  30.430  17.290   9.820
 1808BOLB   C2A43374  30.090  16.980   9.980
 1808BOLB   C3A43375  29.780  16.750  10.270
 1808BOLB   C4A43376  29.430  16.730  10.550
 1808BOLB   C1B43377  30.000  17.570   9.560
 1808BOLB   C2B43378  29.650  17.330   9.560
 1808BOLB   C3B43379  29.230  17.070   9.580
 1808BOLB   C4B43380  28.820  16.960   9.510
 1808BOLB   NC243381  31.420  16.890  10.690
 1808BOLB   PO243382  31.310  16.530  10.400
 1808BOLB   GL343383  31.060  16.510  10.840
 1808BOLB   GL443384  30.780  16.590  10.550
 1808BOLB   C1C43385  30.680  16.420  11.140
 1808BOLB   C2C43386  30.340  16.190  11.230
 1808BOLB   C3C43387  29.860  16.300  11.150
 1808BOLB   C4C43388  29.530  16.390  10.850
 1808BOLB   C1D43389  30.480  16.730  10.820
 1808BOLB   C2D43390  30.200  16.700  11.270
 1808BOLB   C3D43391  29.980  16.850  11.610
 1808BOLB   C4D43392  29.630  16.670  11.760
 1809BOLB   NC143393  11.820   9.660  13.590
 1809BOLB   PO143394  11.960   9.580  13.110
 1809BOLB   GL143395  11.600   9.440  12.840
 1809BOLB   GL243396  11.350   9.560  12.640
 1809BOLB   C1A43397  11.420   9.080  12.620
 1809BOLB   C2A43398  11.130   8.920  12.410
 1809BOLB   C3A43399  10.980   8.830  11.980
 1809BOLB   C4A43400  11.070   8.360  11.890
 1809BOLB   C1B43401  10.980   9.360  12.550
 1809BOLB   C2B43402  10.700   9.010  12.720
 1809BOLB   C3B43403  10.520   8.710  12.770
 1809BOLB   C4B43404  10.470   8.340  12.960
 1809BOLB   NC243405   9.380   7.520  10.050
 1809BOLB   PO243406   9.750   7.430  10.060
 1809BOLB   GL343407   9.810   7.770  10.130
 1809BOLB   GL443408   9.590   8.020  10.260
 1809BOLB   C1C43409  10.090   8.060  10.420
 1809BOLB   C2C43410  10.470   8.190  10.670
 1809BOLB   C3C43411  10.630   8.090  11.130
 1809BOLB   C4C43412  10.860   8.090  11.570
 1809BOLB   C1D43413   9.670   8.420  10.450
 1809BOLB   C2D43414  10.030   8.540  10.680
 1809BOLB   C3D43415  10.380   8.630  10.910
 1809BOLB   C4D43416  10.740   8.560  11.040
 1810BOLB   NC143417  23.440  13.270   8.340
 1810BOLB   PO143418  23.620  13.020   7.950
 1810BOLB   GL143419  23.770  13.040   7.560
 1810BOLB   GL243420  23.770  13.070   7.230
 1810BOLB   C1A43421  24.270  12.960   7.310
 1810BOLB   C2A43422  24.550  13.120   6.990
 1810BOLB   C3A43423  24.550  12.970   6.600
 1810BOLB   C4A43424  24.920  12.830   6.280
 1810BOLB   C1B43425  24.010  13.300   7.060
 1810BOLB   C2B43426  24.150  13.300   6.620
 1810BOLB   C3B43427  24.220  13.440   6.290
 1810BOLB   C4B43428  24.590  13.220   6.180
 1810BOLB   NC243429  26.490  13.200   4.180
 1810BOLB   PO243430  26.750  13.150   4.630
 1810BOLB   GL343431  26.480  12.990   4.850
 1810BOLB   GL443432  26.480  13.220   5.160
 1810BOLB   C1C43433  26.080  12.970   5.070
 1810BOLB   C2C43434  25.830  13.050   5.350
 1810BOLB   C3C43435  25.460  12.870   5.720
 1810BOLB   C4C43436  25.210  12.940   6.070
 1810BOLB   C1D43437  26.630  13.410   5.530
 1810BOLB   C2D43438  26.820  13.470   6.030
 1810BOLB   C3D43439  26.500  13.430   6.330
 1810BOLB   C4D43440  26.160  13.440   6.540
 1811BOLB   NC143441  26.430  11.370  10.210
 1811BOLB   PO143442  26.610  11.320   9.820
 1811BOLB   GL143443  26.880  11.090   9.560
 1811BOLB   GL243444  26.670  10.880   9.290
 1811BOLB   C1A43445  27.300  10.960   9.540
 1811BOLB   C2A43446  27.510  10.720   9.380
 1811BOLB   C3A43447  27.600  10.720   8.970
 1811BOLB   C4A43448  27.840  10.890   8.690
 1811BOLB   C1B43449  27.000  10.820   9.010
 1811BOLB   C2B43450  27.210  10.860   8.680
 1811BOLB   C3B43451  27.430  11.100   8.380
 1811BOLB   C4B43452  27.460  11.100   7.950
 1811BOLB   NC243453  29.560  11.140   7.150
 1811BOLB   PO243454  29.360  11.210   6.720
 1811BOLB   GL343455  29.000  11.350   7.130
 1811BOLB   GL443456  29.190  11.400   7.460
 1811BOLB   C1C43457  28.730  11.120   7.320
 1811BOLB   C2C43458  28.250  11.180   7.550
 1811BOLB   C3C43459  28.080  11.130   7.920
 1811BOLB   C4C43460  27.870  10.900   8.280
 1811BOLB   C1D43461  29.180  10.920   7.600
 1811BOLB   C2D43462  29.060  10.830   8.020
 1811BOLB   C3D43463  29.040  11.210   8.370
 1811BOLB   C4D43464  28.750  11.290   8.650
 1812BOLB   NC143465  22.890  21.410  10.690
 1812BOLB   PO143466  23.100  21.760  10.860
 1812BOLB   GL143467  23.260  22.190  10.970
 1812BOLB   GL243468  23.560  22.270  11.060
 1812BOLB   C1A43469  23.480  22.630  10.690
 1812BOLB   C2A43470  23.670  23.090  10.760
 1812BOLB   C3A43471  23.760  23.370  10.650
 1812BOLB   C4A43472  23.690  23.680  10.340
 1812BOLB   C1B43473  23.860  22.750  11.030
 1812BOLB   C2B43474  24.120  23.120  10.930
 1812BOLB   C3B43475  24.520  23.260  10.960
 1812BOLB   C4B43476  24.960  23.270  10.960
 1812BOLB   NC243477  23.820  25.980   9.380
 1812BOLB   PO243478  23.510  25.810   9.050
 1812BOLB   GL343479  23.500  25.390   9.170
 1812BOLB   GL443480  23.500  25.080   8.880
 1812BOLB   C1C43481  23.410  25.130   9.530
 1812BOLB   C2C43482  23.760  24.790   9.700
 1812BOLB   C3C43483  23.800  24.380   9.900
 1812BOLB   C4C43484  23.860  23.990  10.050
 1812BOLB   C1D43485  23.250  24.820   9.120
 1812BOLB   C2D43486  22.970  24.450   9.350
 1812BOLB   C3D43487  22.570  24.250   9.400
 1812BOLB   C4D43488  22.230  24.290   9.610
 1813BOLB   NC143489  27.920  19.840   6.150
 1813BOLB   PO143490  27.620  19.440   6.080
 1813BOLB   GL143491  27.330  19.560   6.320
 1813BOLB   GL243492  27.250  19.300   6.390
 1813BOLB   C1A43493  27.190  19.620   6.740
 1813BOLB   C2A43494  26.940  19.310   7.130
 1813BOLB   C3A43495  27.090  19.050   7.300
 1813BOLB   C4A43496  27.050  18.860   7.580
 1813BOLB   C1B43497  27.110  18.920   6.270
 1813BOLB   C2B43498  26.890  18.570   6.410
 1813BOLB   C3B43499  26.710  18.420   6.630
 1813BOLB   C4B43500  26.450  17.990   6.640
 1813BOLB   NC243501  29.610  18.860   8.100
 1813BOLB   PO243502  29.160  18.870   7.920
 1813BOLB   GL343503  28.750  18.930   8.150
 1813BOLB   GL443504  28.780  18.670   8.270
 1813BOLB   C1C43505  28.340  19.200   8.170
 1813BOLB   C2C43506  27.860  19.090   8.260
 1813BOLB   C3C43507  27.600  18.780   8.240
 1813BOLB   C4C43508  27.210  18.670   7.900
 1813BOLB   C1D43509  28.290  18.710   8.120
 1813BOLB   C2D43510  28.000  18.800   7.850
 1813BOLB   C3D43511  28.050  19.240   7.710
 1813BOLB   C4D43512  27.910  19.610   7.910
 1814BOLB   NC143513  20.870  15.630   7.510
 1814BOLB   PO143514  20.620  15.680   7.110
 1814BOLB   GL143515  20.640  15.810   6.640
 1814BOLB   GL243516  20.730  16.130   6.520
 1814BOLB   C1A43517  20.490  15.710   6.190
 1814BOLB   C2A43518  20.620  15.600   5.800
 1814BOLB   C3A43519  20.400  15.670   5.320
 1814BOLB   C4A43520  20.490  15.850   4.850
 1814BOLB   C1B43521  21.010  15.880   6.220
 1814BOLB   C2B43522  21.160  15.710   5.810
 1814BOLB   C3B43523  21.410  15.440   5.630
 1814BOLB   C4B43524  21.620  15.260   5.320
 1814BOLB   NC243525  19.210  16.510   2.710
 1814BOLB   PO243526  19.800  16.480   2.590
 1814BOLB   GL343527  19.680  16.470   3.030
 1814BOLB   GL443528  19.390  16.640   3.120
 1814BOLB   C1C43529  19.780  16.460   3.460
 1814BOLB   C2C43530  19.860  16.140   3.920
 1814BOLB   C3C43531  20.170  15.920   4.060
 1814BOLB   C4C43532  20.310  15.830   4.380
 1814BOLB   C1D43533  19.200  16.750   3.610
 1814BOLB   C2D43534  19.370  16.550   3.960
 1814BOLB   C3D43535  19.190  16.330   4.400
 1814BOLB   C4D43536  19.230  16.510   4.800
 1815BOLB   NC143537  25.720   8.370  10.500
 1815BOLB   PO143538  25.560   8.640  10.210
 1815BOLB   GL143539  25.830   8.620   9.920
 1815BOLB   GL243540  26.050   8.580  10.060
 1815BOLB   C1A43541  25.960   8.260   9.650
 1815BOLB   C2A43542  26.220   7.990   9.850
 1815BOLB   C3A43543  26.490   7.640   9.750
 1815BOLB   C4A43544  26.860   7.400   9.560
 1815BOLB   C1B43545  26.440   8.480   9.920
 1815BOLB   C2B43546  26.880   8.550   9.790
 1815BOLB   C3B43547  27.390   8.530   9.740
 1815BOLB   C4B43548  27.620   8.220  10.010
 1815BOLB   NC243549  26.530   6.650   7.140
 1815BOLB   PO243550  26.970   6.580   7.290
 1815BOLB   GL343551  26.800   6.850   7.540
 1815BOLB   GL443552  26.600   7.180   7.410
 1815BOLB   C1C43553  27.120   6.930   7.950
 1815BOLB   C2C43554  27.290   7.190   8.270
 1815BOLB   C3C43555  27.090   7.220   8.650
 1815BOLB   C4C43556  26.970   7.370   9.040
 1815BOLB   C1D43557  26.410   7.180   7.800
 1815BOLB   C2D43558  26.090   7.370   8.080
 1815BOLB   C3D43559  25.810   7.560   7.970
 1815BOLB   C4D43560  25.380   7.840   8.040
 1816BOLB   NC143561  24.220   4.930   7.220
 1816BOLB   PO143562  24.630   4.790   7.340
 1816BOLB   GL143563  24.430   4.990   7.730
 1816BOLB   GL243564  24.580   5.220   7.940
 1816BOLB   C1A43565  24.090   5.030   7.980
 1816BOLB   C2A43566  23.570   5.140   7.910
 1816BOLB   C3A43567  23.210   5.350   7.940
 1816BOLB   C4A43568  23.020   5.520   8.190
 1816BOLB   C1B43569  24.380   5.240   8.300
 1816BOLB   C2B43570  24.320   5.220   8.810
 1816BOLB   C3B43571  24.290   5.510   9.150
 1816BOLB   C4B43572  24.460   5.810   9.290
 1816BOLB   NC243573  22.840   4.110   7.150
 1816BOLB   PO243574  22.350   4.210   7.170
 1816BOLB   GL343575  22.400   4.400   7.620
 1816BOLB   GL443576  22.390   4.090   7.750
 1816BOLB   C1C43577  22.610   4.780   7.730
 1816BOLB   C2C43578  22.770   5.130   7.710
 1816BOLB   C3C43579  22.420   5.490   7.880
 1816BOLB   C4C43580  22.600   5.710   8.230
 1816BOLB   C1D43581  22.420   4.500   8.090
 1816BOLB   C2D43582  22.170   4.930   8.150
 1816BOLB   C3D43583  21.990   5.360   8.060
 1816BOLB   C4D43584  22.110   5.710   8.350
 1817BOLB   NC143585  14.210  15.290   8.260
 1817BOLB   PO143586  13.920  14.980   8.090
 1817BOLB   GL143587  14.190  15.010   7.800
 1817BOLB   GL243588  14.440  14.820   7.720
 1817BOLB   C1A43589  14.210  15.230   7.420
 1817BOLB   C2A43590  14.040  15.060   7.020
 1817BOLB   C3A43591  13.850  14.910   6.520
 1817BOLB   C4A43592  13.720  14.660   6.230
 1817BOLB   C1B43593  14.290  14.680   7.350
 1817BOLB   C2B43594  14.010  14.550   7.120
 1817BOLB   C3B43595  13.810  14.480   6.840
 1817BOLB   C4B43596  14.030  14.320   6.460
 1817BOLB   NC243597  12.510  14.770   4.190
 1817BOLB   PO243598  12.680  15.230   4.120
 1817BOLB   GL343599  12.680  15.280   4.630
 1817BOLB   GL443600  12.630  15.610   4.810
 1817BOLB   C1C43601  12.840  15.230   4.970
 1817BOLB   C2C43602  13.260  15.190   5.170
 1817BOLB   C3C43603  13.490  14.920   5.490
 1817BOLB   C4C43604  13.700  14.740   5.830
 1817BOLB   C1D43605  12.710  15.680   5.220
 1817BOLB   C2D43606  12.710  15.850   5.760
 1817BOLB   C3D43607  12.660  16.350   5.850
 1817BOLB   C4D43608  12.220  16.550   5.920
 1818BOLB   NC143609  22.660  20.760   3.970
 1818BOLB   PO143610  22.410  20.700   4.140
 1818BOLB   GL143611  22.690  20.580   4.570
 1818BOLB   GL243612  22.780  20.180   4.550
 1818BOLB   C1A43613  22.830  20.410   5.010
 1818BOLB   C2A43614  22.730  20.160   5.340
 1818BOLB   C3A43615  22.840  20.280   5.780
 1818BOLB   C4A43616  22.880  20.490   6.100
 1818BOLB   C1B43617  22.600  19.970   4.890
 1818BOLB   C2B43618  22.580  19.610   5.250
 1818BOLB   C3B43619  22.490  19.170   5.170
 1818BOLB   C4B43620  22.350  18.760   5.280
 1818BOLB   NC243621  24.800  22.110   5.780
 1818BOLB   PO243622  24.760  21.690   5.810
 1818BOLB   GL343623  24.320  21.490   5.850
 1818BOLB   GL443624  24.330  21.110   5.670
 1818BOLB   C1C43625  23.900  21.630   5.890
 1818BOLB   C2C43626  23.500  21.520   5.980
 1818BOLB   C3C43627  23.090  21.280   6.250
 1818BOLB   C4C43628  22.980  20.870   6.230
 1818BOLB   C1D43629  24.040  20.810   5.560
 1818BOLB   C2D43630  23.610  20.610   5.630
 1818BOLB   C3D43631  23.350  20.320   5.910
 1818BOLB   C4D43632  23.460  19.980   6.270
 1819BOLB   NC143633  15.670   5.530  14.560
 1819BOLB   PO143634  15.470   5.110  14.660
 1819BOLB   GL143635  15.710   4.670  14.620
 1819BOLB   GL243636  15.520   4.570  14.360
 1819BOLB   C1A43637  16.070   4.580  14.580
 1819BOLB   C2A43638  16.310   4.260  14.530
 1819BOLB   C3A43639  16.530   4.050  14.800
 1819BOLB   C4A43640  16.720   3.780  14.780
 1819BOLB   C1B43641  15.100   4.290  14.220
 1819BOLB   C2B43642  14.740   4.120  14.470
 1819BOLB   C3B43643  14.530   4.200  14.660
 1819BOLB   C4B43644  14.240   4.060  14.930
 1819BOLB   NC243645  15.700   1.600  14.590
 1819BOLB   PO243646  15.960   1.470  14.380
 1819BOLB   GL343647  16.220   1.750  14.610
 1819BOLB   GL443648  16.400   1.710  14.840
 1819BOLB   C1C43649  16.470   2.160  14.630
 1819BOLB   C2C43650  16.550   2.620  14.780
 1819BOLB   C3C43651  16.610   3.020  14.940
 1819BOLB   C4C43652  16.710   3.430  14.740
 1819BOLB   C1D43653  16.110   2.010  15.010
 1819BOLB   C2D43654  16.160   2.400  15.070
 1819BOLB   C3D43655  16.050   2.660  14.830
 1819BOLB   C4D43656  15.800   2.970  14.650
 1820BOLB   NC143657  25.800  14.340   9.360
 1820BOLB   PO143658  26.130  14.460   9.220
 1820BOLB   GL143659  26.420  14.510   9.070
 1820BOLB   GL243660  26.600  14.380   9.280
 1820BOLB   C1A43661  26.510  14.450   8.640
 1820BOLB   C2A43662  26.630  14.500   8.230
 1820BOLB   C3A43663  26.720  14.460   7.830
 1820BOLB   C4A43664  26.860  14.440   7.420
 1820BOLB   C1B43665  26.900  14.450   8.950
 1820BOLB   C2B43666  27.240  14.800   8.610
 1820BOLB   C3B43667  27.580  14.870   8.330
 1820BOLB   C4B43668  27.830  15.160   8.200
 1820BOLB   NC243669  27.820  14.310   4.690
 1820BOLB   PO243670  27.450  14.360   5.080
 1820BOLB   GL343671  27.350  14.420   5.480
 1820BOLB   GL443672  27.590  14.620   5.720
 1820BOLB   C1C43673  27.360  14.150   5.810
 1820BOLB   C2C43674  27.240  14.180   6.300
 1820BOLB   C3C43675  27.220  14.390   6.670
 1820BOLB   C4C43676  27.130  14.310   7.120
 1820BOLB   C1D43677  27.130  14.830   5.780
 1820BOLB   C2D43678  26.930  15.160   5.710
 1820BOLB   C3D43679  26.980  15.660   5.640
 1820BOLB   C4D43680  27.130  16.050   5.620
 1821BOLB   NC143681  26.280   9.970  10.230
 1821BOLB   PO143682  26.200  10.080   9.810
 1821BOLB   GL143683  26.360  10.120   9.410
 1821BOLB   GL243684  26.260  10.210   9.170
 1821BOLB   C1A43685  26.730  10.000   9.220
 1821BOLB   C2A43686  27.100  10.000   8.940
 1821BOLB   C3A43687  27.230  10.290   8.610
 1821BOLB   C4A43688  27.500  10.530   8.310
 1821BOLB   C1B43689  26.610  10.070   8.770
 1821BOLB   C2B43690  26.800   9.840   8.540
 1821BOLB   C3B43691  27.200   9.740   8.290
 1821BOLB   C4B43692  27.320   9.650   7.880
 1821BOLB   NC243693  29.380   9.310   7.730
 1821BOLB   PO243694  29.560   9.630   7.540
 1821BOLB   GL343695  29.130   9.800   7.690
 1821BOLB   GL443696  29.100   9.820   8.000
 1821BOLB   C1C43697  28.710   9.950   7.550
 1821BOLB   C2C43698  28.420  10.140   7.850
 1821BOLB   C3C43699  28.290  10.170   8.260
 1821BOLB   C4C43700  27.900  10.390   8.380
 1821BOLB   C1D43701  28.730   9.680   8.120
 1821BOLB   C2D43702  28.400   9.680   8.380
 1821BOLB   C3D43703  28.050   9.730   8.570
 1821BOLB   C4D43704  27.710   9.920   8.510
 1822BOLB   NC143705  26.610   8.460  14.340
 1822BOLB   PO143706  26.460   8.530  14.830
 1822BOLB   GL143707  26.850   8.130  14.790
 1822BOLB   GL243708  26.840   7.870  14.630
 1822BOLB   C1A43709  27.280   8.050  14.510
 1822BOLB   C2A43710  27.530   7.620  14.540
 1822BOLB   C3A43711  27.850   7.250  14.580
 1822BOLB   C4A43712  28.330   7.230  14.720
 1822BOLB   C1B43713  26.890   7.510  14.270
 1822BOLB   C2B43714  27.280   7.260  14.340
 1822BOLB   C3B43715  27.420   6.880  14.040
 1822BOLB   C4B43716  27.810   6.560  14.160
 1822BOLB   NC243717  31.200   6.360  15.010
 1822BOLB   PO243718  30.720   6.360  14.950
 1822BOLB   GL343719  30.360   6.620  14.810
 1822BOLB   GL443720  30.160   6.480  14.940
 1822BOLB   C1C43721  30.140   6.950  14.760
 1822BOLB   C2C43722  29.710   7.050  14.900
 1822BOLB   C3C43723  29.270   7.210  14.950
 1822BOLB   C4C43724  28.900   7.340  14.790
 1822BOLB   C1D43725  29.780   6.560  14.950
 1822BOLB   C2D43726  29.370   6.680  15.040
 1822BOLB   C3D43727  28.980   6.650  14.880
 1822BOLB   C4D43728  28.640   6.820  14.560
 1823DOPG   GL043729  13.840   8.110   5.330
 1823DOPG   PO443730  13.830   8.510   5.530
 1823DOPG   GL143731  13.770   8.930   5.620
 1823DOPG   GL243732  13.510   9.130   5.870
 1823DOPG   C1A43733  14.170   9.270   5.520
 1823DOPG   D2A43734  14.590   9.420   5.420
 1823DOPG   C3A43735  14.880   9.140   5.540
 1823DOPG   C4A43736  15.330   9.140   5.580
 1823DOPG   C1B43737  13.560   9.350   6.280
 1823DOPG   D2B43738  13.550   9.500   6.670
 1823DOPG   C3B43739  13.780   9.610   6.890
 1823DOPG   C4B43740  14.020   9.830   6.970
 1824DOPG   GL043741  16.790  20.580  17.720
 1824DOPG   PO443742  16.660  20.630  18.050
 1824DOPG   GL143743  16.570  21.100  18.130
 1824DOPG   GL243744  16.310  21.190  18.370
 1824DOPG   C1A43745  16.830  21.330  18.450
 1824DOPG   D2A43746  17.130  21.380  18.730
 1824DOPG   C3A43747  16.860  21.650  19.030
 1824DOPG   C4A43748  16.530  21.890  19.180
 1824DOPG   C1B43749  16.280  21.520  18.730
 1824DOPG   D2B43750  16.150  21.550  19.120
 1824DOPG   C3B43751  15.650  21.680  19.240
 1824DOPG   C4B43752  15.150  21.610  19.130
 1825DOPG   GL043753   8.330   9.520   9.310
 1825DOPG   PO443754   8.500   9.910   9.520
 1825DOPG   GL143755   8.940   9.980   9.520
 1825DOPG   GL243756   8.890   9.960   9.880
 1825DOPG   C1A43757   9.320  10.190   9.470
 1825DOPG   D2A43758   9.650  10.440   9.180
 1825DOPG   C3A43759   9.660  10.740   8.890
 1825DOPG   C4A43760   9.950  11.010   8.800
 1825DOPG   C1B43761   9.240   9.950  10.140
 1825DOPG   D2B43762   9.470  10.130  10.490
 1825DOPG   C3B43763   9.340   9.830  10.790
 1825DOPG   C4B43764   9.630   9.530  10.880
 1826DOPG   GL043765  12.010   6.040  21.070
 1826DOPG   PO443766  12.080   5.740  20.840
 1826DOPG   GL143767  12.330   6.180  20.700
 1826DOPG   GL243768  12.330   6.370  20.880
 1826DOPG   C1A43769  12.530   6.500  20.400
 1826DOPG   D2A43770  12.620   6.380  19.990
 1826DOPG   C3A43771  12.250   6.370  19.850
 1826DOPG   C4A43772  11.940   6.580  19.750
 1826DOPG   C1B43773  12.710   6.640  20.920
 1826DOPG   D2B43774  12.780   7.050  20.640
 1826DOPG   C3B43775  12.640   7.010  20.260
 1826DOPG   C4B43776  12.900   6.910  19.910
 1827DOPG   GL043777  29.520  12.160  21.590
 1827DOPG   PO443778  29.190  12.420  21.640
 1827DOPG   GL143779  28.960  12.780  21.620
 1827DOPG   GL243780  28.870  12.730  21.270
 1827DOPG   C1A43781  28.670  13.130  21.560
 1827DOPG   D2A43782  28.470  13.500  21.440
 1827DOPG   C3A43783  28.030  13.570  21.420
 1827DOPG   C4A43784  27.530  13.390  21.480
 1827DOPG   C1B43785  28.860  12.900  20.830
 1827DOPG   D2B43786  28.740  13.270  20.550
 1827DOPG   C3B43787  28.380  13.550  20.510
 1827DOPG   C4B43788  28.040  13.790  20.350
 1828DOPG   GL043789  13.960  22.910  20.660
 1828DOPG   PO443790  14.400  22.940  20.800
 1828DOPG   GL143791  14.590  22.800  20.380
 1828DOPG   GL243792  14.950  22.910  20.220
 1828DOPG   C1A43793  14.300  22.560  20.170
 1828DOPG   D2A43794  14.280  22.160  19.850
 1828DOPG   C3A43795  14.560  22.100  19.550
 1828DOPG   C4A43796  14.780  21.580  19.560
 1828DOPG   C1B43797  15.310  23.000  20.010
 1828DOPG   D2B43798  15.540  22.710  19.690
 1828DOPG   C3B43799  15.600  22.490  19.270
 1828DOPG   C4B43800  15.870  22.460  18.990
 1829DOPG   GL043801   6.880  15.250  18.160
 1829DOPG   PO443802   7.230  15.010  18.340
 1829DOPG   GL143803   7.670  15.150  18.300
 1829DOPG   GL243804   7.710  15.330  18.580
 1829DOPG   C1A43805   8.000  15.190  17.840
 1829DOPG   D2A43806   8.120  15.560  17.600
 1829DOPG   C3A43807   8.340  15.880  17.640
 1829DOPG   C4A43808   8.700  15.890  17.410
 1829DOPG   C1B43809   8.090  15.410  18.410
 1829DOPG   D2B43810   8.550  15.700  18.410
 1829DOPG   C3B43811   8.590  16.180  18.360
 1829DOPG   C4B43812   8.620  16.550  18.120
 1830DOPG   GL043813  18.980  21.520  23.010
 1830DOPG   PO443814  18.880  21.220  22.670
 1830DOPG   GL143815  19.090  21.110  22.230
 1830DOPG   GL243816  19.440  21.320  22.100
 1830DOPG   C1A43817  19.180  20.870  21.920
 1830DOPG   D2A43818  18.920  20.620  21.630
 1830DOPG   C3A43819  19.010  20.580  21.200
 1830DOPG   C4A43820  19.240  20.640  20.830
 1830DOPG   C1B43821  19.210  21.380  21.760
 1830DOPG   D2B43822  19.110  21.480  21.300
 1830DOPG   C3B43823  19.000  21.100  21.100
 1830DOPG   C4B43824  18.750  20.740  20.750
 1831DOPG   GL043825  11.980   4.650   9.410
 1831DOPG   PO443826  12.200   4.480   9.790
 1831DOPG   GL143827  12.480   4.750  10.090
 1831DOPG   GL243828  12.320   5.070  10.260
 1831DOPG   C1A43829  12.730   4.840  10.400
 1831DOPG   D2A43830  12.590   5.120  10.710
 1831DOPG   C3A43831  12.950   5.230  10.970
 1831DOPG   C4A43832  13.040   5.310  11.250
 1831DOPG   C1B43833  12.570   5.310  10.250
 1831DOPG   D2B43834  12.810   5.550  10.500
 1831DOPG   C3B43835  12.760   5.730  11.010
 1831DOPG   C4B43836  12.780   6.190  11.090
 1832DOPG   GL043837   6.710  19.350  12.690
 1832DOPG   PO443838   7.090  19.380  12.930
 1832DOPG   GL143839   7.380  19.150  12.820
 1832DOPG   GL243840   7.420  18.850  13.010
 1832DOPG   C1A43841   7.800  19.000  12.600
 1832DOPG   D2A43842   8.090  18.630  12.470
 1832DOPG   C3A43843   8.420  18.510  12.160
 1832DOPG   C4A43844   8.640  18.040  12.160
 1832DOPG   C1B43845   7.530  18.510  13.250
 1832DOPG   D2B43846   7.580  18.240  13.600
 1832DOPG   C3B43847   8.000  18.370  13.720
 1832DOPG   C4B43848   8.380  18.410  13.700
 1833DOPG   GL043849   8.920  18.400  20.120
 1833DOPG   PO443850   9.070  18.360  19.700
 1833DOPG   GL143851   9.210  18.120  19.210
 1833DOPG   GL243852   9.110  17.920  19.240
 1833DOPG   C1A43853   9.610  17.870  18.990
 1833DOPG   D2A43854   9.950  17.840  18.710
 1833DOPG   C3A43855  10.000  17.570  18.390
 1833DOPG   C4A43856   9.840  17.160  18.360
 1833DOPG   C1B43857   9.270  17.630  18.860
 1833DOPG   D2B43858   9.500  17.680  18.520
 1833DOPG   C3B43859   9.490  18.050  18.320
 1833DOPG   C4B43860   9.030  18.240  18.140
 1834DOPG   GL043861  24.320  15.150  20.030
 1834DOPG   PO443862  24.060  15.520  19.910
 1834DOPG   GL143863  24.140  15.530  20.330
 1834DOPG   GL243864  23.940  15.410  20.420
 1834DOPG   C1A43865  24.480  15.590  20.680
 1834DOPG   D2A43866  24.750  15.770  21.020
 1834DOPG   C3A43867  25.080  15.860  21.140
 1834DOPG   C4A43868  25.420  15.920  21.420
 1834DOPG   C1B43869  24.040  15.530  20.900
 1834DOPG   D2B43870  24.380  15.460  21.180
 1834DOPG   C3B43871  24.530  15.150  21.210
 1834DOPG   C4B43872  24.380  14.840  21.400
 1835DOPG   GL043873  15.670  21.490   3.970
 1835DOPG   PO443874  15.720  21.500   4.450
 1835DOPG   GL143875  15.910  21.550   4.880
 1835DOPG   GL243876  15.740  21.340   5.140
 1835DOPG   C1A43877  15.950  21.750   5.180
 1835DOPG   D2A43878  16.090  21.900   5.580
 1835DOPG   C3A43879  16.210  21.580   5.850
 1835DOPG   C4A43880  16.250  21.200   6.110
 1835DOPG   C1B43881  15.860  21.360   5.580
 1835DOPG   D2B43882  15.580  21.530   5.940
 1835DOPG   C3B43883  15.680  21.930   5.810
 1835DOPG   C4B43884  15.280  22.280   6.030
 1836DOPG   GL043885  20.400  21.170   3.530
 1836DOPG   PO443886  20.370  20.820   3.880
 1836DOPG   GL143887  20.210  20.950   4.190
 1836DOPG   GL243888  19.920  21.030   4.170
 1836DOPG   C1A43889  20.090  20.670   4.550
 1836DOPG   D2A43890  20.320  20.350   4.730
 1836DOPG   C3A43891  20.160  20.180   5.130
 1836DOPG   C4A43892  20.380  20.060   5.480
 1836DOPG   C1B43893  19.950  21.120   4.630
 1836DOPG   D2B43894  19.950  21.440   4.990
 1836DOPG   C3B43895  19.930  21.370   5.370
 1836DOPG   C4B43896  19.990  21.130   5.770
 1837DOPG   GL043897  26.060   2.360  16.730
 1837DOPG   PO443898  25.900   2.290  17.070
 1837DOPG   GL143899  25.580   2.570  16.940
 1837DOPG   GL243900  25.800   2.890  16.760
 1837DOPG   C1A43901  25.410   3.080  17.020
 1837DOPG   D2A43902  25.130   3.290  16.710
 1837DOPG   C3A43903  24.740   3.270  17.020
 1837DOPG   C4A43904  24.710   3.220  17.380
 1837DOPG   C1B43905  25.750   3.290  16.560
 1837DOPG   D2B43906  25.470   3.650  16.690
 1837DOPG   C3B43907  25.460   4.070  16.680
 1837DOPG   C4B43908  25.380   4.440  16.570
 1838DOPG   GL043909   6.590  15.810  17.040
 1838DOPG   PO443910   6.590  15.480  16.780
 1838DOPG   GL143911   6.980  15.380  16.850
 1838DOPG   GL243912   7.020  15.030  16.980
 1838DOPG   C1A43913   7.230  15.560  16.750
 1838DOPG   D2A43914   7.640  15.470  16.820
 1838DOPG   C3A43915   7.850  15.740  17.240
 1838DOPG   C4A43916   7.910  16.090  17.380
 1838DOPG   C1B43917   7.420  15.020  16.680
 1838DOPG   D2B43918   7.760  14.760  16.550
 1838DOPG   C3B43919   8.210  14.620  16.780
 1838DOPG   C4B43920   8.630  14.620  16.910
 1839DOPG   GL043921   6.410  14.410  11.570
 1839DOPG   PO443922   6.500  14.270  11.210
 1839DOPG   GL143923   6.740  14.670  11.210
 1839DOPG   GL243924   6.760  14.740  11.510
 1839DOPG   C1A43925   7.120  14.980  11.050
 1839DOPG   D2A43926   7.450  15.070  10.750
 1839DOPG   C3A43927   7.430  15.100  10.300
 1839DOPG   C4A43928   7.710  15.030  10.010
 1839DOPG   C1B43929   7.070  14.910  11.680
 1839DOPG   D2B43930   7.240  14.850  12.000
 1839DOPG   C3B43931   7.600  14.700  11.690
 1839DOPG   C4B43932   7.750  14.300  11.570
 1840DOPG   GL043933  14.340  17.160   3.590
 1840DOPG   PO443934  14.310  16.790   3.840
 1840DOPG   GL143935  14.220  17.090   4.160
 1840DOPG   GL243936  14.220  17.430   4.120
 1840DOPG   C1A43937  14.520  17.200   4.450
 1840DOPG   D2A43938  14.940  17.110   4.430
 1840DOPG   C3A43939  15.170  16.890   4.770
 1840DOPG   C4A43940  15.370  16.750   5.160
 1840DOPG   C1B43941  14.120  17.580   4.420
 1840DOPG   D2B43942  13.830  17.590   4.800
 1840DOPG   C3B43943  13.850  17.540   5.260
 1840DOPG   C4B43944  13.860  17.870   5.580
 1841DOPG   GL043945  17.870   5.330  13.730
 1841DOPG   PO443946  17.630   4.980  13.820
 1841DOPG   GL143947  17.810   4.570  13.610
 1841DOPG   GL243948  17.700   4.530  13.290
 1841DOPG   C1A43949  17.940   4.140  13.650
 1841DOPG   D2A43950  17.750   3.820  13.420
 1841DOPG   C3A43951  17.540   3.480  13.640
 1841DOPG   C4A43952  17.440   2.950  13.640
 1841DOPG   C1B43953  17.460   4.190  13.540
 1841DOPG   D2B43954  17.360   3.960  13.930
 1841DOPG   C3B43955  16.920   3.760  13.830
 1841DOPG   C4B43956  16.640   3.430  13.760
 1842DOPG   GL043957   7.840  13.780   8.300
 1842DOPG   PO443958   7.820  14.160   8.590
 1842DOPG   GL143959   8.240  14.020   8.590
 1842DOPG   GL243960   8.570  14.250   8.530
 1842DOPG   C1A43961   8.480  13.750   8.980
 1842DOPG   D2A43962   8.450  13.370   9.340
 1842DOPG   C3A43963   8.380  13.650   9.600
 1842DOPG   C4A43964   8.250  14.070   9.580
 1842DOPG   C1B43965   8.890  14.270   8.850
 1842DOPG   D2B43966   9.200  14.200   9.150
 1842DOPG   C3B43967   9.200  13.950   9.510
 1842DOPG   C4B43968   9.000  13.670   9.770
 1843DOPG   GL043969  16.330  19.010   8.630
 1843DOPG   PO443970  16.040  19.140   8.480
 1843DOPG   GL143971  16.150  19.430   7.930
 1843DOPG   GL243972  15.810  19.630   7.910
 1843DOPG   C1A43973  16.130  19.610   7.530
 1843DOPG   D2A43974  16.060  19.880   7.090
 1843DOPG   C3A43975  15.710  19.970   6.820
 1843DOPG   C4A43976  15.330  20.280   6.950
 1843DOPG   C1B43977  15.780  20.010   7.480
 1843DOPG   D2B43978  15.740  20.370   7.410
 1843DOPG   C3B43979  15.960  20.400   7.010
 1843DOPG   C4B43980  16.290  20.680   6.900
 1844DOPG   GL043981  11.970  18.260   4.520
 1844DOPG   PO443982  12.360  18.330   4.710
 1844DOPG   GL143983  12.530  18.610   5.070
 1844DOPG   GL243984  12.600  18.910   5.220
 1844DOPG   C1A43985  12.710  18.470   5.470
 1844DOPG   D2A43986  12.950  18.610   5.780
 1844DOPG   C3A43987  13.380  18.750   5.760
 1844DOPG   C4A43988  13.630  18.750   6.210
 1844DOPG   C1B43989  12.890  19.140   5.480
 1844DOPG   D2B43990  13.170  19.240   5.750
 1844DOPG   C3B43991  13.080  19.000   6.050
 1844DOPG   C4B43992  13.220  18.970   6.410
 1845DOPG   GL043993  25.600  22.500  21.680
 1845DOPG   PO443994  25.670  22.150  21.260
 1845DOPG   GL143995  25.420  22.040  20.990
 1845DOPG   GL243996  25.040  21.960  21.050
 1845DOPG   C1A43997  25.360  21.630  20.630
 1845DOPG   D2A43998  25.180  21.360  20.330
 1845DOPG   C3A43999  24.860  21.150  20.170
 1845DOPG   C4A44000  24.460  20.990  20.090
 1845DOPG   C1B44001  25.000  21.980  20.620
 1845DOPG   D2B44002  24.860  21.930  20.270
 1845DOPG   C3B44003  24.580  21.600  20.030
 1845DOPG   C4B44004  24.380  21.540  19.610
 1846DOPG   GL044005  12.900   4.270   9.080
 1846DOPG   PO444006  12.560   4.610   9.170
 1846DOPG   GL144007  13.030   4.770   9.200
 1846DOPG   GL244008  13.160   4.540   9.500
 1846DOPG   C1A44009  13.500   4.900   9.320
 1846DOPG   D2A44010  13.700   5.140   9.590
 1846DOPG   C3A44011  13.980   5.550   9.630
 1846DOPG   C4A44012  14.260   5.720  10.010
 1846DOPG   C1B44013  13.400   4.760   9.890
 1846DOPG   D2B44014  13.610   5.080  10.060
 1846DOPG   C3B44015  13.810   5.270  10.440
 1846DOPG   C4B44016  14.160   5.500  10.510
 1847DOPG   GL044017  31.950  19.520  12.640
 1847DOPG   PO444018  31.500  19.530  12.740
 1847DOPG   GL144019  31.170  19.530  13.000
 1847DOPG   GL244020  31.240  19.320  13.270
 1847DOPG   C1A44021  30.830  19.260  12.940
 1847DOPG   D2A44022  30.520  18.980  13.020
 1847DOPG   C3A44023  30.140  18.690  12.940
 1847DOPG   C4A44024  29.790  18.500  12.610
 1847DOPG   C1B44025  31.030  18.920  13.240
 1847DOPG   D2B44026  30.740  18.580  13.500
 1847DOPG   C3B44027  30.290  18.320  13.330
 1847DOPG   C4B44028  29.910  18.190  13.110
 1848DOPG   GL044029  10.280  24.400  14.870
 1848DOPG   PO444030  10.290  24.120  15.070
 1848DOPG   GL144031  10.360  23.630  15.270
 1848DOPG   GL244032  10.410  23.300  15.090
 1848DOPG   C1A44033  10.740  23.440  15.370
 1848DOPG   D2A44034  11.130  23.390  15.260
 1848DOPG   C3A44035  11.140  23.680  15.000
 1848DOPG   C4A44036  11.280  23.900  14.650
 1848DOPG   C1B44037  10.600  22.980  15.460
 1848DOPG   D2B44038  11.040  22.900  15.350
 1848DOPG   C3B44039  11.320  22.540  15.340
 1848DOPG   C4B44040  11.640  22.240  15.200
 1849DOPG   GL044041  22.510  27.680  13.690
 1849DOPG   PO444042  22.240  27.370  13.710
 1849DOPG   GL144043  22.290  27.110  13.500
 1849DOPG   GL244044  22.140  27.190  13.260
 1849DOPG   C1A44045  22.140  26.770  13.510
 1849DOPG   D2A44046  21.910  26.520  13.270
 1849DOPG   C3A44047  21.900  25.970  13.470
 1849DOPG   C4A44048  22.190  25.570  13.650
 1849DOPG   C1B44049  22.020  26.950  12.990
 1849DOPG   D2B44050  21.900  26.720  12.710
 1849DOPG   C3B44051  21.760  26.310  12.920
 1849DOPG   C4B44052  21.730  25.950  13.030
 1850DOPG   GL044053   8.320   7.920  15.220
 1850DOPG   PO444054   8.000   8.140  15.290
 1850DOPG   GL144055   8.200   8.540  15.330
 1850DOPG   GL244056   8.440   8.530  15.090
 1850DOPG   C1A44057   8.500   8.720  15.560
 1850DOPG   D2A44058   8.540   9.180  15.700
 1850DOPG   C3A44059   8.590   9.620  15.810
 1850DOPG   C4A44060   8.720   9.850  16.160
 1850DOPG   C1B44061   8.740   8.190  14.820
 1850DOPG   D2B44062   9.160   8.180  14.840
 1850DOPG   C3B44063   9.390   8.490  15.010
 1850DOPG   C4B44064   9.460   8.770  15.330
 1851DOPG   GL044065  15.140  14.520   3.230
 1851DOPG   PO444066  14.930  14.400   3.710
 1851DOPG   GL144067  15.350  14.530   3.710
 1851DOPG   GL244068  15.260  14.900   3.620
 1851DOPG   C1A44069  15.510  14.580   4.040
 1851DOPG   D2A44070  15.520  14.520   4.500
 1851DOPG   C3A44071  15.230  14.460   4.870
 1851DOPG   C4A44072  15.050  14.230   5.170
 1851DOPG   C1B44073  14.930  14.990   3.950
 1851DOPG   D2B44074  14.870  15.350   4.110
 1851DOPG   C3B44075  15.020  15.280   4.610
 1851DOPG   C4B44076  14.750  15.330   4.950
 1852DOPG   GL044077  24.960  25.330  17.580
 1852DOPG   PO444078  24.680  25.020  17.740
 1852DOPG   GL144079  24.460  24.830  17.360
 1852DOPG   GL244080  24.140  25.010  17.290
 1852DOPG   C1A44081  24.440  24.850  16.870
 1852DOPG   D2A44082  24.300  24.850  16.470
 1852DOPG   C3A44083  24.070  24.530  16.520
 1852DOPG   C4A44084  23.750  24.440  16.830
 1852DOPG   C1B44085  23.750  24.820  17.410
 1852DOPG   D2B44086  23.760  24.440  17.340
 1852DOPG   C3B44087  23.510  24.090  17.170
 1852DOPG   C4B44088  23.230  23.750  17.140
 1853DOPG   GL044089  20.600  20.210  18.180
 1853DOPG   PO444090  20.350  20.090  17.740
 1853DOPG   GL144091  20.120  19.980  17.450
 1853DOPG   GL244092  19.910  19.750  17.580
 1853DOPG   C1A44093  20.280  19.720  17.080
 1853DOPG   D2A44094  20.640  19.430  17.020
 1853DOPG   C3A44095  20.810  19.680  16.690
 1853DOPG   C4A44096  20.790  19.690  16.230
 1853DOPG   C1B44097  19.980  19.400  17.420
 1853DOPG   D2B44098  19.910  18.990  17.220
 1853DOPG   C3B44099  19.610  18.740  17.130
 1853DOPG   C4B44100  19.340  18.590  16.700
 1854DOPG   GL044101  19.190   6.980  23.760
 1854DOPG   PO444102  19.420   7.260  24.080
 1854DOPG   GL144103  19.570   7.330  23.610
 1854DOPG   GL244104  19.540   7.570  23.430
 1854DOPG   C1A44105  19.850   7.400  23.180
 1854DOPG   D2A44106  19.870   7.690  22.920
 1854DOPG   C3A44107  19.490   7.820  22.660
 1854DOPG   C4A44108  19.060   7.690  22.730
 1854DOPG   C1B44109  19.140   7.760  23.210
 1854DOPG   D2B44110  18.680   7.750  23.030
 1854DOPG   C3B44111  18.510   7.850  22.650
 1854DOPG   C4B44112  18.190   7.750  22.290
 1855DOPG   GL044113  16.620  14.750   3.490
 1855DOPG   PO444114  16.750  14.340   3.540
 1855DOPG   GL144115  16.940  14.470   3.810
 1855DOPG   GL244116  17.260  14.300   3.760
 1855DOPG   C1A44117  16.980  14.630   4.230
 1855DOPG   D2A44118  16.870  14.770   4.530
 1855DOPG   C3A44119  17.130  15.130   4.730
 1855DOPG   C4A44120  17.450  15.460   4.940
 1855DOPG   C1B44121  17.430  14.650   4.020
 1855DOPG   D2B44122  17.850  14.780   4.120
 1855DOPG   C3B44123  17.850  14.590   4.450
 1855DOPG   C4B44124  17.840  14.380   4.780
 1856DOPG   GL044125  28.420  21.300  19.070
 1856DOPG   PO444126  28.440  21.050  18.640
 1856DOPG   GL144127  28.070  21.010  18.530
 1856DOPG   GL244128  28.040  20.720  18.470
 1856DOPG   C1A44129  27.560  21.010  18.570
 1856DOPG   D2A44130  27.130  20.910  18.820
 1856DOPG   C3A44131  26.780  20.900  18.640
 1856DOPG   C4A44132  26.260  20.800  18.520
 1856DOPG   C1B44133  27.770  20.760  18.160
 1856DOPG   D2B44134  27.530  20.450  17.980
 1856DOPG   C3B44135  27.420  20.170  17.710
 1856DOPG   C4B44136  27.210  20.310  17.240
 1857DOPG   GL044137  18.050  27.750  15.990
 1857DOPG   PO444138  17.800  27.340  16.240
 1857DOPG   GL144139  17.860  26.930  15.920
 1857DOPG   GL244140  17.840  26.940  15.590
 1857DOPG   C1A44141  17.990  26.590  15.900
 1857DOPG   D2A44142  18.390  26.370  15.720
 1857DOPG   C3A44143  18.390  26.340  15.260
 1857DOPG   C4A44144  18.410  26.120  14.880
 1857DOPG   C1B44145  17.830  26.590  15.390
 1857DOPG   D2B44146  17.890  26.170  15.560
 1857DOPG   C3B44147  18.170  25.860  15.370
 1857DOPG   C4B44148  18.320  25.650  15.100
 1858DOPG   GL044149  18.490  19.410   3.190
 1858DOPG   PO444150  18.750  19.600   3.530
 1858DOPG   GL144151  18.990  19.560   3.830
 1858DOPG   GL244152  19.380  19.610   3.850
 1858DOPG   C1A44153  19.130  19.530   4.290
 1858DOPG   D2A44154  19.330  19.370   4.570
 1858DOPG   C3A44155  19.600  19.670   4.850
 1858DOPG   C4A44156  19.590  20.010   5.140
 1858DOPG   C1B44157  19.520  19.260   4.090
 1858DOPG   D2B44158  19.360  18.880   4.230
 1858DOPG   C3B44159  19.250  18.860   4.620
 1858DOPG   C4B44160  19.020  18.710   5.000
 1859DOPG   GL044161  10.090  23.950  12.240
 1859DOPG   PO444162  10.060  23.870  12.580
 1859DOPG   GL144163  10.290  23.630  12.530
 1859DOPG   GL244164  10.170  23.440  12.330
 1859DOPG   C1A44165  10.600  23.440  12.530
 1859DOPG   D2A44166  11.090  23.470  12.570
 1859DOPG   C3A44167  11.240  23.120  12.380
 1859DOPG   C4A44168  11.590  22.950  12.500
 1859DOPG   C1B44169  10.060  22.990  12.330
 1859DOPG   D2B44170   9.890  22.730  12.540
 1859DOPG   C3B44171   9.860  22.810  12.960
 1859DOPG   C4B44172  10.090  23.120  13.200
 1860DOPG   GL044173   6.240  13.430  17.200
 1860DOPG   PO444174   6.430  13.640  16.770
 1860DOPG   GL144175   6.760  13.890  16.490
 1860DOPG   GL244176   6.910  13.790  16.190
 1860DOPG   C1A44177   6.870  14.300  16.310
 1860DOPG   D2A44178   6.880  14.650  16.120
 1860DOPG   C3A44179   7.120  14.880  15.730
 1860DOPG   C4A44180   7.510  14.900  15.410
 1860DOPG   C1B44181   7.140  13.930  15.950
 1860DOPG   D2B44182   7.540  14.000  15.860
 1860DOPG   C3B44183   7.810  13.710  16.050
 1860DOPG   C4B44184   8.110  13.680  16.450
 1861DOPG   GL044185  23.670  11.180  19.030
 1861DOPG   PO444186  23.800  11.560  18.950
 1861DOPG   GL144187  23.590  11.710  18.550
 1861DOPG   GL244188  23.310  11.900  18.440
 1861DOPG   C1A44189  23.690  11.680  18.110
 1861DOPG   D2A44190  23.960  11.870  17.690
 1861DOPG   C3A44191  23.600  12.130  17.470
 1861DOPG   C4A44192  23.470  12.280  17.060
 1861DOPG   C1B44193  23.600  12.180  18.300
 1861DOPG   D2B44194  23.920  12.250  18.090
 1861DOPG   C3B44195  23.870  12.530  17.770
 1861DOPG   C4B44196  23.740  12.990  17.620
 1862DOPG   GL044197  22.050  21.240  15.730
 1862DOPG   PO444198  21.700  21.300  15.720
 1862DOPG   GL144199  21.590  21.030  15.440
 1862DOPG   GL244200  21.670  20.700  15.350
 1862DOPG   C1A44201  21.140  20.870  15.180
 1862DOPG   D2A44202  21.230  20.500  15.210
 1862DOPG   C3A44203  21.070  20.210  15.060
 1862DOPG   C4A44204  20.930  19.750  14.860
 1862DOPG   C1B44205  21.660  20.640  15.000
 1862DOPG   D2B44206  21.800  20.230  14.840
 1862DOPG   C3B44207  21.490  20.120  14.550
 1862DOPG   C4B44208  20.900  20.170  14.580
 1863DOPG   GL044209  19.800   7.150  19.330
 1863DOPG   PO444210  20.070   7.360  19.600
 1863DOPG   GL144211  20.020   7.090  20.050
 1863DOPG   GL244212  20.230   6.830  20.040
 1863DOPG   C1A44213  20.030   6.970  20.520
 1863DOPG   D2A44214  19.820   6.890  20.930
 1863DOPG   C3A44215  19.870   6.670  21.340
 1863DOPG   C4A44216  20.040   6.410  21.540
 1863DOPG   C1B44217  20.170   6.500  20.290
 1863DOPG   D2B44218  20.210   6.270  20.620
 1863DOPG   C3B44219  20.510   6.260  20.810
 1863DOPG   C4B44220  20.900   6.600  20.780
 1864DOPG   GL044221  22.270   7.660   9.810
 1864DOPG   PO444222  22.410   7.350  10.100
 1864DOPG   GL144223  22.610   6.900   9.940
 1864DOPG   GL244224  22.880   6.880  10.030
 1864DOPG   C1A44225  22.760   6.490   9.810
 1864DOPG   D2A44226  22.970   6.150   9.610
 1864DOPG   C3A44227  22.940   5.680   9.610
 1864DOPG   C4A44228  22.990   5.290   9.430
 1864DOPG   C1B44229  22.990   6.810   9.530
 1864DOPG   D2B44230  23.110   6.570   9.200
 1864DOPG   C3B44231  23.500   6.640   9.110
 1864DOPG   C4B44232  23.700   6.590   8.800
 1865DOPG   GL044233  14.750  21.120   4.610
 1865DOPG   PO444234  14.850  21.160   5.030
 1865DOPG   GL144235  15.290  20.960   5.170
 1865DOPG   GL244236  15.480  20.720   4.930
 1865DOPG   C1A44237  15.680  20.910   5.370
 1865DOPG   D2A44238  15.780  20.630   5.730
 1865DOPG   C3A44239  15.430  20.400   5.920
 1865DOPG   C4A44240  14.990  20.240   5.780
 1865DOPG   C1B44241  15.900  20.560   5.170
 1865DOPG   D2B44242  16.190  20.350   5.530
 1865DOPG   C3B44243  16.570  20.160   5.750
 1865DOPG   C4B44244  16.920  19.980   5.820
 1866DOPG   GL044245  20.440  13.690  19.150
 1866DOPG   PO444246  20.450  13.240  19.100
 1866DOPG   GL144247  20.420  13.270  18.700
 1866DOPG   GL244248  20.270  13.580  18.520
 1866DOPG   C1A44249  20.740  13.170  18.480
 1866DOPG   D2A44250  20.970  13.230  18.140
 1866DOPG   C3A44251  20.880  13.190  17.730
 1866DOPG   C4A44252  21.150  13.290  17.380
 1866DOPG   C1B44253  19.850  13.600  18.390
 1866DOPG   D2B44254  19.580  13.540  18.040
 1866DOPG   C3B44255  19.500  13.970  17.700
 1866DOPG   C4B44256  19.230  14.400  17.850
 1867DOPG   GL044257   9.130   6.770  10.680
 1867DOPG   PO444258   9.410   6.760  11.100
 1867DOPG   GL144259   9.670   7.180  11.280
 1867DOPG   GL244260   9.720   7.430  10.970
 1867DOPG   C1A44261   9.550   7.630  11.470
 1867DOPG   D2A44262   9.950   8.000  11.610
 1867DOPG   C3A44263  10.100   8.220  12.100
 1867DOPG   C4A44264  10.320   8.440  12.440
 1867DOPG   C1B44265  10.070   7.700  11.210
 1867DOPG   D2B44266  10.410   7.760  11.430
 1867DOPG   C3B44267  10.520   7.350  11.610
 1867DOPG   C4B44268  10.700   7.140  11.970
 1868DOPG   GL044269   6.290  13.920  17.670
 1868DOPG   PO444270   6.440  14.330  17.350
 1868DOPG   GL144271   6.900  14.150  17.280
 1868DOPG   GL244272   7.100  14.250  17.430
 1868DOPG   C1A44273   7.090  14.270  16.890
 1868DOPG   D2A44274   7.150  14.530  16.650
 1868DOPG   C3A44275   7.320  14.540  16.410
 1868DOPG   C4A44276   7.270  14.380  15.970
 1868DOPG   C1B44277   7.490  14.230  17.270
 1868DOPG   D2B44278   7.740  13.920  17.030
 1868DOPG   C3B44279   8.150  13.760  16.950
 1868DOPG   C4B44280   8.520  13.650  16.870
 1869DOPG   GL044281  12.550  15.150  15.750
 1869DOPG   PO444282  12.650  15.470  15.990
 1869DOPG   GL144283  13.030  15.720  15.800
 1869DOPG   GL244284  13.190  15.820  15.960
 1869DOPG   C1A44285  13.330  15.680  15.440
 1869DOPG   D2A44286  13.740  15.640  15.280
 1869DOPG   C3A44287  13.980  15.990  15.450
 1869DOPG   C4A44288  13.850  16.350  15.430
 1869DOPG   C1B44289  13.610  15.660  15.800
 1869DOPG   D2B44290  14.080  15.670  15.770
 1869DOPG   C3B44291  14.230  15.590  15.420
 1869DOPG   C4B44292  14.310  15.610  14.970
 1870DOPG   GL044293  22.570  20.560  16.560
 1870DOPG   PO444294  23.020  20.640  16.440
 1870DOPG   GL144295  23.030  20.260  16.380
 1870DOPG   GL244296  22.860  20.150  16.100
 1870DOPG   C1A44297  22.920  19.810  16.470
 1870DOPG   D2A44298  22.930  19.400  16.280
 1870DOPG   C3A44299  23.280  19.160  16.320
 1870DOPG   C4A44300  23.430  18.960  16.630
 1870DOPG   C1B44301  22.420  20.140  16.350
 1870DOPG   D2B44302  22.030  20.110  16.150
 1870DOPG   C3B44303  21.850  20.070  15.940
 1870DOPG   C4B44304  21.750  19.840  15.590
 1871DOPG   GL044305  10.530  17.110  21.350
 1871DOPG   PO444306  10.570  16.630  21.410
 1871DOPG   GL144307  10.580  16.670  20.950
 1871DOPG   GL244308  10.820  16.490  20.990
 1871DOPG   C1A44309  10.760  16.940  20.650
 1871DOPG   D2A44310  11.100  17.190  20.640
 1871DOPG   C3A44311  11.500  17.280  20.350
 1871DOPG   C4A44312  11.870  17.260  20.030
 1871DOPG   C1B44313  11.090  16.460  20.680
 1871DOPG   D2B44314  11.360  16.320  20.220
 1871DOPG   C3B44315  11.380  16.560  19.810
 1871DOPG   C4B44316  11.290  16.650  19.370
 1872DOPG   GL044317  11.480  19.370  20.860
 1872DOPG   PO444318  11.520  19.780  21.100
 1872DOPG   GL144319  11.870  19.760  20.820
 1872DOPG   GL244320  11.930  20.060  20.760
 1872DOPG   C1A44321  12.030  19.630  20.500
 1872DOPG   D2A44322  12.330  19.620  20.230
 1872DOPG   C3A44323  12.450  19.180  20.010
 1872DOPG   C4A44324  12.590  18.770  19.880
 1872DOPG   C1B44325  12.200  20.110  20.420
 1872DOPG   D2B44326  12.670  20.130  20.380
 1872DOPG   C3B44327  12.840  20.100  19.980
 1872DOPG   C4B44328  12.940  20.180  19.530
 1873DOPG   GL044329  22.330   1.180  18.660
 1873DOPG   PO444330  22.150   1.630  18.590
 1873DOPG   GL144331  22.000   1.900  18.240
 1873DOPG   GL244332  21.750   1.890  18.110
 1873DOPG   C1A44333  22.150   2.250  17.950
 1873DOPG   D2A44334  21.980   2.480  17.720
 1873DOPG   C3A44335  21.820   2.860  17.650
 1873DOPG   C4A44336  21.790   3.310  17.450
 1873DOPG   C1B44337  21.410   1.950  17.760
 1873DOPG   D2B44338  21.140   2.100  17.300
 1873DOPG   C3B44339  21.020   2.600  17.190
 1873DOPG   C4B44340  21.160   2.870  16.870
 1874DOPG   GL044341  15.550   9.960  14.600
 1874DOPG   PO444342  15.500  10.210  14.900
 1874DOPG   GL144343  15.640  10.570  15.140
 1874DOPG   GL244344  15.420  10.850  15.100
 1874DOPG   C1A44345  15.680  10.690  15.570
 1874DOPG   D2A44346  15.580  11.130  15.800
 1874DOPG   C3A44347  15.410  11.370  15.490
 1874DOPG   C4A44348  15.310  11.380  15.090
 1874DOPG   C1B44349  15.850  11.000  15.070
 1874DOPG   D2B44350  16.000  11.290  14.970
 1874DOPG   C3B44351  16.160  11.230  14.700
 1874DOPG   C4B44352  16.360  11.390  14.370
 1875DOPG   GL044353  20.190  18.940  18.440
 1875DOPG   PO444354  20.350  18.990  18.180
 1875DOPG   GL144355  20.180  18.750  17.910
 1875DOPG   GL244356  20.010  18.380  18.000
 1875DOPG   C1A44357  19.800  18.670  17.620
 1875DOPG   D2A44358  19.460  18.340  17.500
 1875DOPG   C3A44359  19.330  18.240  17.030
 1875DOPG   C4A44360  19.370  18.060  16.640
 1875DOPG   C1B44361  19.910  18.060  17.590
 1875DOPG   D2B44362  19.850  17.600  17.600
 1875DOPG   C3B44363  20.250  17.360  17.560
 1875DOPG   C4B44364  20.600  17.220  17.370
 1876DOPG   GL044365  11.220  11.180  15.880
 1876DOPG   PO444366  10.990  10.830  15.900
 1876DOPG   GL144367  10.780  10.770  16.320
 1876DOPG   GL244368  10.500  10.810  16.140
 1876DOPG   C1A44369  10.670  10.600  16.700
 1876DOPG   D2A44370  10.270  10.350  16.870
 1876DOPG   C3A44371   9.850  10.220  17.200
 1876DOPG   C4A44372   9.470  10.090  17.420
 1876DOPG   C1B44373  10.180  10.450  16.320
 1876DOPG   D2B44374  10.050  10.100  16.470
 1876DOPG   C3B44375   9.720  10.130  16.690
 1876DOPG   C4B44376   9.350   9.900  17.000
 1877DOPG   GL044377  17.680   0.790  17.100
 1877DOPG   PO444378  17.850   1.030  16.710
 1877DOPG   GL144379  17.840   1.410  16.600
 1877DOPG   GL244380  17.710   1.680  16.670
 1877DOPG   C1A44381  17.900   1.690  16.240
 1877DOPG   D2A44382  17.890   1.990  15.980
 1877DOPG   C3A44383  17.930   2.380  16.010
 1877DOPG   C4A44384  17.770   2.680  16.320
 1877DOPG   C1B44385  17.820   2.150  16.460
 1877DOPG   D2B44386  18.230   2.290  16.350
 1877DOPG   C3B44387  18.250   2.680  16.260
 1877DOPG   C4B44388  18.600   2.980  16.140
 1878DOPG   GL044389  24.700  19.110  10.770
 1878DOPG   PO444390  24.550  19.360  10.910
 1878DOPG   GL144391  24.330  19.120  11.180
 1878DOPG   GL244392  24.230  18.780  11.160
 1878DOPG   C1A44393  24.310  19.000  11.610
 1878DOPG   D2A44394  24.200  18.480  11.730
 1878DOPG   C3A44395  24.270  18.180  11.330
 1878DOPG   C4A44396  24.170  17.940  10.990
 1878DOPG   C1B44397  23.830  18.520  11.350
 1878DOPG   D2B44398  23.780  18.020  11.490
 1878DOPG   C3B44399  23.520  17.720  11.660
 1878DOPG   C4B44400  23.390  17.600  11.940
 1879DOPG   GL044401  16.140  25.370  18.390
 1879DOPG   PO444402  15.990  25.630  18.100
 1879DOPG   GL144403  15.840  25.370  17.910
 1879DOPG   GL244404  15.570  25.470  17.690
 1879DOPG   C1A44405  15.420  25.080  17.980
 1879DOPG   D2A44406  15.320  24.710  17.890
 1879DOPG   C3A44407  15.280  24.480  17.510
 1879DOPG   C4A44408  15.190  24.070  17.240
 1879DOPG   C1B44409  15.640  25.030  17.560
 1879DOPG   D2B44410  15.760  24.750  17.250
 1879DOPG   C3B44411  16.040  24.370  17.290
 1879DOPG   C4B44412  16.200  24.280  16.930
 1880DOPG   GL044413  17.240  21.330   9.950
 1880DOPG   PO444414  17.470  21.160   9.750
 1880DOPG   GL144415  17.590  20.740   9.890
 1880DOPG   GL244416  17.750  20.620   9.740
 1880DOPG   C1A44417  17.480  20.510  10.280
 1880DOPG   D2A44418  17.240  20.350  10.670
 1880DOPG   C3A44419  17.470  20.140  10.910
 1880DOPG   C4A44420  17.800  19.860  11.050
 1880DOPG   C1B44421  17.980  20.390  10.180
 1880DOPG   D2B44422  17.830  20.320  10.620
 1880DOPG   C3B44423  18.190  19.960  10.790
 1880DOPG   C4B44424  18.380  20.030  11.170
 1881DOPG   GL044425  21.540   0.980  14.430
 1881DOPG   PO444426  21.830   1.050  14.720
 1881DOPG   GL144427  21.940   1.490  14.480
 1881DOPG   GL244428  22.090   1.790  14.570
 1881DOPG   C1A44429  21.840   1.710  14.100
 1881DOPG   D2A44430  21.870   2.100  13.880
 1881DOPG   C3A44431  21.670   2.490  13.940
 1881DOPG   C4A44432  21.370   2.740  13.890
 1881DOPG   C1B44433  21.840   2.120  14.390
 1881DOPG   D2B44434  21.540   2.350  14.460
 1881DOPG   C3B44435  21.720   2.720  14.600
 1881DOPG   C4B44436  21.530   3.150  14.710
 1882DOPG   GL044437  11.760  20.860   5.540
 1882DOPG   PO444438  12.270  20.730   5.600
 1882DOPG   GL144439  12.510  20.520   5.960
 1882DOPG   GL244440  12.720  20.600   5.840
 1882DOPG   C1A44441  12.710  20.410   6.290
 1882DOPG   D2A44442  13.050  20.110   6.270
 1882DOPG   C3A44443  13.190  19.850   5.870
 1882DOPG   C4A44444  12.920  19.660   5.590
 1882DOPG   C1B44445  13.160  20.400   5.860
 1882DOPG   D2B44446  13.560  20.190   6.070
 1882DOPG   C3B44447  13.580  20.520   6.370
 1882DOPG   C4B44448  13.450  20.900   6.650
 1883DOPG   GL044449  11.990  10.830  22.650
 1883DOPG   PO444450  11.600  11.010  22.340
 1883DOPG   GL144451  11.870  10.880  21.980
 1883DOPG   GL244452  11.980  11.160  21.740
 1883DOPG   C1A44453  11.950  10.550  21.700
 1883DOPG   D2A44454  12.340  10.350  21.480
 1883DOPG   C3A44455  12.760  10.430  21.200
 1883DOPG   C4A44456  13.030  10.290  20.950
 1883DOPG   C1B44457  12.260  10.930  21.500
 1883DOPG   D2B44458  12.280  11.020  21.020
 1883DOPG   C3B44459  12.560  11.330  20.850
 1883DOPG   C4B44460  12.590  11.530  20.520
 1884DOPG   GL044461  15.360  14.440   8.190
 1884DOPG   PO444462  15.500  14.350   8.630
 1884DOPG   GL144463  15.560  14.470   8.970
 1884DOPG   GL244464  15.620  14.880   9.010
 1884DOPG   C1A44465  15.200  14.790   9.280
 1884DOPG   D2A44466  14.760  14.800   9.470
 1884DOPG   C3A44467  14.530  14.990   9.810
 1884DOPG   C4A44468  14.400  15.390   9.950
 1884DOPG   C1B44469  15.830  15.020   9.340
 1884DOPG   D2B44470  15.810  15.490   9.620
 1884DOPG   C3B44471  16.170  15.500   9.850
 1884DOPG   C4B44472  16.630  15.670  10.040
 1885DOPG   GL044473  13.910  21.390  14.440
 1885DOPG   PO444474  14.240  21.210  14.310
 1885DOPG   GL144475  14.530  20.910  14.340
 1885DOPG   GL244476  14.470  20.650  14.180
 1885DOPG   C1A44477  15.040  20.830  14.460
 1885DOPG   D2A44478  15.470  20.780  14.400
 1885DOPG   C3A44479  15.630  20.800  14.740
 1885DOPG   C4A44480  15.870  21.080  14.900
 1885DOPG   C1B44481  14.740  20.270  14.210
 1885DOPG   D2B44482  14.690  19.840  14.410
 1885DOPG   C3B44483  14.820  19.480  14.220
 1885DOPG   C4B44484  15.210  19.210  14.230
 1886DOPG   GL044485  29.530  14.500   5.710
 1886DOPG   PO444486  29.350  14.670   6.080
 1886DOPG   GL144487  29.150  14.810   6.530
 1886DOPG   GL244488  28.850  14.620   6.440
 1886DOPG   C1A44489  28.840  14.910   6.950
 1886DOPG   D2A44490  28.510  15.170   7.150
 1886DOPG   C3A44491  28.080  14.960   7.190
 1886DOPG   C4A44492  27.610  15.010   7.330
 1886DOPG   C1B44493  29.050  14.200   6.620
 1886DOPG   D2B44494  28.940  14.010   6.940
 1886DOPG   C3B44495  28.850  13.540   6.800
 1886DOPG   C4B44496  28.930  13.180   6.840
 1887DOPG   GL044497  28.070  14.990  16.110
 1887DOPG   PO444498  28.080  14.870  16.590
 1887DOPG   GL144499  28.300  14.780  16.840
 1887DOPG   GL244500  28.640  14.780  16.800
 1887DOPG   C1A44501  28.350  14.920  17.230
 1887DOPG   D2A44502  28.510  15.010  17.680
 1887DOPG   C3A44503  28.870  15.070  17.750
 1887DOPG   C4A44504  29.220  15.290  17.760
 1887DOPG   C1B44505  28.900  15.120  16.710
 1887DOPG   D2B44506  29.340  15.120  16.620
 1887DOPG   C3B44507  29.580  14.860  16.870
 1887DOPG   C4B44508  29.630  14.540  17.150
 1888DOPG   GL044509  17.250   3.410   9.240
 1888DOPG   PO444510  17.400   3.010   9.170
 1888DOPG   GL144511  17.570   3.300   9.580
 1888DOPG   GL244512  17.770   3.290   9.380
 1888DOPG   C1A44513  17.770   3.510   9.920
 1888DOPG   D2A44514  17.900   3.870  10.290
 1888DOPG   C3A44515  18.060   4.320  10.210
 1888DOPG   C4A44516  18.230   4.570   9.890
 1888DOPG   C1B44517  17.830   3.610   9.190
 1888DOPG   D2B44518  17.910   3.930   8.850
 1888DOPG   C3B44519  18.020   4.360   8.830
 1888DOPG   C4B44520  18.420   4.340   8.940
 1889DOPG   GL044521  26.980   9.640  23.280
 1889DOPG   PO444522  26.590   9.400  23.200
 1889DOPG   GL144523  26.370   9.490  22.810
 1889DOPG   GL244524  26.300   9.130  22.690
 1889DOPG   C1A44525  26.330   9.710  22.390
 1889DOPG   D2A44526  26.270   9.760  21.910
 1889DOPG   C3A44527  26.000  10.020  21.830
 1889DOPG   C4A44528  25.700  10.330  21.940
 1889DOPG   C1B44529  26.020   9.320  22.270
 1889DOPG   D2B44530  25.790   9.320  22.000
 1889DOPG   C3B44531  25.740   9.270  21.560
 1889DOPG   C4B44532  25.950   9.230  21.150
 1890DOPG   GL044533  12.750  17.040  17.250
 1890DOPG   PO444534  13.130  17.220  17.070
 1890DOPG   GL144535  13.370  17.310  16.750
 1890DOPG   GL244536  13.530  17.010  16.580
 1890DOPG   C1A44537  13.750  17.470  16.430
 1890DOPG   D2A44538  14.060  17.380  16.200
 1890DOPG   C3A44539  14.330  17.660  16.080
 1890DOPG   C4A44540  14.640  17.660  15.840
 1890DOPG   C1B44541  13.660  17.070  16.050
 1890DOPG   D2B44542  13.910  17.180  15.770
 1890DOPG   C3B44543  14.340  17.230  15.790
 1890DOPG   C4B44544  14.740  17.130  15.840
 1891DOPG   GL044545  13.830  17.100  23.590
 1891DOPG   PO444546  13.830  16.750  23.170
 1891DOPG   GL144547  13.900  16.580  22.780
 1891DOPG   GL244548  14.220  16.710  22.790
 1891DOPG   C1A44549  13.840  16.500  22.340
 1891DOPG   D2A44550  13.810  16.160  22.110
 1891DOPG   C3A44551  13.450  15.820  22.220
 1891DOPG   C4A44552  13.660  15.510  22.370
 1891DOPG   C1B44553  14.110  16.200  22.670
 1891DOPG   D2B44554  14.020  15.840  22.430
 1891DOPG   C3B44555  14.060  15.740  21.940
 1891DOPG   C4B44556  13.880  16.090  21.600
 1892DOPG   GL044557  19.310  12.120   8.210
 1892DOPG   PO444558  18.990  12.070   8.580
 1892DOPG   GL144559  18.880  12.240   8.960
 1892DOPG   GL244560  18.720  12.470   9.130
 1892DOPG   C1A44561  19.180  12.130   9.330
 1892DOPG   D2A44562  19.120  12.280   9.790
 1892DOPG   C3A44563  19.030  12.480  10.140
 1892DOPG   C4A44564  19.020  12.690  10.520
 1892DOPG   C1B44565  18.510  12.630   9.520
 1892DOPG   D2B44566  18.440  13.010   9.570
 1892DOPG   C3B44567  18.040  13.250   9.670
 1892DOPG   C4B44568  17.830  13.690   9.720
 1893DOPG   GL044569  18.390  18.650  17.670
 1893DOPG   PO444570  18.410  18.510  18.140
 1893DOPG   GL144571  18.610  18.140  18.080
 1893DOPG   GL244572  18.260  18.010  18.000
 1893DOPG   C1A44573  18.720  17.700  18.010
 1893DOPG   D2A44574  19.150  17.550  17.880
 1893DOPG   C3A44575  19.270  17.680  17.490
 1893DOPG   C4A44576  19.540  17.730  17.110
 1893DOPG   C1B44577  18.430  17.850  17.550
 1893DOPG   D2B44578  18.330  17.460  17.190
 1893DOPG   C3B44579  18.590  17.190  16.950
 1893DOPG   C4B44580  18.730  16.970  16.570
 1894DOPG   GL044581  13.410  18.940  15.480
 1894DOPG   PO444582  13.280  18.770  15.910
 1894DOPG   GL144583  13.160  18.300  16.010
 1894DOPG   GL244584  13.190  18.160  15.730
 1894DOPG   C1A44585  13.470  18.020  16.160
 1894DOPG   D2A44586  13.630  17.640  15.950
 1894DOPG   C3A44587  13.950  17.660  15.670
 1894DOPG   C4A44588  14.210  17.820  15.480
 1894DOPG   C1B44589  13.330  18.070  15.270
 1894DOPG   D2B44590  13.750  17.890  15.260
 1894DOPG   C3B44591  14.160  18.090  15.080
 1894DOPG   C4B44592  14.390  18.090  14.570
 1895DOPG   GL044593  20.540  21.420  10.460
 1895DOPG   PO444594  20.910  21.620  10.630
 1895DOPG   GL144595  20.800  21.380  11.010
 1895DOPG   GL244596  20.540  21.160  11.000
 1895DOPG   C1A44597  21.090  20.920  11.140
 1895DOPG   D2A44598  21.070  20.490  11.220
 1895DOPG   C3A44599  20.980  20.340  11.610
 1895DOPG   C4A44600  20.700  20.220  11.970
 1895DOPG   C1B44601  20.180  20.930  11.060
 1895DOPG   D2B44602  20.130  20.530  11.200
 1895DOPG   C3B44603  19.750  20.680  11.330
 1895DOPG   C4B44604  19.500  20.790  11.620
 1896DOPG   GL044605  14.720  18.700   8.870
 1896DOPG   PO444606  14.730  18.950   9.150
 1896DOPG   GL144607  15.000  18.740   9.320
 1896DOPG   GL244608  14.930  18.780   9.590
 1896DOPG   C1A44609  15.350  18.420   9.430
 1896DOPG   D2A44610  15.700  18.400   9.550
 1896DOPG   C3A44611  15.760  18.360  10.000
 1896DOPG   C4A44612  15.720  18.620  10.360
 1896DOPG   C1B44613  14.940  18.400   9.910
 1896DOPG   D2B44614  15.310  18.410  10.200
 1896DOPG   C3B44615  15.540  18.140  10.430
 1896DOPG   C4B44616  15.740  17.790  10.640
 1897DOPG   GL044617  19.940  16.210   7.820
 1897DOPG   PO444618  19.660  15.910   7.950
 1897DOPG   GL144619  19.830  15.800   8.310
 1897DOPG   GL244620  20.040  16.070   8.470
 1897DOPG   C1A44621  19.900  15.650   8.670
 1897DOPG   D2A44622  20.130  15.710   8.970
 1897DOPG   C3A44623  20.100  16.050   9.020
 1897DOPG   C4A44624  20.060  16.460   9.240
 1897DOPG   C1B44625  20.280  16.430   8.760
 1897DOPG   D2B44626  20.430  16.740   9.080
 1897DOPG   C3B44627  20.470  16.800   9.550
 1897DOPG   C4B44628  20.690  16.860   9.950
 1898DOPG   GL044629  26.440  17.150   4.530
 1898DOPG   PO444630  26.280  17.330   4.790
 1898DOPG   GL144631  26.010  17.130   5.010
 1898DOPG   GL244632  26.010  16.850   4.920
 1898DOPG   C1A44633  25.950  16.970   5.490
 1898DOPG   D2A44634  25.680  17.010   5.760
 1898DOPG   C3A44635  25.510  16.640   5.890
 1898DOPG   C4A44636  25.250  16.320   6.080
 1898DOPG   C1B44637  25.880  16.510   5.150
 1898DOPG   D2B44638  25.620  16.430   5.400
 1898DOPG   C3B44639  25.200  16.240   5.520
 1898DOPG   C4B44640  24.860  16.150   5.830
 1899DOPG   GL044641  23.370  15.020  18.840
 1899DOPG   PO444642  23.250  14.540  18.880
 1899DOPG   GL144643  22.890  14.660  18.600
 1899DOPG   GL244644  22.610  14.930  18.420
 1899DOPG   C1A44645  22.890  14.600  18.120
 1899DOPG   D2A44646  22.690  14.200  17.960
 1899DOPG   C3A44647  22.890  13.950  17.670
 1899DOPG   C4A44648  22.940  13.660  17.330
 1899DOPG   C1B44649  22.460  15.070  18.000
 1899DOPG   D2B44650  22.610  15.310  17.710
 1899DOPG   C3B44651  22.590  15.170  17.290
 1899DOPG   C4B44652  22.360  15.420  16.980
 1900DOPG   GL044653   8.700  14.280  20.200
 1900DOPG   PO444654   9.010  13.970  20.050
 1900DOPG   GL144655   8.910  13.870  19.740
 1900DOPG   GL244656   9.230  13.770  19.630
 1900DOPG   C1A44657   9.080  13.480  19.300
 1900DOPG   D2A44658   9.390  13.320  19.310
 1900DOPG   C3A44659   9.730  13.160  18.920
 1900DOPG   C4A44660   9.810  12.990  18.490
 1900DOPG   C1B44661   9.450  13.950  19.270
 1900DOPG   D2B44662   9.820  14.120  19.030
 1900DOPG   C3B44663   9.990  13.930  18.690
 1900DOPG   C4B44664  10.300  13.750  18.370
 1901DOPG   GL044665  11.720   4.070  12.150
 1901DOPG   PO444666  12.130   3.880  11.980
 1901DOPG   GL144667  12.430   4.120  11.800
 1901DOPG   GL244668  12.670   3.970  11.990
 1901DOPG   C1A44669  12.810   4.340  11.650
 1901DOPG   D2A44670  13.200   4.180  11.870
 1901DOPG   C3A44671  13.320   4.300  12.260
 1901DOPG   C4A44672  13.530   4.620  12.440
 1901DOPG   C1B44673  12.880   4.110  12.420
 1901DOPG   D2B44674  13.210   3.870  12.560
 1901DOPG   C3B44675  13.540   3.600  12.610
 1901DOPG   C4B44676  13.860   3.270  12.630
 1902DOPG   GL044677  11.180  24.080   8.600
 1902DOPG   PO444678  11.420  23.750   8.350
 1902DOPG   GL144679  11.790  23.610   8.500
 1902DOPG   GL244680  12.030  23.700   8.370
 1902DOPG   C1A44681  12.160  23.350   8.790
 1902DOPG   D2A44682  12.490  23.120   9.110
 1902DOPG   C3A44683  12.540  23.130   9.530
 1902DOPG   C4A44684  12.570  23.430   9.770
 1902DOPG   C1B44685  12.440  23.520   8.420
 1902DOPG   D2B44686  12.890  23.200   8.330
 1902DOPG   C3B44687  13.270  23.230   8.280
 1902DOPG   C4B44688  13.680  23.200   8.380
 1903DOPG   GL044689  16.500   2.180  19.080
 1903DOPG   PO444690  16.940   2.350  18.970
 1903DOPG   GL144691  16.980   2.680  18.650
 1903DOPG   GL244692  17.170   2.740  18.430
 1903DOPG   C1A44693  17.050   3.160  18.620
 1903DOPG   D2A44694  17.090   3.570  18.410
 1903DOPG   C3A44695  17.290   3.970  18.400
 1903DOPG   C4A44696  17.140   4.240  18.110
 1903DOPG   C1B44697  16.890   2.920  18.190
 1903DOPG   D2B44698  16.680   3.360  18.340
 1903DOPG   C3B44699  16.640   3.510  18.690
 1903DOPG   C4B44700  16.960   3.580  18.890
 1904DOPG   GL044701  14.730  12.260  16.060
 1904DOPG   PO444702  14.310  12.280  16.150
 1904DOPG   GL144703  14.410  12.620  15.730
 1904DOPG   GL244704  14.410  12.920  15.910
 1904DOPG   C1A44705  14.600  12.780  15.430
 1904DOPG   D2A44706  14.680  13.200  15.500
 1904DOPG   C3A44707  14.560  13.640  15.550
 1904DOPG   C4A44708  14.770  13.960  15.670
 1904DOPG   C1B44709  14.360  13.330  15.880
 1904DOPG   D2B44710  14.280  13.790  15.990
 1904DOPG   C3B44711  14.570  13.990  16.140
 1904DOPG   C4B44712  15.020  14.070  16.110
 1905DOPG   GL044713  15.810  16.040   8.240
 1905DOPG   PO444714  15.940  16.360   8.510
 1905DOPG   GL144715  15.990  16.190   8.890
 1905DOPG   GL244716  16.210  15.920   8.990
 1905DOPG   C1A44717  16.030  16.410   9.280
 1905DOPG   D2A44718  15.750  16.740   9.460
 1905DOPG   C3A44719  15.770  16.860  10.030
 1905DOPG   C4A44720  15.720  16.870  10.350
 1905DOPG   C1B44721  15.830  15.930   9.340
 1905DOPG   D2B44722  15.620  16.190   9.560
 1905DOPG   C3B44723  15.160  16.150   9.710
 1905DOPG   C4B44724  15.070  16.170  10.040
 1906DOPG   GL044725  27.660  12.920  14.520
 1906DOPG   PO444726  27.710  12.510  14.640
 1906DOPG   GL144727  27.460  12.390  14.390
 1906DOPG   GL244728  27.580  11.990  14.290
 1906DOPG   C1A44729  27.210  12.220  14.080
 1906DOPG   D2A44730  27.090  12.430  13.750
 1906DOPG   C3A44731  26.860  12.280  13.410
 1906DOPG   C4A44732  26.610  11.930  13.350
 1906DOPG   C1B44733  27.240  11.980  14.550
 1906DOPG   D2B44734  26.900  12.170  14.410
 1906DOPG   C3B44735  26.720  12.290  14.090
 1906DOPG   C4B44736  26.560  12.260  13.750
 1907DOPG   GL044737  18.580  22.660  11.900
 1907DOPG   PO444738  18.360  22.480  12.290
 1907DOPG   GL144739  18.450  22.200  12.550
 1907DOPG   GL244740  18.100  21.990  12.600
 1907DOPG   C1A44741  18.670  21.800  12.760
 1907DOPG   D2A44742  18.850  21.390  12.820
 1907DOPG   C3A44743  18.970  21.050  12.410
 1907DOPG   C4A44744  19.310  20.900  12.230
 1907DOPG   C1B44745  18.110  21.600  12.540
 1907DOPG   D2B44746  17.780  21.240  12.740
 1907DOPG   C3B44747  17.950  20.900  12.480
 1907DOPG   C4B44748  18.320  20.760  12.400
 1908DOPG   GL044749  21.830   8.660  24.450
 1908DOPG   PO444750  21.680   8.490  24.020
 1908DOPG   GL144751  21.470   8.610  23.750
 1908DOPG   GL244752  21.540   8.870  23.530
 1908DOPG   C1A44753  21.240   8.600  23.290
 1908DOPG   D2A44754  21.450   8.870  23.020
 1908DOPG   C3A44755  21.860   8.880  22.840
 1908DOPG   C4A44756  22.150   9.030  22.400
 1908DOPG   C1B44757  21.810   9.190  23.230
 1908DOPG   D2B44758  21.860   9.580  22.910
 1908DOPG   C3B44759  22.330   9.740  22.760
 1908DOPG   C4B44760  22.630   9.570  22.600
 1909DOPG   GL044761  26.970  12.380  11.300
 1909DOPG   PO444762  26.520  12.250  11.350
 1909DOPG   GL144763  26.160  12.270  11.470
 1909DOPG   GL244764  25.920  12.090  11.230
 1909DOPG   C1A44765  25.830  12.480  11.680
 1909DOPG   D2A44766  25.410  12.640  11.900
 1909DOPG   C3A44767  25.060  12.420  12.010
 1909DOPG   C4A44768  24.860  12.470  12.390
 1909DOPG   C1B44769  25.800  11.960  11.670
 1909DOPG   D2B44770  26.040  12.050  11.930
 1909DOPG   C3B44771  25.820  11.940  12.300
 1909DOPG   C4B44772  25.880  12.060  12.700
 1910DOPG   GL044773  16.610  10.790  17.300
 1910DOPG   PO444774  16.490  11.130  17.010
 1910DOPG   GL144775  16.640  11.110  16.660
 1910DOPG   GL244776  16.830  10.860  16.680
 1910DOPG   C1A44777  16.750  11.370  16.390
 1910DOPG   D2A44778  16.620  11.320  15.920
 1910DOPG   C3A44779  16.850  11.350  15.570
 1910DOPG   C4A44780  16.860  11.600  15.170
 1910DOPG   C1B44781  17.320  11.060  16.480
 1910DOPG   D2B44782  17.530  11.300  16.100
 1910DOPG   C3B44783  17.470  11.580  15.720
 1910DOPG   C4B44784  17.350  11.820  15.310
 1911DOPG   GL044785  24.790  12.540   3.540
 1911DOPG   PO444786  24.390  12.360   3.730
 1911DOPG   GL144787  24.800  12.400   4.050
 1911DOPG   GL244788  24.990  12.610   4.170
 1911DOPG   C1A44789  24.680  12.220   4.480
 1911DOPG   D2A44790  24.380  11.910   4.530
 1911DOPG   C3A44791  24.390  11.690   4.940
 1911DOPG   C4A44792  24.050  11.700   5.120
 1911DOPG   C1B44793  24.750  12.790   4.510
 1911DOPG   D2B44794  24.470  12.650   4.760
 1911DOPG   C3B44795  24.440  12.240   4.870
 1911DOPG   C4B44796  24.350  12.100   5.320
 1912DOPG   GL044797  26.210  15.370  23.130
 1912DOPG   PO444798  25.980  15.010  23.240
 1912DOPG   GL144799  25.850  14.510  23.060
 1912DOPG   GL244800  25.930  14.130  23.120
 1912DOPG   C1A44801  25.840  14.270  22.590
 1912DOPG   D2A44802  25.780  14.190  22.160
 1912DOPG   C3A44803  25.360  14.170  22.030
 1912DOPG   C4A44804  25.200  14.300  21.650
 1912DOPG   C1B44805  25.640  13.930  22.950
 1912DOPG   D2B44806  25.630  13.590  22.890
 1912DOPG   C3B44807  25.530  13.220  22.640
 1912DOPG   C4B44808  25.290  13.200  22.290
 1913DOPG   GL044809  21.680  15.380  19.280
 1913DOPG   PO444810  21.250  15.390  19.200
 1913DOPG   GL144811  21.340  15.420  18.820
 1913DOPG   GL244812  21.590  15.420  18.700
 1913DOPG   C1A44813  21.030  15.260  18.470
 1913DOPG   D2A44814  21.030  15.130  18.030
 1913DOPG   C3A44815  21.010  15.120  17.620
 1913DOPG   C4A44816  21.280  14.990  17.320
 1913DOPG   C1B44817  21.680  15.490  18.290
 1913DOPG   D2B44818  21.420  15.510  17.970
 1913DOPG   C3B44819  21.540  15.410  17.540
 1913DOPG   C4B44820  21.880  15.450  17.150
 1914DOPG   GL044821  16.730  25.760   8.270
 1914DOPG   PO444822  16.400  25.720   7.920
 1914DOPG   GL144823  16.460  25.330   8.010
 1914DOPG   GL244824  16.670  25.110   7.940
 1914DOPG   C1A44825  16.600  25.270   8.400
 1914DOPG   D2A44826  16.740  25.270   8.890
 1914DOPG   C3A44827  17.170  24.930   9.040
 1914DOPG   C4A44828  17.570  24.730   9.050
 1914DOPG   C1B44829  17.070  25.380   8.060
 1914DOPG   D2B44830  17.330  25.210   8.270
 1914DOPG   C3B44831  17.420  24.870   8.540
 1914DOPG   C4B44832  17.120  24.510   8.700
 1915DOPG   GL044833  24.130   7.720  11.590
 1915DOPG   PO444834  24.030   7.400  11.780
 1915DOPG   GL144835  23.750   7.520  12.120
 1915DOPG   GL244836  23.480   7.330  12.180
 1915DOPG   C1A44837  23.530   7.830  12.410
 1915DOPG   D2A44838  23.060   8.000  12.470
 1915DOPG   C3A44839  22.630   8.180  12.580
 1915DOPG   C4A44840  22.440   8.250  12.950
 1915DOPG   C1B44841  23.040   7.490  12.450
 1915DOPG   D2B44842  22.750   7.510  12.810
 1915DOPG   C3B44843  22.340   7.250  12.720
 1915DOPG   C4B44844  21.850   7.070  12.680
 1916DOPG   GL044845  10.260   7.140  21.190
 1916DOPG   PO444846  10.660   7.280  20.820
 1916DOPG   GL144847  10.780   7.480  20.530
 1916DOPG   GL244848  10.590   7.500  20.330
 1916DOPG   C1A44849  11.160   7.660  20.250
 1916DOPG   D2A44850  11.610   7.820  20.360
 1916DOPG   C3A44851  11.910   7.900  20.710
 1916DOPG   C4A44852  11.970   8.240  21.040
 1916DOPG   C1B44853  10.810   7.410  19.960
 1916DOPG   D2B44854  11.230   7.320  19.710
 1916DOPG   C3B44855  11.210   7.410  19.240
 1916DOPG   C4B44856  11.490   7.430  19.000
 1917DOPG   GL044857  26.580  11.420  16.830
 1917DOPG   PO444858  26.950  11.590  16.750
 1917DOPG   GL144859  26.580  11.780  16.480
 1917DOPG   GL244860  26.330  11.540  16.390
 1917DOPG   C1A44861  26.250  12.110  16.380
 1917DOPG   D2A44862  25.940  12.260  16.400
 1917DOPG   C3A44863  25.560  12.220  16.710
 1917DOPG   C4A44864  25.030  12.180  16.690
 1917DOPG   C1B44865  26.350  11.680  15.990
 1917DOPG   D2B44866  26.110  11.840  15.630
 1917DOPG   C3B44867  25.840  11.770  15.300
 1917DOPG   C4B44868  25.780  11.670  14.850
 1918DOPG   GL044869  15.150  11.070  10.340
 1918DOPG   PO444870  14.880  11.490  10.430
 1918DOPG   GL144871  15.240  11.540  10.720
 1918DOPG   GL244872  15.250  11.680  11.060
 1918DOPG   C1A44873  15.690  11.600  10.650
 1918DOPG   D2A44874  16.030  11.750  10.600
 1918DOPG   C3A44875  16.320  12.030  10.740
 1918DOPG   C4A44876  16.300  12.430  10.690
 1918DOPG   C1B44877  15.570  11.970  11.040
 1918DOPG   D2B44878  15.820  12.290  10.740
 1918DOPG   C3B44879  15.490  12.530  10.560
 1918DOPG   C4B44880  15.370  12.950  10.560
 1919DOPG   GL044881  16.680  14.950   8.330
 1919DOPG   PO444882  16.350  14.840   8.570
 1919DOPG   GL144883  16.730  14.730   8.770
 1919DOPG   GL244884  17.070  14.650   8.590
 1919DOPG   C1A44885  17.040  14.880   9.000
 1919DOPG   D2A44886  17.460  14.810   9.190
 1919DOPG   C3A44887  17.680  15.060   9.400
 1919DOPG   C4A44888  17.610  15.380   9.750
 1919DOPG   C1B44889  17.510  14.540   8.780
 1919DOPG   D2B44890  17.840  14.220   8.580
 1919DOPG   C3B44891  17.880  13.890   8.810
 1919DOPG   C4B44892  17.880  13.730   9.170
 1920DOPG   GL044893  28.110  24.070  14.250
 1920DOPG   PO444894  27.680  24.210  14.260
 1920DOPG   GL144895  27.250  24.080  14.320
 1920DOPG   GL244896  27.240  23.870  14.080
 1920DOPG   C1A44897  26.990  23.960  14.700
 1920DOPG   D2A44898  26.660  23.630  14.660
 1920DOPG   C3A44899  26.680  23.290  14.880
 1920DOPG   C4A44900  26.350  22.950  15.110
 1920DOPG   C1B44901  26.910  23.710  14.210
 1920DOPG   D2B44902  26.680  23.360  14.080
 1920DOPG   C3B44903  26.410  23.240  14.380
 1920DOPG   C4B44904  26.200  23.490  14.500
 1921DOPG   GL044905  19.520  12.160  24.710
 1921DOPG   PO444906  19.730  11.790  24.490
 1921DOPG   GL144907  19.990  12.050  24.130
 1921DOPG   GL244908  20.360  11.990  24.090
 1921DOPG   C1A44909  20.070  12.170  23.710
 1921DOPG   D2A44910  20.270  11.980  23.380
 1921DOPG   C3A44911  20.240  11.650  23.190
 1921DOPG   C4A44912  20.250  11.320  22.910
 1921DOPG   C1B44913  20.250  11.700  23.780
 1921DOPG   D2B44914  19.850  11.700  23.590
 1921DOPG   C3B44915  19.770  11.820  23.200
 1921DOPG   C4B44916  19.690  12.180  23.030
 1922DOPG   GL044917  21.200  18.750  24.280
 1922DOPG   PO444918  21.240  18.380  24.060
 1922DOPG   GL144919  21.080  18.220  23.670
 1922DOPG   GL244920  20.820  17.990  23.640
 1922DOPG   C1A44921  21.120  17.910  23.260
 1922DOPG   D2A44922  21.180  17.510  23.090
 1922DOPG   C3A44923  21.580  17.520  23.120
 1922DOPG   C4A44924  22.030  17.700  23.060
 1922DOPG   C1B44925  20.800  17.570  23.530
 1922DOPG   D2B44926  20.810  17.150  23.280
 1922DOPG   C3B44927  20.720  16.790  23.410
 1922DOPG   C4B44928  20.820  16.270  23.690
 1923DOPG   GL044929  27.710  10.530   5.700
 1923DOPG   PO444930  27.630  10.140   5.830
 1923DOPG   GL144931  27.140  10.190   5.820
 1923DOPG   GL244932  27.220  10.520   5.990
 1923DOPG   C1A44933  26.790   9.930   5.960
 1923DOPG   D2A44934  26.600   9.710   6.250
 1923DOPG   C3A44935  26.090   9.730   6.310
 1923DOPG   C4A44936  25.790   9.400   6.300
 1923DOPG   C1B44937  26.970  10.680   6.310
 1923DOPG   D2B44938  26.970  10.510   6.800
 1923DOPG   C3B44939  26.600  10.410   6.960
 1923DOPG   C4B44940  26.060  10.340   7.040
 1924DOPG   GL044941   8.940  15.100   7.640
 1924DOPG   PO444942   8.690  15.260   7.800
 1924DOPG   GL144943   9.140  15.510   7.870
 1924DOPG   GL244944   9.090  15.860   7.820
 1924DOPG   C1A44945   9.400  15.510   8.200
 1924DOPG   D2A44946   9.670  15.460   8.550
 1924DOPG   C3A44947   9.920  15.090   8.550
 1924DOPG   C4A44948  10.320  15.110   8.650
 1924DOPG   C1B44949   9.140  15.970   8.240
 1924DOPG   D2B44950   9.460  15.990   8.570
 1924DOPG   C3B44951   9.680  16.310   8.670
 1924DOPG   C4B44952  10.040  16.370   8.970
 1925DOPG   GL044953  14.460  12.860   8.830
 1925DOPG   PO444954  14.730  13.120   9.000
 1925DOPG   GL144955  14.830  13.210   9.490
 1925DOPG   GL244956  14.560  13.300   9.750
 1925DOPG   C1A44957  15.100  13.140   9.810
 1925DOPG   D2A44958  15.180  13.330  10.160
 1925DOPG   C3A44959  15.210  13.690  10.400
 1925DOPG   C4A44960  15.530  13.840  10.580
 1925DOPG   C1B44961  14.780  13.540   9.950
 1925DOPG   D2B44962  15.020  13.810   9.860
 1925DOPG   C3B44963  15.050  14.260   9.870
 1925DOPG   C4B44964  15.130  14.730   9.820
 1926DOPG   GL044965  12.850  12.790  14.310
 1926DOPG   PO444966  13.120  12.750  14.030
 1926DOPG   GL144967  13.280  13.030  13.830
 1926DOPG   GL244968  13.220  12.960  13.580
 1926DOPG   C1A44969  13.530  13.410  13.940
 1926DOPG   D2A44970  13.580  13.870  14.100
 1926DOPG   C3A44971  13.960  14.010  14.180
 1926DOPG   C4A44972  14.420  14.170  14.170
 1926DOPG   C1B44973  13.110  13.410  13.590
 1926DOPG   D2B44974  13.120  13.880  13.790
 1926DOPG   C3B44975  13.210  14.150  13.560
 1926DOPG   C4B44976  13.050  14.600  13.460
 1927DOPG   GL044977  11.080  15.610  10.210
 1927DOPG   PO444978  11.520  15.660  10.070
 1927DOPG   GL144979  11.230  15.390   9.790
 1927DOPG   GL244980  11.260  15.030   9.800
 1927DOPG   C1A44981  10.720  15.270   9.610
 1927DOPG   D2A44982  10.670  14.840   9.430
 1927DOPG   C3A44983  10.620  14.850   9.000
 1927DOPG   C4A44984  10.490  14.650   8.590
 1927DOPG   C1B44985  11.090  15.090   9.370
 1927DOPG   D2B44986  11.030  15.120   8.930
 1927DOPG   C3B44987  10.910  15.130   8.540
 1927DOPG   C4B44988  11.040  15.170   8.100
 1928DOPG   GL044989  12.390  19.680  12.720
 1928DOPG   PO444990  12.550  19.230  12.770
 1928DOPG   GL144991  12.970  19.100  12.940
 1928DOPG   GL244992  13.170  18.750  12.740
 1928DOPG   C1A44993  13.340  19.160  13.070
 1928DOPG   D2A44994  13.530  19.480  13.140
 1928DOPG   C3A44995  13.950  19.540  13.280
 1928DOPG   C4A44996  14.270  19.280  13.500
 1928DOPG   C1B44997  13.430  18.680  13.000
 1928DOPG   D2B44998  13.820  18.540  13.190
 1928DOPG   C3B44999  14.120  18.370  13.040
 1928DOPG   C4B45000  14.560  18.460  12.930
 1929DOPG   GL045001  27.330  13.570  12.570
 1929DOPG   PO445002  27.400  13.980  12.400
 1929DOPG   GL145003  26.960  13.900  12.400
 1929DOPG   GL245004  26.920  13.890  12.760
 1929DOPG   C1A45005  26.560  13.750  12.330
 1929DOPG   D2A45006  26.180  13.840  12.180
 1929DOPG   C3A45007  26.100  14.230  12.130
 1929DOPG   C4A45008  25.850  14.600  12.290
 1929DOPG   C1B45009  26.610  14.170  12.730
 1929DOPG   D2B45010  26.290  14.280  12.560
 1929DOPG   C3B45011  25.880  14.020  12.570
 1929DOPG   C4B45012  25.460  13.930  12.710
 1930DOPG   GL045013  11.420  14.240  22.300
 1930DOPG   PO445014  11.620  14.200  22.570
 1930DOPG   GL145015  11.950  14.310  22.260
 1930DOPG   GL245016  12.080  14.120  22.330
 1930DOPG   C1A45017  12.130  14.260  21.820
 1930DOPG   D2A45018  12.510  14.380  21.450
 1930DOPG   C3A45019  12.870  14.650  21.270
 1930DOPG   C4A45020  13.170  14.550  20.900
 1930DOPG   C1B45021  12.340  13.900  22.020
 1930DOPG   D2B45022  12.350  13.900  21.540
 1930DOPG   C3B45023  12.640  14.030  21.150
 1930DOPG   C4B45024  12.980  14.110  20.850
 1931DOPG   GL045025  23.980  10.330  20.010
 1931DOPG   PO445026  23.900  10.020  20.050
 1931DOPG   GL145027  24.070   9.750  20.320
 1931DOPG   GL245028  23.900   9.480  20.260
 1931DOPG   C1A45029  24.050   9.820  20.720
 1931DOPG   D2A45030  24.180  10.040  21.120
 1931DOPG   C3A45031  24.150   9.840  21.600
 1931DOPG   C4A45032  24.160   9.510  21.900
 1931DOPG   C1B45033  23.770   9.070  20.420
 1931DOPG   D2B45034  23.690   8.690  20.680
 1931DOPG   C3B45035  23.950   8.530  21.030
 1931DOPG   C4B45036  23.860   8.390  21.460
 1932DOPG   GL045037  16.930  27.370   9.910
 1932DOPG   PO445038  17.000  27.140   9.720
 1932DOPG   GL145039  16.820  26.680   9.840
 1932DOPG   GL245040  16.560  26.550  10.110
 1932DOPG   C1A45041  16.990  26.290   9.660
 1932DOPG   D2A45042  16.830  26.040   9.520
 1932DOPG   C3A45043  17.220  25.740   9.440
 1932DOPG   C4A45044  17.180  25.530   9.090
 1932DOPG   C1B45045  16.590  26.150  10.020
 1932DOPG   D2B45046  16.860  25.820   9.970
 1932DOPG   C3B45047  16.810  25.490   9.780
 1932DOPG   C4B45048  16.940  25.020   9.860
 1933DOPG   GL045049  18.430  15.150  19.370
 1933DOPG   PO445050  18.480  15.550  19.280
 1933DOPG   GL145051  18.570  15.480  18.820
 1933DOPG   GL245052  18.840  15.570  18.620
 1933DOPG   C1A45053  18.370  15.290  18.480
 1933DOPG   D2A45054  18.320  14.950  18.140
 1933DOPG   C3A45055  18.550  15.090  17.810
 1933DOPG   C4A45056  18.810  15.030  17.420
 1933DOPG   C1B45057  18.760  15.500  18.160
 1933DOPG   D2B45058  19.020  15.570  17.740
 1933DOPG   C3B45059  18.740  15.860  17.320
 1933DOPG   C4B45060  18.580  16.130  17.020
 1934DOPG   GL045061  18.250  24.100  20.010
 1934DOPG   PO445062  18.320  24.260  20.340
 1934DOPG   GL145063  18.690  23.870  20.300
 1934DOPG   GL245064  18.630  23.590  20.340
 1934DOPG   C1A45065  18.860  23.740  19.970
 1934DOPG   D2A45066  18.710  23.360  19.710
 1934DOPG   C3A45067  18.290  23.240  19.500
 1934DOPG   C4A45068  18.270  23.100  19.110
 1934DOPG   C1B45069  18.670  23.140  20.270
 1934DOPG   D2B45070  18.730  22.680  20.230
 1934DOPG   C3B45071  18.880  22.350  19.930
 1934DOPG   C4B45072  19.220  22.030  19.830
 1935DOPG   GL045073  14.920  20.140   9.620
 1935DOPG   PO445074  14.990  19.820   9.930
 1935DOPG   GL145075  14.890  19.470  10.190
 1935DOPG   GL245076  14.810  19.210  10.250
 1935DOPG   C1A45077  15.200  19.440  10.440
 1935DOPG   D2A45078  15.350  19.570  10.830
 1935DOPG   C3A45079  15.730  19.610  11.130
 1935DOPG   C4A45080  16.120  19.640  11.290
 1935DOPG   C1B45081  15.050  19.050  10.740
 1935DOPG   D2B45082  15.310  18.690  10.660
 1935DOPG   C3B45083  15.260  18.240  10.970
 1935DOPG   C4B45084  15.430  18.170  11.380
 1936DOPG   GL045085  20.770  15.560  18.990
 1936DOPG   PO445086  20.590  15.330  19.270
 1936DOPG   GL145087  20.960  15.070  18.960
 1936DOPG   GL245088  20.910  14.740  18.830
 1936DOPG   C1A45089  21.400  14.910  18.710
 1936DOPG   D2A45090  21.640  14.790  18.330
 1936DOPG   C3A45091  21.990  15.060  18.160
 1936DOPG   C4A45092  22.020  15.410  17.930
 1936DOPG   C1B45093  21.070  14.630  18.420
 1936DOPG   D2B45094  21.260  14.620  18.020
 1936DOPG   C3B45095  21.070  14.390  17.700
 1936DOPG   C4B45096  20.650  14.280  17.630
 1937DOPG   GL045097   9.800   5.590  11.570
 1937DOPG   PO445098  10.170   5.770  11.480
 1937DOPG   GL145099  10.420   6.180  11.680
 1937DOPG   GL245100  10.590   6.130  12.070
 1937DOPG   C1A45101  10.800   6.410  11.710
 1937DOPG   D2A45102  11.070   6.750  11.740
 1937DOPG   C3A45103  11.040   7.230  11.630
 1937DOPG   C4A45104  10.970   7.540  11.460
 1937DOPG   C1B45105  10.800   6.570  12.180
 1937DOPG   D2B45106  11.010   6.880  12.240
 1937DOPG   C3B45107  11.330   7.030  11.990
 1937DOPG   C4B45108  11.470   7.380  11.910
 1938DOPG   GL045109  15.150  22.720  21.820
 1938DOPG   PO445110  15.320  22.460  21.650
 1938DOPG   GL145111  15.420  22.120  21.370
 1938DOPG   GL245112  15.170  21.870  21.420
 1938DOPG   C1A45113  15.670  22.030  21.050
 1938DOPG   D2A45114  15.750  21.780  20.620
 1938DOPG   C3A45115  15.890  21.930  20.130
 1938DOPG   C4A45116  16.080  21.830  19.700
 1938DOPG   C1B45117  15.360  21.670  21.020
 1938DOPG   D2B45118  15.270  21.580  20.600
 1938DOPG   C3B45119  15.490  21.610  20.240
 1938DOPG   C4B45120  15.700  21.530  19.890
 1939DOPG   GL045121  22.880   8.920   9.630
 1939DOPG   PO445122  22.640   9.040   9.950
 1939DOPG   GL145123  22.750   9.310  10.310
 1939DOPG   GL245124  22.930   9.540  10.150
 1939DOPG   C1A45125  22.880   9.480  10.680
 1939DOPG   D2A45126  22.800   9.630  11.120
 1939DOPG   C3A45127  23.030  10.020  11.270
 1939DOPG   C4A45128  23.030  10.480  11.250
 1939DOPG   C1B45129  22.730   9.840  10.300
 1939DOPG   D2B45130  22.430   9.840  10.560
 1939DOPG   C3B45131  22.060   9.790  10.900
 1939DOPG   C4B45132  21.860   9.840  11.400
 1940DOPG   GL045133  14.490  23.850   6.130
 1940DOPG   PO445134  14.540  23.490   6.300
 1940DOPG   GL145135  14.680  23.090   6.420
 1940DOPG   GL245136  14.900  23.030   6.360
 1940DOPG   C1A45137  14.600  22.920   6.790
 1940DOPG   D2A45138  14.120  22.730   6.950
 1940DOPG   C3A45139  13.850  23.000   7.200
 1940DOPG   C4A45140  13.760  22.930   7.540
 1940DOPG   C1B45141  15.030  22.730   6.640
 1940DOPG   D2B45142  14.920  22.710   7.120
 1940DOPG   C3B45143  15.260  22.540   7.380
 1940DOPG   C4B45144  15.420  22.020   7.310
 1941DOPG   GL045145  25.390   8.240  14.630
 1941DOPG   PO445146  25.680   8.470  14.270
 1941DOPG   GL145147  25.370   8.730  14.220
 1941DOPG   GL245148  25.360   9.010  14.070
 1941DOPG   C1A45149  24.970   8.950  14.370
 1941DOPG   D2A45150  24.600   9.150  14.590
 1941DOPG   C3A45151  24.440   9.400  14.650
 1941DOPG   C4A45152  24.160   9.600  14.340
 1941DOPG   C1B45153  25.140   9.410  14.130
 1941DOPG   D2B45154  25.000   9.720  13.880
 1941DOPG   C3B45155  24.520   9.900  13.890
 1941DOPG   C4B45156  24.150  10.070  14.000
 1942DOPG   GL045157  22.690   8.550  20.230
 1942DOPG   PO445158  22.350   8.430  20.200
 1942DOPG   GL145159  22.070   8.160  20.490
 1942DOPG   GL245160  21.750   8.110  20.580
 1942DOPG   C1A45161  22.160   7.860  20.740
 1942DOPG   D2A45162  22.150   7.510  21.070
 1942DOPG   C3A45163  22.390   7.410  21.280
 1942DOPG   C4A45164  22.800   7.330  21.380
 1942DOPG   C1B45165  21.870   8.120  21.030
 1942DOPG   D2B45166  21.920   7.950  21.440
 1942DOPG   C3B45167  21.860   8.290  21.670
 1942DOPG   C4B45168  21.480   8.660  21.730
 1943DOPG   GL045169  15.100  21.400  13.490
 1943DOPG   PO445170  14.750  21.260  13.590
 1943DOPG   GL145171  15.020  20.790  13.490
 1943DOPG   GL245172  14.950  20.690  13.160
 1943DOPG   C1A45173  15.160  20.330  13.570
 1943DOPG   D2A45174  15.370  19.870  13.600
 1943DOPG   C3A45175  15.630  19.610  13.700
 1943DOPG   C4A45176  15.660  19.220  13.950
 1943DOPG   C1B45177  15.130  20.430  12.860
 1943DOPG   D2B45178  15.020  20.270  12.400
 1943DOPG   C3B45179  15.140  20.490  12.110
 1943DOPG   C4B45180  15.370  20.640  11.820
 1944DOPG   GL045181  19.110   8.370  24.640
 1944DOPG   PO445182  18.960   8.640  24.260
 1944DOPG   GL145183  19.070   8.740  23.890
 1944DOPG   GL245184  19.250   9.020  23.730
 1944DOPG   C1A45185  19.130   8.540  23.540
 1944DOPG   D2A45186  19.050   8.640  23.110
 1944DOPG   C3A45187  18.980   8.690  22.730
 1944DOPG   C4A45188  19.200   8.730  22.370
 1944DOPG   C1B45189  19.380   9.090  23.380
 1944DOPG   D2B45190  19.520   9.460  23.160
 1944DOPG   C3B45191  19.880   9.670  23.340
 1944DOPG   C4B45192  20.220   9.490  23.540
 1945DOPG   GL045193  13.070  15.960   9.710
 1945DOPG   PO445194  12.890  16.120  10.140
 1945DOPG   GL145195  13.410  15.960  10.230
 1945DOPG   GL245196  13.700  16.170  10.120
 1945DOPG   C1A45197  13.740  15.720  10.310
 1945DOPG   D2A45198  14.150  15.630  10.590
 1945DOPG   C3A45199  14.420  16.040  10.690
 1945DOPG   C4A45200  14.650  16.340  10.460
 1945DOPG   C1B45201  13.750  15.910   9.790
 1945DOPG   D2B45202  13.900  15.420   9.940
 1945DOPG   C3B45203  13.980  15.140  10.390
 1945DOPG   C4B45204  13.870  15.130  10.760
 1946DOPG   GL045205  23.750   6.280  22.580
 1946DOPG   PO445206  24.040   6.150  22.320
 1946DOPG   GL145207  23.890   6.530  22.160
 1946DOPG   GL245208  23.710   6.820  22.290
 1946DOPG   C1A45209  23.760   6.630  21.710
 1946DOPG   D2A45210  23.740   7.000  21.440
 1946DOPG   C3A45211  23.350   7.240  21.280
 1946DOPG   C4A45212  23.200   7.610  21.120
 1946DOPG   C1B45213  23.500   7.030  21.970
 1946DOPG   D2B45214  23.510   7.400  21.720
 1946DOPG   C3B45215  23.490   7.800  21.520
 1946DOPG   C4B45216  23.890   7.870  21.480
 1947DOPG   GL045217  18.810   7.980  16.930
 1947DOPG   PO445218  19.000   8.330  16.800
 1947DOPG   GL145219  18.950   8.680  16.680
 1947DOPG   GL245220  19.090   8.570  16.370
 1947DOPG   C1A45221  18.750   8.960  16.370
 1947DOPG   D2A45222  18.620   9.350  16.110
 1947DOPG   C3A45223  18.950   9.330  15.740
 1947DOPG   C4A45224  19.080   9.670  15.630
 1947DOPG   C1B45225  19.330   8.920  16.150
 1947DOPG   D2B45226  19.320   9.390  16.100
 1947DOPG   C3B45227  19.580   9.640  15.760
 1947DOPG   C4B45228  19.570   9.460  15.350
 1948DOPG   GL045229  20.550  11.610  19.750
 1948DOPG   PO445230  20.700  11.590  19.300
 1948DOPG   GL145231  21.010  11.600  18.850
 1948DOPG   GL245232  21.020  11.260  18.690
 1948DOPG   C1A45233  21.380  11.650  18.550
 1948DOPG   D2A45234  21.820  11.650  18.620
 1948DOPG   C3A45235  22.140  11.770  18.400
 1948DOPG   C4A45236  22.260  11.580  17.990
 1948DOPG   C1B45237  20.880  11.330  18.320
 1948DOPG   D2B45238  21.050  11.180  17.800
 1948DOPG   C3B45239  20.770  11.000  17.560
 1948DOPG   C4B45240  20.740  10.730  17.300
 1949DOPG   GL045241  13.660  13.520   9.470
 1949DOPG   PO445242  13.560  13.280   9.830
 1949DOPG   GL145243  13.940  13.080  10.040
 1949DOPG   GL245244  14.180  12.890  10.150
 1949DOPG   C1A45245  14.020  13.270  10.450
 1949DOPG   D2A45246  14.070  13.570  10.810
 1949DOPG   C3A45247  14.220  13.940  10.830
 1949DOPG   C4A45248  14.510  14.160  11.170
 1949DOPG   C1B45249  14.410  13.130  10.160
 1949DOPG   D2B45250  14.770  13.080  10.290
 1949DOPG   C3B45251  14.960  13.270  10.690
 1949DOPG   C4B45252  15.150  13.340  11.050
 1950DOPG   GL045253  19.410   9.450   8.350
 1950DOPG   PO445254  19.330   9.800   8.010
 1950DOPG   GL145255  19.380   9.700   7.600
 1950DOPG   GL245256  19.450   9.400   7.730
 1950DOPG   C1A45257  19.420   9.770   7.240
 1950DOPG   D2A45258  19.590   9.510   6.870
 1950DOPG   C3A45259  19.590   9.100   6.760
 1950DOPG   C4A45260  19.630   8.630   6.720
 1950DOPG   C1B45261  19.420   9.190   7.290
 1950DOPG   D2B45262  19.450   8.800   7.140
 1950DOPG   C3B45263  19.000   8.630   6.930
 1950DOPG   C4B45264  18.710   8.600   6.460
 1951DOPG   GL045265  26.900  10.360  14.040
 1951DOPG   PO445266  26.720  10.020  14.320
 1951DOPG   GL145267  26.430  10.210  14.570
 1951DOPG   GL245268  26.530  10.480  14.500
 1951DOPG   C1A45269  26.020  10.000  14.680
 1951DOPG   D2A45270  25.850   9.650  14.860
 1951DOPG   C3A45271  25.440   9.480  14.870
 1951DOPG   C4A45272  25.410   9.180  14.510
 1951DOPG   C1B45273  26.060  10.520  14.730
 1951DOPG   D2B45274  26.130  10.450  15.170
 1951DOPG   C3B45275  26.510  10.570  15.330
 1951DOPG   C4B45276  26.770  10.750  15.620
 1952DOPG   GL045277  21.030   6.410  23.450
 1952DOPG   PO445278  20.740   6.410  23.660
 1952DOPG   GL145279  20.470   6.570  23.350
 1952DOPG   GL245280  20.430   6.380  23.120
 1952DOPG   C1A45281  20.330   6.990  23.080
 1952DOPG   D2A45282  20.690   7.300  23.090
 1952DOPG   C3A45283  20.810   7.420  22.690
 1952DOPG   C4A45284  21.110   7.610  22.310
 1952DOPG   C1B45285  20.170   6.590  22.790
 1952DOPG   D2B45286  19.910   6.750  22.520
 1952DOPG   C3B45287  20.050   7.030  22.280
 1952DOPG   C4B45288  20.280   7.210  22.000
 1953DOPG   GL045289  18.540  11.430  18.460
 1953DOPG   PO445290  18.750  11.180  18.130
 1953DOPG   GL145291  18.890  11.120  17.790
 1953DOPG   GL245292  18.790  11.380  17.500
 1953DOPG   C1A45293  19.190  11.010  17.450
 1953DOPG   D2A45294  19.230  11.310  17.100
 1953DOPG   C3A45295  19.140  10.920  16.840
 1953DOPG   C4A45296  18.920  10.760  16.500
 1953DOPG   C1B45297  18.370  11.210  17.500
 1953DOPG   D2B45298  17.940  11.320  17.410
 1953DOPG   C3B45299  17.990  11.570  17.140
 1953DOPG   C4B45300  18.080  11.640  16.670
 1954DOPG   GL045301  24.900  19.330  13.960
 1954DOPG   PO445302  24.840  19.740  14.020
 1954DOPG   GL145303  24.420  19.600  14.200
 1954DOPG   GL245304  24.310  19.690  13.820
 1954DOPG   C1A45305  23.990  19.450  14.140
 1954DOPG   D2A45306  23.690  19.090  14.140
 1954DOPG   C3A45307  23.490  18.750  13.850
 1954DOPG   C4A45308  23.310  18.490  13.480
 1954DOPG   C1B45309  24.180  19.290  13.710
 1954DOPG   D2B45310  24.000  18.830  13.810
 1954DOPG   C3B45311  24.340  18.660  13.730
 1954DOPG   C4B45312  24.680  18.390  13.500
 1955DOPG   GL045313  17.500  27.380  12.640
 1955DOPG   PO445314  17.870  27.380  12.890
 1955DOPG   GL145315  18.020  27.330  12.500
 1955DOPG   GL245316  18.270  27.420  12.330
 1955DOPG   C1A45317  17.770  27.250  12.130
 1955DOPG   D2A45318  17.430  27.400  11.890
 1955DOPG   C3A45319  16.990  27.240  12.110
 1955DOPG   C4A45320  16.770  26.910  11.940
 1955DOPG   C1B45321  18.360  27.050  12.580
 1955DOPG   D2B45322  18.200  27.020  12.940
 1955DOPG   C3B45323  18.050  26.570  13.190
 1955DOPG   C4B45324  18.080  26.160  13.440
 1956DOPG   GL045325   6.720   9.870  12.590
 1956DOPG   PO445326   7.160   9.960  12.510
 1956DOPG   GL145327   7.570   9.730  12.610
 1956DOPG   GL245328   7.830   9.720  12.350
 1956DOPG   C1A45329   7.970   9.990  12.730
 1956DOPG   D2A45330   8.060  10.460  12.780
 1956DOPG   C3A45331   8.440  10.660  13.020
 1956DOPG   C4A45332   8.930  10.680  13.060
 1956DOPG   C1B45333   8.120   9.760  12.260
 1956DOPG   D2B45334   8.440  10.070  12.380
 1956DOPG   C3B45335   8.570  10.390  12.640
 1956DOPG   C4B45336   8.640  10.860  12.570
 1957DOPG   GL045337  21.260  10.590  18.910
 1957DOPG   PO445338  21.550  10.370  18.760
 1957DOPG   GL145339  21.300  10.660  18.420
 1957DOPG   GL245340  20.960  10.780  18.460
 1957DOPG   C1A45341  21.180  10.670  17.970
 1957DOPG   D2A45342  21.210  10.750  17.580
 1957DOPG   C3A45343  21.170  11.080  17.310
 1957DOPG   C4A45344  20.950  11.090  16.870
 1957DOPG   C1B45345  21.300  11.130  18.260
 1957DOPG   D2B45346  21.370  11.470  18.040
 1957DOPG   C3B45347  21.270  11.870  18.070
 1957DOPG   C4B45348  21.510  12.190  17.880
 1958DOPG   GL045349  17.100  18.870   8.680
 1958DOPG   PO445350  16.780  19.220   8.640
 1958DOPG   GL145351  16.750  19.020   9.050
 1958DOPG   GL245352  16.490  19.170   9.250
 1958DOPG   C1A45353  16.830  18.910   9.480
 1958DOPG   D2A45354  17.010  18.590   9.750
 1958DOPG   C3A45355  16.780  18.510  10.210
 1958DOPG   C4A45356  16.480  18.760  10.530
 1958DOPG   C1B45357  16.480  19.190   9.710
 1958DOPG   D2B45358  16.270  18.890   9.990
 1958DOPG   C3B45359  16.030  19.000  10.400
 1958DOPG   C4B45360  15.880  18.790  10.880
 1959DOPG   GL045361  19.610   0.750  14.070
 1959DOPG   PO445362  19.630   0.810  14.490
 1959DOPG   GL145363  19.680   1.200  14.480
 1959DOPG   GL245364  19.660   1.270  14.130
 1959DOPG   C1A45365  19.440   1.590  14.470
 1959DOPG   D2A45366  19.400   2.030  14.350
 1959DOPG   C3A45367  19.710   2.350  14.210
 1959DOPG   C4A45368  19.900   2.740  14.350
 1959DOPG   C1B45369  19.270   1.470  14.050
 1959DOPG   D2B45370  19.080   1.710  13.780
 1959DOPG   C3B45371  19.250   1.920  13.390
 1959DOPG   C4B45372  19.580   2.070  13.160
 1960DOPG   GL045373   6.650  14.060  10.420
 1960DOPG   PO445374   6.840  14.380  10.260
 1960DOPG   GL145375   7.300  14.400  10.350
 1960DOPG   GL245376   7.260  14.060  10.440
 1960DOPG   C1A45377   7.500  14.540  10.690
 1960DOPG   D2A45378   7.830  14.320  10.970
 1960DOPG   C3A45379   8.130  14.520  11.190
 1960DOPG   C4A45380   8.170  14.770  11.560
 1960DOPG   C1B45381   7.620  14.080  10.570
 1960DOPG   D2B45382   8.060  14.190  10.490
 1960DOPG   C3B45383   8.310  14.410  10.720
 1960DOPG   C4B45384   8.590  14.620  10.990
 1961DOPG   GL045385  24.510  18.110   9.930
 1961DOPG   PO445386  24.570  17.860  10.230
 1961DOPG   GL145387  24.200  17.680  10.240
 1961DOPG   GL245388  24.000  17.820  10.460
 1961DOPG   C1A45389  23.820  17.380  10.320
 1961DOPG   D2A45390  23.650  17.070  10.450
 1961DOPG   C3A45391  23.580  17.170  10.810
 1961DOPG   C4A45392  23.830  17.040  11.190
 1961DOPG   C1B45393  23.720  17.660  10.720
 1961DOPG   D2B45394  23.750  17.480  11.120
 1961DOPG   C3B45395  23.390  17.280  11.420
 1961DOPG   C4B45396  23.420  17.130  11.790
 1962DOPG   GL045397  27.540  10.240  15.800
 1962DOPG   PO445398  28.020  10.280  15.710
 1962DOPG   GL145399  28.350  10.120  15.570
 1962DOPG   GL245400  28.190   9.760  15.500
 1962DOPG   C1A45401  28.670   9.880  15.510
 1962DOPG   D2A45402  28.970   9.640  15.610
 1962DOPG   C3A45403  29.400   9.600  15.490
 1962DOPG   C4A45404  29.810   9.470  15.300
 1962DOPG   C1B45405  28.240   9.640  15.950
 1962DOPG   D2B45406  28.550   9.370  15.910
 1962DOPG   C3B45407  29.020   9.330  16.070
 1962DOPG   C4B45408  29.350   9.680  16.020
 1963DOPG   GL045409  20.010  22.450  11.600
 1963DOPG   PO445410  19.700  22.200  11.510
 1963DOPG   GL145411  19.840  21.720  11.590
 1963DOPG   GL245412  19.890  21.760  11.830
 1963DOPG   C1A45413  19.720  21.230  11.820
 1963DOPG   D2A45414  19.820  20.900  12.080
 1963DOPG   C3A45415  19.690  20.670  12.480
 1963DOPG   C4A45416  19.500  20.850  12.860
 1963DOPG   C1B45417  19.570  21.660  12.110
 1963DOPG   D2B45418  19.530  21.350  12.330
 1963DOPG   C3B45419  19.670  21.370  12.780
 1963DOPG   C4B45420  19.700  21.730  13.040
 1964DOPG   GL045421  16.170  14.500  18.240
 1964DOPG   PO445422  16.500  14.530  18.410
 1964DOPG   GL145423  16.780  14.530  18.200
 1964DOPG   GL245424  17.000  14.170  18.030
 1964DOPG   C1A45425  16.990  14.550  17.730
 1964DOPG   D2A45426  17.220  14.590  17.390
 1964DOPG   C3A45427  17.250  14.300  17.160
 1964DOPG   C4A45428  17.240  13.900  16.990
 1964DOPG   C1B45429  17.370  14.000  17.810
 1964DOPG   D2B45430  17.670  14.160  17.440
 1964DOPG   C3B45431  17.670  13.790  17.250
 1964DOPG   C4B45432  17.920  13.540  16.860
 1965DOPG   GL045433  20.930  22.240  13.540
 1965DOPG   PO445434  21.180  22.440  13.200
 1965DOPG   GL145435  20.930  22.120  13.000
 1965DOPG   GL245436  20.580  22.290  13.130
 1965DOPG   C1A45437  20.630  21.720  12.780
 1965DOPG   D2A45438  20.170  21.580  12.720
 1965DOPG   C3A45439  19.750  21.800  12.520
 1965DOPG   C4A45440  19.560  22.110  12.770
 1965DOPG   C1B45441  20.400  22.320  13.490
 1965DOPG   D2B45442  20.120  22.270  13.780
 1965DOPG   C3B45443  19.970  21.960  14.000
 1965DOPG   C4B45444  19.920  21.490  14.080
 1966DOPG   GL045445   9.570  11.270  21.430
 1966DOPG   PO445446   9.820  11.290  21.100
 1966DOPG   GL145447   9.910  11.030  20.680
 1966DOPG   GL245448  10.200  11.100  20.800
 1966DOPG   C1A45449  10.200  10.740  20.290
 1966DOPG   D2A45450  10.380  10.660  19.920
 1966DOPG   C3A45451  10.100  10.400  19.760
 1966DOPG   C4A45452   9.770  10.140  19.700
 1966DOPG   C1B45453  10.430  11.150  20.410
 1966DOPG   D2B45454  10.770  11.030  20.080
 1966DOPG   C3B45455  10.770  11.020  19.660
 1966DOPG   C4B45456  10.630  11.420  19.400
 1967DOPG   GL045457  27.070  17.320  16.630
 1967DOPG   PO445458  27.200  16.990  16.330
 1967DOPG   GL145459  27.550  17.300  16.390
 1967DOPG   GL245460  27.760  17.030  16.540
 1967DOPG   C1A45461  28.030  17.450  16.380
 1967DOPG   D2A45462  28.420  17.560  16.590
 1967DOPG   C3A45463  28.700  17.790  16.750
 1967DOPG   C4A45464  28.930  17.950  17.080
 1967DOPG   C1B45465  28.000  17.170  16.840
 1967DOPG   D2B45466  28.040  17.240  17.250
 1967DOPG   C3B45467  28.280  17.320  17.460
 1967DOPG   C4B45468  28.700  17.400  17.730
 1968DOPG   GL045469  16.670  17.080   7.890
 1968DOPG   PO445470  16.680  17.460   8.090
 1968DOPG   GL145471  16.920  17.350   8.460
 1968DOPG   GL245472  17.060  17.060   8.540
 1968DOPG   C1A45473  17.170  17.430   8.830
 1968DOPG   D2A45474  17.380  17.320   9.140
 1968DOPG   C3A45475  17.610  16.960   9.260
 1968DOPG   C4A45476  17.870  17.000   9.570
 1968DOPG   C1B45477  17.120  16.920   8.940
 1968DOPG   D2B45478  17.150  17.000   9.440
 1968DOPG   C3B45479  17.410  17.120   9.720
 1968DOPG   C4B45480  17.290  17.220  10.120
 1969DOPG   GL045481  18.850  17.120   7.870
 1969DOPG   PO445482  19.070  17.310   8.190
 1969DOPG   GL145483  19.010  17.150   8.600
 1969DOPG   GL245484  18.570  17.210   8.680
 1969DOPG   C1A45485  18.970  16.750   8.740
 1969DOPG   D2A45486  19.270  16.700   9.110
 1969DOPG   C3A45487  19.590  16.420   9.350
 1969DOPG   C4A45488  19.490  16.440   9.810
 1969DOPG   C1B45489  18.490  16.740   8.810
 1969DOPG   D2B45490  18.830  16.410   9.030
 1969DOPG   C3B45491  18.760  16.210   9.380
 1969DOPG   C4B45492  18.730  16.300   9.840
 1970DOPG   GL045493  11.270  16.920  16.260
 1970DOPG   PO445494  11.080  17.190  16.690
 1970DOPG   GL145495  10.630  17.060  16.870
 1970DOPG   GL245496  10.770  16.920  17.120
 1970DOPG   C1A45497  10.270  17.290  16.980
 1970DOPG   D2A45498  10.100  17.430  17.350
 1970DOPG   C3A45499  10.140  17.260  17.740
 1970DOPG   C4A45500  10.300  16.950  18.050
 1970DOPG   C1B45501  10.520  17.150  17.420
 1970DOPG   D2B45502  10.810  16.970  17.680
 1970DOPG   C3B45503  10.790  16.880  18.140
 1970DOPG   C4B45504  11.070  16.780  18.490
 1971DOPG   GL045505  20.990   9.460  18.580
 1971DOPG   PO445506  21.280   9.670  18.420
 1971DOPG   GL145507  21.410   9.870  18.080
 1971DOPG   GL245508  21.590  10.140  18.240
 1971DOPG   C1A45509  21.430  10.120  17.700
 1971DOPG   D2A45510  21.410  10.310  17.340
 1971DOPG   C3A45511  21.800  10.340  17.140
 1971DOPG   C4A45512  22.060  10.670  16.890
 1971DOPG   C1B45513  21.660  10.500  18.020
 1971DOPG   D2B45514  21.620  10.940  17.880
 1971DOPG   C3B45515  21.560  11.200  17.590
 1971DOPG   C4B45516  21.600  11.580  17.530
 1972DOPG   GL045517  31.030  16.380  18.380
 1972DOPG   PO445518  31.250  16.220  18.070
 1972DOPG   GL145519  30.930  16.340  17.770
 1972DOPG   GL245520  30.580  16.430  17.840
 1972DOPG   C1A45521  30.690  16.210  17.410
 1972DOPG   D2A45522  30.360  15.900  17.240
 1972DOPG   C3A45523  30.060  15.660  17.490
 1972DOPG   C4A45524  29.680  15.480  17.590
 1972DOPG   C1B45525  30.400  16.760  17.740
 1972DOPG   D2B45526  30.020  16.880  17.480
 1972DOPG   C3B45527  30.150  17.070  17.130
 1972DOPG   C4B45528  30.460  17.240  17.160
 1973DOPG   GL045529  24.170   6.730  14.070
 1973DOPG   PO445530  24.150   7.090  14.060
 1973DOPG   GL145531  23.780   7.360  13.980
 1973DOPG   GL245532  23.560   7.300  14.090
 1973DOPG   C1A45533  23.610   7.730  13.710
 1973DOPG   D2A45534  23.250   8.000  13.530
 1973DOPG   C3A45535  23.330   8.430  13.740
 1973DOPG   C4A45536  23.690   8.710  13.850
 1973DOPG   C1B45537  23.490   7.650  14.230
 1973DOPG   D2B45538  23.220   7.900  14.020
 1973DOPG   C3B45539  22.870   8.090  13.850
 1973DOPG   C4B45540  22.670   8.520  13.800
 1974DOPG   GL045541  23.810  10.670  18.040
 1974DOPG   PO445542  23.510  10.870  18.280
 1974DOPG   GL145543  23.340  10.830  17.940
 1974DOPG   GL245544  23.130  10.590  18.000
 1974DOPG   C1A45545  23.320  11.020  17.610
 1974DOPG   D2A45546  23.160  11.310  17.370
 1974DOPG   C3A45547  23.350  11.390  16.910
 1974DOPG   C4A45548  23.560  11.180  16.570
 1974DOPG   C1B45549  22.880  10.990  17.920
 1974DOPG   D2B45550  22.530  11.250  17.700
 1974DOPG   C3B45551  22.670  11.370  17.310
 1974DOPG   C4B45552  22.900  11.340  16.870
 1975DOPG   GL045553  27.180  13.080  10.180
 1975DOPG   PO445554  27.130  13.520  10.190
 1975DOPG   GL145555  27.400  13.400   9.920
 1975DOPG   GL245556  27.270  13.270   9.640
 1975DOPG   C1A45557  27.800  13.270   9.630
 1975DOPG   D2A45558  27.970  12.970   9.470
 1975DOPG   C3A45559  28.150  13.230   9.090
 1975DOPG   C4A45560  28.070  13.490   8.620
 1975DOPG   C1B45561  27.520  13.170   9.190
 1975DOPG   D2B45562  27.740  13.070   8.810
 1975DOPG   C3B45563  27.630  13.010   8.400
 1975DOPG   C4B45564  27.690  12.920   8.020
 1976DOPG   GL045565  12.870   9.110   5.260
 1976DOPG   PO445566  13.300   9.290   5.290
 1976DOPG   GL145567  13.320   9.610   5.520
 1976DOPG   GL245568  13.190   9.900   5.500
 1976DOPG   C1A45569  13.620   9.650   5.890
 1976DOPG   D2A45570  13.950   9.340   5.960
 1976DOPG   C3A45571  14.390   9.410   6.050
 1976DOPG   C4A45572  14.960   9.310   6.080
 1976DOPG   C1B45573  13.200  10.080   5.840
 1976DOPG   D2B45574  12.880  10.310   6.020
 1976DOPG   C3B45575  12.560  10.400   6.350
 1976DOPG   C4B45576  12.160  10.560   6.590
 1977DOPG   GL045577  28.360  14.680   5.250
 1977DOPG   PO445578  28.070  14.600   5.540
 1977DOPG   GL145579  28.030  14.430   5.950
 1977DOPG   GL245580  27.880  14.100   5.960
 1977DOPG   C1A45581  27.690  14.420   6.300
 1977DOPG   D2A45582  27.710  14.250   6.690
 1977DOPG   C3A45583  28.080  14.000   6.670
 1977DOPG   C4A45584  28.440  13.800   6.560
 1977DOPG   C1B45585  27.690  13.880   6.380
 1977DOPG   D2B45586  27.430  13.550   6.560
 1977DOPG   C3B45587  27.050  13.400   6.910
 1977DOPG   C4B45588  26.920  13.270   7.250
 1978DOPG   GL045589  25.220   7.970  16.180
 1978DOPG   PO445590  24.870   7.690  16.370
 1978DOPG   GL145591  24.560   7.990  16.240
 1978DOPG   GL245592  24.690   8.120  16.050
 1978DOPG   C1A45593  24.120   8.170  16.420
 1978DOPG   D2A45594  23.750   8.190  16.190
 1978DOPG   C3A45595  23.680   8.380  15.820
 1978DOPG   C4A45596  23.700   8.690  15.490
 1978DOPG   C1B45597  24.500   8.540  16.280
 1978DOPG   D2B45598  24.580   8.890  16.570
 1978DOPG   C3B45599  24.310   9.070  16.250
 1978DOPG   C4B45600  24.340   9.270  15.820
 1979DOPG   GL045601  23.110   8.320  10.140
 1979DOPG   PO445602  23.070   8.310  10.540
 1979DOPG   GL145603  23.210   8.590  10.710
 1979DOPG   GL245604  23.290   8.840  10.570
 1979DOPG   C1A45605  23.280   8.750  11.180
 1979DOPG   D2A45606  23.380   8.380  11.510
 1979DOPG   C3A45607  23.150   8.190  11.870
 1979DOPG   C4A45608  23.170   7.780  11.940
 1979DOPG   C1B45609  23.120   9.130  10.860
 1979DOPG   D2B45610  23.290   9.310  11.220
 1979DOPG   C3B45611  23.020   9.610  11.600
 1979DOPG   C4B45612  22.760   9.910  11.960
 1980DOPG   GL045613  14.460  11.920   9.570
 1980DOPG   PO445614  14.430  12.050  10.030
 1980DOPG   GL145615  14.720  12.040  10.200
 1980DOPG   GL245616  14.690  11.950  10.540
 1980DOPG   C1A45617  15.190  12.190  10.280
 1980DOPG   D2A45618  15.580  12.060  10.380
 1980DOPG   C3A45619  15.860  11.800  10.090
 1980DOPG   C4A45620  16.060  12.090   9.770
 1980DOPG   C1B45621  14.560  12.330  10.890
 1980DOPG   D2B45622  14.470  12.510  11.210
 1980DOPG   C3B45623  14.450  12.800  11.330
 1980DOPG   C4B45624  14.600  13.290  11.110
 1981DOPG   GL045625  27.610  12.730  12.650
 1981DOPG   PO445626  27.670  13.250  12.750
 1981DOPG   GL145627  27.290  13.170  12.980
 1981DOPG   GL245628  27.320  12.910  13.050
 1981DOPG   C1A45629  26.770  13.020  13.020
 1981DOPG   D2A45630  26.300  12.880  13.060
 1981DOPG   C3A45631  26.100  12.460  13.220
 1981DOPG   C4A45632  25.910  12.240  13.640
 1981DOPG   C1B45633  27.000  12.700  13.290
 1981DOPG   D2B45634  26.540  12.660  13.350
 1981DOPG   C3B45635  26.230  12.720  13.760
 1981DOPG   C4B45636  25.770  12.640  13.860
 1982DOPG   GL045637  24.320  14.990   8.440
 1982DOPG   PO445638  24.280  14.740   8.800
 1982DOPG   GL145639  23.940  14.740   9.100
 1982DOPG   GL245640  23.940  14.450   9.270
 1982DOPG   C1A45641  23.970  14.970   9.460
 1982DOPG   D2A45642  24.120  14.980   9.880
 1982DOPG   C3A45643  23.990  14.560  10.140
 1982DOPG   C4A45644  24.100  14.380  10.520
 1982DOPG   C1B45645  23.780  14.580   9.670
 1982DOPG   D2B45646  23.460  14.740   9.940
 1982DOPG   C3B45647  23.600  15.160   9.970
 1982DOPG   C4B45648  23.800  15.400   9.730
 1983DOPG   GL045649  14.340  14.700  17.270
 1983DOPG   PO445650  13.970  15.080  17.180
 1983DOPG   GL145651  14.310  15.200  17.190
 1983DOPG   GL245652  14.250  15.520  17.010
 1983DOPG   C1A45653  14.730  15.220  17.010
 1983DOPG   D2A45654  15.160  15.300  16.750
 1983DOPG   C3A45655  15.170  15.290  16.230
 1983DOPG   C4A45656  15.010  15.490  15.720
 1983DOPG   C1B45657  14.200  15.810  16.550
 1983DOPG   D2B45658  13.890  15.640  16.270
 1983DOPG   C3B45659  13.990  15.230  16.200
 1983DOPG   C4B45660  14.240  14.860  16.090
 1984DOPG   GL045661  25.950  11.440  18.060
 1984DOPG   PO445662  26.230  11.400  18.400
 1984DOPG   GL145663  26.560  11.420  18.740
 1984DOPG   GL245664  26.890  11.540  18.720
 1984DOPG   C1A45665  26.610  11.410  19.150
 1984DOPG   D2A45666  26.680  11.120  19.460
 1984DOPG   C3A45667  27.100  11.340  19.620
 1984DOPG   C4A45668  27.350  11.430  20.000
 1984DOPG   C1B45669  27.120  11.310  19.000
 1984DOPG   D2B45670  27.510  11.090  19.240
 1984DOPG   C3B45671  27.620  10.970  19.620
 1984DOPG   C4B45672  27.540  10.800  20.020
 1985DOPG   GL045673  27.760  13.270  23.400
 1985DOPG   PO445674  27.860  13.310  22.960
 1985DOPG   GL145675  27.480  13.470  22.570
 1985DOPG   GL245676  27.290  13.700  22.580
 1985DOPG   C1A45677  27.200  13.290  22.310
 1985DOPG   D2A45678  26.770  13.240  22.080
 1985DOPG   C3A45679  26.600  13.210  21.680
 1985DOPG   C4A45680  26.670  13.020  21.300
 1985DOPG   C1B45681  27.180  14.040  22.320
 1985DOPG   D2B45682  26.890  14.320  21.970
 1985DOPG   C3B45683  26.470  14.270  21.930
 1985DOPG   C4B45684  26.120  14.160  21.780
 1986DOPG   GL045685  25.700  17.770  11.800
 1986DOPG   PO445686  25.610  18.110  11.820
 1986DOPG   GL145687  25.370  18.010  12.230
 1986DOPG   GL245688  24.910  18.110  12.150
 1986DOPG   C1A45689  25.220  17.610  12.260
 1986DOPG   D2A45690  25.200  17.140  12.230
 1986DOPG   C3A45691  24.980  16.980  12.010
 1986DOPG   C4A45692  24.840  16.870  11.700
 1986DOPG   C1B45693  24.510  17.900  12.210
 1986DOPG   D2B45694  24.280  17.570  12.290
 1986DOPG   C3B45695  23.800  17.750  12.340
 1986DOPG   C4B45696  23.560  17.790  12.810
 1987DOPG   GL045697  14.150   7.080  13.420
 1987DOPG   PO445698  13.670   7.040  13.350
 1987DOPG   GL145699  13.380   6.590  13.490
 1987DOPG   GL245700  13.350   6.880  13.730
 1987DOPG   C1A45701  13.290   6.260  13.220
 1987DOPG   D2A45702  13.180   5.940  12.960
 1987DOPG   C3A45703  12.750   5.690  13.020
 1987DOPG   C4A45704  12.540   5.360  12.910
 1987DOPG   C1B45705  12.960   6.570  13.750
 1987DOPG   D2B45706  12.810   6.260  13.980
 1987DOPG   C3B45707  12.440   6.150  13.830
 1987DOPG   C4B45708  12.110   6.340  14.130
 1988DOPG   GL045709  23.060   8.440   9.580
 1988DOPG   PO445710  22.630   8.500   9.430
 1988DOPG   GL145711  22.630   8.080   9.250
 1988DOPG   GL245712  22.970   7.970   9.340
 1988DOPG   C1A45713  22.560   7.800   9.020
 1988DOPG   D2A45714  22.550   7.520   8.720
 1988DOPG   C3A45715  22.610   7.550   8.350
 1988DOPG   C4A45716  22.590   7.380   7.960
 1988DOPG   C1B45717  23.030   7.780   8.880
 1988DOPG   D2B45718  23.040   7.560   8.580
 1988DOPG   C3B45719  22.900   7.170   8.400
 1988DOPG   C4B45720  22.770   6.840   8.260
 1989DOPG   GL045721  26.630  17.030  13.840
 1989DOPG   PO445722  26.640  17.070  14.300
 1989DOPG   GL145723  26.280  16.900  14.470
 1989DOPG   GL245724  26.340  16.870  14.850
 1989DOPG   C1A45725  25.900  16.660  14.370
 1989DOPG   D2A45726  25.540  16.410  14.410
 1989DOPG   C3A45727  25.670  15.960  14.360
 1989DOPG   C4A45728  26.090  15.690  14.500
 1989DOPG   C1B45729  26.050  16.520  14.840
 1989DOPG   D2B45730  26.070  16.200  14.530
 1989DOPG   C3B45731  26.190  16.110  14.170
 1989DOPG   C4B45732  26.390  15.730  14.090
 1990DOPG   GL045733  19.500  23.080  14.980
 1990DOPG   PO445734  19.910  23.380  15.010
 1990DOPG   GL145735  19.970  23.670  15.290
 1990DOPG   GL245736  19.770  23.820  15.320
 1990DOPG   C1A45737  20.070  24.200  15.430
 1990DOPG   D2A45738  20.170  24.710  15.370
 1990DOPG   C3A45739  20.180  25.020  15.090
 1990DOPG   C4A45740  19.940  25.370  14.870
 1990DOPG   C1B45741  19.730  24.170  15.020
 1990DOPG   D2B45742  19.260  24.390  14.910
 1990DOPG   C3B45743  19.310  24.750  14.930
 1990DOPG   C4B45744  19.510  25.100  14.730
 1991DOPG   GL045745   9.650  21.340   8.660
 1991DOPG   PO445746   9.310  21.060   8.540
 1991DOPG   GL145747   9.510  20.780   8.690
 1991DOPG   GL245748   9.440  20.430   8.730
 1991DOPG   C1A45749   9.470  20.740   9.240
 1991DOPG   D2A45750   9.480  20.860   9.670
 1991DOPG   C3A45751   9.930  20.770   9.780
 1991DOPG   C4A45752  10.290  20.810  10.080
 1991DOPG   C1B45753   9.230  20.090   9.100
 1991DOPG   D2B45754   9.300  19.810   9.360
 1991DOPG   C3B45755   9.380  19.880   9.780
 1991DOPG   C4B45756   9.620  19.840  10.190
 1992DOPG   GL045757  14.750  23.310  20.640
 1992DOPG   PO445758  14.880  23.030  21.020
 1992DOPG   GL145759  15.030  22.820  20.680
 1992DOPG   GL245760  14.870  22.500  20.790
 1992DOPG   C1A45761  15.310  22.600  20.440
 1992DOPG   D2A45762  15.190  22.550  19.990
 1992DOPG   C3A45763  14.820  22.690  19.830
 1992DOPG   C4A45764  14.410  22.990  19.880
 1992DOPG   C1B45765  14.860  22.380  20.430
 1992DOPG   D2B45766  14.720  22.270  20.020
 1992DOPG   C3B45767  15.020  22.000  19.800
 1992DOPG   C4B45768  15.250  21.700  19.680
 1993DOPG   GL045769  27.660  16.270  13.400
 1993DOPG   PO445770  27.310  16.500  13.500
 1993DOPG   GL145771  26.990  16.170  13.530
 1993DOPG   GL245772  26.790  16.270  13.790
 1993DOPG   C1A45773  26.670  15.850  13.590
 1993DOPG   D2A45774  26.370  15.530  13.410
 1993DOPG   C3A45775  25.930  15.650  13.310
 1993DOPG   C4A45776  25.520  15.770  13.510
 1993DOPG   C1B45777  26.340  16.210  13.700
 1993DOPG   D2B45778  26.060  15.880  13.720
 1993DOPG   C3B45779  25.810  15.620  14.040
 1993DOPG   C4B45780  25.360  15.620  13.950
 1994DOPG   GL045781  12.700  16.500   9.150
 1994DOPG   PO445782  12.740  16.080   8.890
 1994DOPG   GL145783  12.370  16.040   8.600
 1994DOPG   GL245784  11.950  16.110   8.740
 1994DOPG   C1A45785  12.060  15.950   8.280
 1994DOPG   D2A45786  11.730  15.820   8.090
 1994DOPG   C3A45787  11.380  16.050   8.120
 1994DOPG   C4A45788  10.990  16.130   8.020
 1994DOPG   C1B45789  11.760  16.260   8.430
 1994DOPG   D2B45790  11.640  16.550   8.320
 1994DOPG   C3B45791  11.280  16.570   8.050
 1994DOPG   C4B45792  11.270  16.690   7.640
 1995DOPG   GL045793  15.090  16.520  17.970
 1995DOPG   PO445794  15.510  16.480  18.060
 1995DOPG   GL145795  15.440  16.540  17.680
 1995DOPG   GL245796  15.230  16.290  17.510
 1995DOPG   C1A45797  15.430  16.770  17.140
 1995DOPG   D2A45798  15.680  16.870  16.730
 1995DOPG   C3A45799  15.510  16.720  16.340
 1995DOPG   C4A45800  15.630  16.320  16.160
 1995DOPG   C1B45801  15.320  16.260  17.150
 1995DOPG   D2B45802  15.200  16.520  16.750
 1995DOPG   C3B45803  15.160  16.890  16.720
 1995DOPG   C4B45804  15.160  17.260  16.540
 1996DOPG   GL045805  19.800  17.270   7.440
 1996DOPG   PO445806  19.810  17.400   7.910
 1996DOPG   GL145807  19.900  17.260   8.240
 1996DOPG   GL245808  20.220  17.050   8.380
 1996DOPG   C1A45809  19.900  17.390   8.600
 1996DOPG   D2A45810  20.030  17.730   8.930
 1996DOPG   C3A45811  19.790  17.520   9.320
 1996DOPG   C4A45812  19.790  17.340   9.690
 1996DOPG   C1B45813  20.060  16.900   8.760
 1996DOPG   D2B45814  19.950  16.980   9.290
 1996DOPG   C3B45815  19.540  16.900   9.490
 1996DOPG   C4B45816  19.130  17.090   9.580
 1997DOPG   GL045817  19.130  12.530   8.590
 1997DOPG   PO445818  19.580  12.540   8.800
 1997DOPG   GL145819  19.240  12.540   9.100
 1997DOPG   GL245820  19.050  12.830   8.960
 1997DOPG   C1A45821  19.030  12.640   9.480
 1997DOPG   D2A45822  18.950  12.890   9.790
 1997DOPG   C3A45823  19.260  13.290   9.730
 1997DOPG   C4A45824  19.680  13.240   9.830
 1997DOPG   C1B45825  18.910  13.140   9.350
 1997DOPG   D2B45826  18.770  13.490   9.520
 1997DOPG   C3B45827  18.940  13.550   9.970
 1997DOPG   C4B45828  18.950  13.580  10.260
 1998DOPG   GL045829  15.780  15.580   8.560
 1998DOPG   PO445830  15.460  15.350   8.760
 1998DOPG   GL145831  15.340  15.320   9.210
 1998DOPG   GL245832  14.920  15.330   9.350
 1998DOPG   C1A45833  15.470  15.120   9.650
 1998DOPG   D2A45834  15.470  14.980  10.110
 1998DOPG   C3A45835  15.240  14.710  10.300
 1998DOPG   C4A45836  15.260  14.320  10.500
 1998DOPG   C1B45837  15.010  15.280   9.820
 1998DOPG   D2B45838  15.190  15.390  10.240
 1998DOPG   C3B45839  15.580  15.520  10.200
 1998DOPG   C4B45840  16.000  15.570  10.340
 1999DOPG   GL045841  11.100   3.630  13.310
 1999DOPG   PO445842  11.340   3.820  13.430
 1999DOPG   GL145843  11.560   4.060  13.590
 1999DOPG   GL245844  11.880   4.010  13.500
 1999DOPG   C1A45845  11.770   4.090  13.940
 1999DOPG   D2A45846  12.230   4.040  13.970
 1999DOPG   C3A45847  12.620   4.200  13.990
 1999DOPG   C4A45848  13.090   4.340  13.990
 1999DOPG   C1B45849  11.960   4.370  13.170
 1999DOPG   D2B45850  12.180   4.860  13.210
 1999DOPG   C3B45851  11.830   4.970  13.430
 1999DOPG   C4B45852  11.510   5.110  13.720
 2000DOPG   GL045853  12.010  14.040   4.430
 2000DOPG   PO445854  11.740  14.240   4.780
 2000DOPG   GL145855  11.780  14.360   5.200
 2000DOPG   GL245856  12.020  14.210   5.300
 2000DOPG   C1A45857  11.730  14.560   5.540
 2000DOPG   D2A45858  11.940  14.860   5.890
 2000DOPG   C3A45859  11.880  14.710   6.400
 2000DOPG   C4A45860  11.920  14.980   6.730
 2000DOPG   C1B45861  11.990  14.120   5.700
 2000DOPG   D2B45862  11.840  14.050   6.100
 2000DOPG   C3B45863  11.610  14.350   6.120
 2000DOPG   C4B45864  11.430  14.580   5.970
 2001DOPG   GL045865  17.470  11.240  24.970
 2001DOPG   PO445866  17.470  11.020  24.640
 2001DOPG   GL145867  17.670  11.170  24.210
 2001DOPG   GL245868  17.920  11.010  24.150
 2001DOPG   C1A45869  17.800  11.470  23.830
 2001DOPG   D2A45870  17.640  11.390  23.440
 2001DOPG   C3A45871  17.810  11.570  23.070
 2001DOPG   C4A45872  18.130  11.330  22.790
 2001DOPG   C1B45873  18.160  11.150  23.800
 2001DOPG   D2B45874  18.140  11.290  23.370
 2001DOPG   C3B45875  18.420  11.270  23.210
 2001DOPG   C4B45876  18.740  11.300  22.910
 2002DOPG   GL045877  23.700  13.180  19.020
 2002DOPG   PO445878  23.640  13.580  18.870
 2002DOPG   GL145879  23.430  13.710  18.520
 2002DOPG   GL245880  23.670  13.670  18.280
 2002DOPG   C1A45881  23.010  13.680  18.260
 2002DOPG   D2A45882  22.660  13.710  18.130
 2002DOPG   C3A45883  22.600  13.580  17.750
 2002DOPG   C4A45884  22.380  13.890  17.440
 2002DOPG   C1B45885  23.460  13.900  17.940
 2002DOPG   D2B45886  23.560  14.310  17.780
 2002DOPG   C3B45887  23.770  14.330  17.370
 2002DOPG   C4B45888  24.020  14.620  17.190
 2003DOPG   GL045889  26.940  13.830  18.240
 2003DOPG   PO445890  26.850  13.450  18.110
 2003DOPG   GL145891  27.270  13.380  18.310
 2003DOPG   GL245892  27.330  13.100  18.280
 2003DOPG   C1A45893  27.600  13.530  18.640
 2003DOPG   D2A45894  28.010  13.430  18.900
 2003DOPG   C3A45895  28.280  13.620  18.970
 2003DOPG   C4A45896  28.540  13.850  19.320
 2003DOPG   C1B45897  27.660  13.060  18.550
 2003DOPG   D2B45898  28.010  12.990  18.690
 2003DOPG   C3B45899  28.370  13.000  18.860
 2003DOPG   C4B45900  28.770  12.860  19.160
 2004DOPG   GL045901  17.470  13.960   7.370
 2004DOPG   PO445902  17.690  13.630   7.380
 2004DOPG   GL145903  17.840  13.770   6.990
 2004DOPG   GL245904  17.630  13.960   6.820
 2004DOPG   C1A45905  18.040  13.650   6.710
 2004DOPG   D2A45906  17.970  13.590   6.280
 2004DOPG   C3A45907  18.140  13.500   6.020
 2004DOPG   C4A45908  18.410  13.540   5.720
 2004DOPG   C1B45909  17.540  13.850   6.350
 2004DOPG   D2B45910  17.560  13.600   5.970
 2004DOPG   C3B45911  17.710  13.300   5.790
 2004DOPG   C4B45912  18.030  13.200   5.610
 2005DOPG   GL045913  16.070   5.500  17.180
 2005DOPG   PO445914  16.390   5.720  17.240
 2005DOPG   GL145915  16.490   5.530  17.570
 2005DOPG   GL245916  16.200   5.660  17.750
 2005DOPG   C1A45917  16.500   5.160  17.860
 2005DOPG   D2A45918  16.340   4.780  17.820
 2005DOPG   C3A45919  15.830   4.790  17.970
 2005DOPG   C4A45920  15.470   5.090  18.030
 2005DOPG   C1B45921  16.040   5.510  18.120
 2005DOPG   D2B45922  15.910   5.200  18.410
 2005DOPG   C3B45923  16.040   4.930  18.830
 2005DOPG   C4B45924  16.500   4.810  19.080
 2006DOPG   GL045925  13.020  14.340  15.610
 2006DOPG   PO445926  13.180  14.610  15.930
 2006DOPG   GL145927  13.460  14.640  15.570
 2006DOPG   GL245928  13.750  14.740  15.850
 2006DOPG   C1A45929  13.810  14.840  15.350
 2006DOPG   D2A45930  14.060  15.180  15.160
 2006DOPG   C3A45931  14.380  15.110  14.870
 2006DOPG   C4A45932  14.750  14.950  14.870
 2006DOPG   C1B45933  14.020  15.120  15.710
 2006DOPG   D2B45934  14.500  15.270  15.790
 2006DOPG   C3B45935  14.630  15.770  15.700
 2006DOPG   C4B45936  14.440  16.020  15.280
 2007DOPG   GL045937   6.880  18.930  14.880
 2007DOPG   PO445938   7.160  19.240  15.140
 2007DOPG   GL145939   7.430  18.960  14.930
 2007DOPG   GL245940   7.530  19.240  14.710
 2007DOPG   C1A45941   7.850  18.740  14.980
 2007DOPG   D2A45942   8.180  18.360  14.900
 2007DOPG   C3A45943   8.500  18.330  14.620
 2007DOPG   C4A45944   8.780  18.310  14.240
 2007DOPG   C1B45945   7.760  18.910  14.550
 2007DOPG   D2B45946   7.930  18.800  14.150
 2007DOPG   C3B45947   8.260  18.520  14.220
 2007DOPG   C4B45948   8.260  18.090  14.040
 2008DOPG   GL045949  10.490  11.700   6.470
 2008DOPG   PO445950  10.330  11.330   6.720
 2008DOPG   GL145951  10.330  11.620   6.980
 2008DOPG   GL245952  10.470  11.380   7.250
 2008DOPG   C1A45953  10.500  12.020   7.110
 2008DOPG   D2A45954  10.820  12.370   7.040
 2008DOPG   C3A45955  10.830  12.750   7.060
 2008DOPG   C4A45956  10.590  13.040   6.970
 2008DOPG   C1B45957  10.860  11.640   7.170
 2008DOPG   D2B45958  10.960  12.020   7.360
 2008DOPG   C3B45959  11.220  12.240   7.340
 2008DOPG   C4B45960  11.290  12.620   7.430
 2009DOPG   GL045961  20.130  17.760   8.140
 2009DOPG   PO445962  20.370  17.470   7.980
 2009DOPG   GL145963  20.500  17.420   8.440
 2009DOPG   GL245964  20.370  17.710   8.540
 2009DOPG   C1A45965  20.310  17.370   8.900
 2009DOPG   D2A45966  20.450  17.260   9.290
 2009DOPG   C3A45967  20.300  17.240   9.680
 2009DOPG   C4A45968  20.250  17.080  10.060
 2009DOPG   C1B45969  20.480  17.850   8.930
 2009DOPG   D2B45970  20.630  18.290   9.000
 2009DOPG   C3B45971  20.690  18.250   9.480
 2009DOPG   C4B45972  21.010  18.180   9.750
 2010DOPG   GL045973  20.360  22.990  13.490
 2010DOPG   PO445974  20.390  23.420  13.400
 2010DOPG   GL145975  20.450  23.770  13.250
 2010DOPG   GL245976  20.170  23.770  13.150
 2010DOPG   C1A45977  20.690  24.170  13.180
 2010DOPG   D2A45978  20.520  24.490  12.950
 2010DOPG   C3A45979  20.490  24.870  13.210
 2010DOPG   C4A45980  20.430  25.230  13.050
 2010DOPG   C1B45981  20.100  24.180  12.970
 2010DOPG   D2B45982  20.050  24.610  13.030
 2010DOPG   C3B45983  20.140  24.860  12.700
 2010DOPG   C4B45984  20.220  25.110  12.330
 2011DOPG   GL045985  24.800  10.430  19.000
 2011DOPG   PO445986  24.960  10.130  19.280
 2011DOPG   GL145987  25.050   9.750  19.580
 2011DOPG   GL245988  24.940   9.780  19.780
 2011DOPG   C1A45989  25.380   9.620  19.950
 2011DOPG   D2A45990  25.830   9.530  19.980
 2011DOPG   C3A45991  25.940   9.320  20.390
 2011DOPG   C4A45992  26.260   9.510  20.690
 2011DOPG   C1B45993  25.010   9.810  20.270
 2011DOPG   D2B45994  25.190   9.900  20.620
 2011DOPG   C3B45995  25.190   9.470  20.840
 2011DOPG   C4B45996  25.330   9.220  21.230
 2012DOPG   GL045997  26.270  17.650  12.000
 2012DOPG   PO445998  26.560  17.340  11.960
 2012DOPG   GL145999  26.280  17.070  12.180
 2012DOPG   GL246000  26.060  17.230  12.370
 2012DOPG   C1A46001  26.260  16.760  12.400
 2012DOPG   D2A46002  26.240  16.480  12.720
 2012DOPG   C3A46003  26.070  16.450  13.100
 2012DOPG   C4A46004  25.880  16.230  13.430
 2012DOPG   C1B46005  25.640  17.210  12.580
 2012DOPG   D2B46006  25.270  16.980  12.740
 2012DOPG   C3B46007  24.870  17.010  12.820
 2012DOPG   C4B46008  24.610  16.590  12.860
 2013DOPG   GL046009  17.410  17.540  18.000
 2013DOPG   PO446010  17.290  17.960  17.860
 2013DOPG   GL146011  17.260  17.840  17.520
 2013DOPG   GL246012  17.590  17.810  17.390
 2013DOPG   C1A46013  17.100  17.770  17.010
 2013DOPG   D2A46014  16.920  17.350  16.720
 2013DOPG   C3A46015  16.630  17.090  16.560
 2013DOPG   C4A46016  16.630  16.650  16.590
 2013DOPG   C1B46017  17.960  17.820  17.210
 2013DOPG   D2B46018  18.130  18.060  16.760
 2013DOPG   C3B46019  18.500  18.080  16.470
 2013DOPG   C4B46020  18.890  17.970  16.360
 2014DOPG   GL046021  17.310  13.280   8.150
 2014DOPG   PO446022  17.720  13.400   8.180
 2014DOPG   GL146023  17.970  13.510   8.580
 2014DOPG   GL246024  17.930  13.310   8.790
 2014DOPG   C1A46025  18.320  13.650   8.770
 2014DOPG   D2A46026  18.700  13.620   9.000
 2014DOPG   C3A46027  18.850  13.920   9.350
 2014DOPG   C4A46028  18.780  14.050   9.640
 2014DOPG   C1B46029  17.770  13.270   9.260
 2014DOPG   D2B46030  17.360  13.520   9.400
 2014DOPG   C3B46031  17.400  13.970   9.530
 2014DOPG   C4B46032  17.260  14.360   9.440
 2015DOPG   GL046033  25.120  22.420  20.700
 2015DOPG   PO446034  25.380  22.650  20.410
 2015DOPG   GL146035  25.400  22.340  20.110
 2015DOPG   GL246036  25.630  22.290  19.970
 2015DOPG   C1A46037  25.100  22.230  19.920
 2015DOPG   D2A46038  24.780  22.160  19.690
 2015DOPG   C3A46039  24.680  21.870  19.460
 2015DOPG   C4A46040  24.680  21.690  19.080
 2015DOPG   C1B46041  25.610  22.020  19.750
 2015DOPG   D2B46042  25.600  21.670  19.610
 2015DOPG   C3B46043  25.500  21.250  19.410
 2015DOPG   C4B46044  25.770  20.880  19.460
 2016DOPG   GL046045  10.920  12.930  12.250
 2016DOPG   PO446046  10.660  12.930  11.880
 2016DOPG   GL146047  10.350  12.610  11.640
 2016DOPG   GL246048  10.490  12.260  11.470
 2016DOPG   C1A46049   9.940  12.400  11.600
 2016DOPG   D2A46050   9.600  12.150  11.510
 2016DOPG   C3A46051   9.310  12.430  11.700
 2016DOPG   C4A46052   9.230  12.850  11.750
 2016DOPG   C1B46053  10.310  12.170  11.000
 2016DOPG   D2B46054  10.160  12.080  10.650
 2016DOPG   C3B46055   9.820  11.840  10.630
 2016DOPG   C4B46056   9.530  11.630  10.980
 2017DOPG   GL046057  18.470  16.820   7.850
 2017DOPG   PO446058  17.980  16.930   8.070
 2017DOPG   GL146059  18.160  16.940   8.490
 2017DOPG   GL246060  18.020  16.740   8.640
 2017DOPG   C1A46061  18.120  17.100   8.990
 2017DOPG   D2A46062  18.380  16.910   9.310
 2017DOPG   C3A46063  18.800  16.780   9.310
 2017DOPG   C4A46064  19.140  16.600   9.560
 2017DOPG   C1B46065  18.000  16.620   9.090
 2017DOPG   D2B46066  18.090  16.500   9.520
 2017DOPG   C3B46067  18.360  16.740   9.820
 2017DOPG   C4B46068  18.770  16.820   9.910
 2018DOPG   GL046069   9.220  17.320  20.050
 2018DOPG   PO446070   9.320  16.970  19.870
 2018DOPG   GL146071   9.570  16.650  19.700
 2018DOPG   GL246072   9.740  16.590  20.010
 2018DOPG   C1A46073   9.690  16.310  19.550
 2018DOPG   D2A46074  10.030  16.200  19.520
 2018DOPG   C3A46075  10.390  16.080  19.330
 2018DOPG   C4A46076  10.880  15.990  19.110
 2018DOPG   C1B46077  10.070  16.720  19.730
 2018DOPG   D2B46078  10.410  16.580  19.440
 2018DOPG   C3B46079  10.140  16.530  19.020
 2018DOPG   C4B46080  10.070  16.240  18.930
 2019DOPG   GL046081  27.010  12.740  10.510
 2019DOPG   PO446082  27.070  12.590  10.150
 2019DOPG   GL146083  27.440  12.720  10.000
 2019DOPG   GL246084  27.550  12.420   9.890
 2019DOPG   C1A46085  27.520  12.790   9.540
 2019DOPG   D2A46086  27.780  12.620   9.180
 2019DOPG   C3A46087  28.200  12.710   9.040
 2019DOPG   C4A46088  28.670  12.740   9.070
 2019DOPG   C1B46089  27.980  12.290   9.670
 2019DOPG   D2B46090  28.320  12.550   9.470
 2019DOPG   C3B46091  28.830  12.520   9.560
 2019DOPG   C4B46092  29.090  12.300   9.620
 2020DOPG   GL046093  13.970  10.340  19.340
 2020DOPG   PO446094  13.930  10.120  18.980
 2020DOPG   GL146095  13.440  10.150  19.120
 2020DOPG   GL246096  13.440  10.430  19.220
 2020DOPG   C1A46097  13.130   9.970  19.390
 2020DOPG   D2A46098  12.720   9.770  19.660
 2020DOPG   C3A46099  12.350   9.450  19.560
 2020DOPG   C4A46100  11.930   9.260  19.720
 2020DOPG   C1B46101  13.000  10.410  19.490
 2020DOPG   D2B46102  12.840  10.570  19.910
 2020DOPG   C3B46103  12.550  10.310  20.050
 2020DOPG   C4B46104  12.330  10.420  20.420
 2021DOPG   GL046105  11.970  18.530  12.140
 2021DOPG   PO446106  12.270  18.230  12.360
 2021DOPG   GL146107  12.570  17.900  12.440
 2021DOPG   GL246108  12.940  17.950  12.360
 2021DOPG   C1A46109  12.730  17.450  12.280
 2021DOPG   D2A46110  12.890  17.050  12.300
 2021DOPG   C3A46111  13.450  17.110  12.190
 2021DOPG   C4A46112  13.750  16.890  12.410
 2021DOPG   C1B46113  13.240  18.150  12.600
 2021DOPG   D2B46114  13.480  17.880  12.870
 2021DOPG   C3B46115  13.800  18.060  12.890
 2021DOPG   C4B46116  14.110  18.120  12.610
 2022DOPG   GL046117  17.420  14.300   8.100
 2022DOPG   PO446118  17.810  14.480   8.100
 2022DOPG   GL146119  18.170  14.500   8.330
 2022DOPG   GL246120  18.500  14.620   8.310
 2022DOPG   C1A46121  18.320  14.160   8.760
 2022DOPG   D2A46122  18.230  14.060   9.150
 2022DOPG   C3A46123  17.840  14.230   9.430
 2022DOPG   C4A46124  17.650  14.590   9.660
 2022DOPG   C1B46125  18.420  14.620   8.810
 2022DOPG   D2B46126  18.370  14.720   9.260
 2022DOPG   C3B46127  18.360  14.410   9.560
 2022DOPG   C4B46128  18.220  14.010   9.670
 2023DOPG   GL046129  21.100  22.590  13.820
 2023DOPG   PO446130  21.090  22.350  14.230
 2023DOPG   GL146131  20.750  22.170  13.970
 2023DOPG   GL246132  20.750  21.990  14.270
 2023DOPG   C1A46133  20.440  21.870  13.850
 2023DOPG   D2A46134  20.260  21.450  13.740
 2023DOPG   C3A46135  20.510  21.090  13.420
 2023DOPG   C4A46136  20.950  20.870  13.230
 2023DOPG   C1B46137  20.720  21.770  14.540
 2023DOPG   D2B46138  20.520  21.350  14.670
 2023DOPG   C3B46139  20.590  20.950  14.410
 2023DOPG   C4B46140  20.350  20.620  14.300
 2024DOPG   GL046141  25.080   7.510  12.910
 2024DOPG   PO446142  24.670   7.380  12.800
 2024DOPG   GL146143  24.310   7.520  13.000
 2024DOPG   GL246144  24.220   7.650  13.290
 2024DOPG   C1A46145  23.860   7.400  13.050
 2024DOPG   D2A46146  23.800   7.360  13.470
 2024DOPG   C3A46147  23.430   7.270  13.520
 2024DOPG   C4A46148  23.130   7.490  13.820
 2024DOPG   C1B46149  24.070   7.850  13.650
 2024DOPG   D2B46150  23.860   8.240  13.860
 2024DOPG   C3B46151  23.740   8.360  14.240
 2024DOPG   C4B46152  23.780   8.370  14.610
 2025DOPG   GL046153  15.190  15.360  18.500
 2025DOPG   PO446154  15.380  15.040  18.210
 2025DOPG   GL146155  15.600  15.410  18.070
 2025DOPG   GL246156  15.890  15.400  18.070
 2025DOPG   C1A46157  15.650  15.410  17.620
 2025DOPG   D2A46158  15.510  15.430  17.140
 2025DOPG   C3A46159  15.740  15.450  16.760
 2025DOPG   C4A46160  15.870  15.470  16.370
 2025DOPG   C1B46161  16.230  15.480  17.790
 2025DOPG   D2B46162  16.760  15.510  17.740
 2025DOPG   C3B46163  16.860  15.940  17.500
 2025DOPG   C4B46164  17.110  16.290  17.490
 2026DOPG   GL046165  23.310  27.190  12.770
 2026DOPG   PO446166  23.010  26.910  12.760
 2026DOPG   GL146167  22.820  26.520  12.800
 2026DOPG   GL246168  23.080  26.230  12.670
 2026DOPG   C1A46169  22.610  26.170  12.910
 2026DOPG   D2A46170  22.220  26.080  13.110
 2026DOPG   C3A46171  22.140  25.680  13.160
 2026DOPG   C4A46172  21.900  25.260  12.930
 2026DOPG   C1B46173  22.780  25.820  12.640
 2026DOPG   D2B46174  22.500  25.580  12.870
 2026DOPG   C3B46175  22.430  25.210  13.100
 2026DOPG   C4B46176  22.140  25.050  13.480
 2027DOPG   GL046177  13.160  15.960  16.470
 2027DOPG   PO446178  12.710  15.950  16.280
 2027DOPG   GL146179  12.930  16.190  16.050
 2027DOPG   GL246180  13.000  16.300  15.870
 2027DOPG   C1A46181  13.420  16.260  16.130
 2027DOPG   D2A46182  13.770  16.570  16.160
 2027DOPG   C3A46183  14.100  16.750  15.880
 2027DOPG   C4A46184  14.430  16.810  15.480
 2027DOPG   C1B46185  13.170  16.620  15.780
 2027DOPG   D2B46186  13.470  16.910  15.530
 2027DOPG   C3B46187  13.930  16.900  15.380
 2027DOPG   C4B46188  14.050  16.880  14.990
 2028DOPG   GL046189  21.150  20.680  17.270
 2028DOPG   PO446190  20.690  20.680  17.290
 2028DOPG   GL146191  20.860  20.510  16.890
 2028DOPG   GL246192  21.100  20.510  16.710
 2028DOPG   C1A46193  20.750  20.220  16.510
 2028DOPG   D2A46194  20.410  19.990  16.390
 2028DOPG   C3A46195  20.360  19.830  15.970
 2028DOPG   C4A46196  20.760  19.720  15.750
 2028DOPG   C1B46197  21.130  20.040  16.940
 2028DOPG   D2B46198  21.420  19.680  16.930
 2028DOPG   C3B46199  21.640  19.480  16.620
 2028DOPG   C4B46200  21.970  19.220  16.590
 2029DOPG   GL046201  26.130  15.320  16.870
 2029DOPG   PO446202  26.010  15.030  17.290
 2029DOPG   GL146203  25.710  15.020  16.900
 2029DOPG   GL246204  25.700  15.210  16.680
 2029DOPG   C1A46205  25.190  15.140  16.780
 2029DOPG   D2A46206  24.800  14.920  16.750
 2029DOPG   C3A46207  24.890  14.410  16.800
 2029DOPG   C4A46208  24.890  14.030  16.950
 2029DOPG   C1B46209  25.640  14.870  16.440
 2029DOPG   D2B46210  25.380  14.500  16.300
 2029DOPG   C3B46211  25.140  14.480  15.970
 2029DOPG   C4B46212  24.810  14.520  15.590
 2030DOPG   GL046213  12.860   8.540  14.110
 2030DOPG   PO446214  12.750   8.260  13.780
 2030DOPG   GL146215  12.620   7.960  13.630
 2030DOPG   GL246216  12.700   7.860  13.330
 2030DOPG   C1A46217  12.180   7.840  13.440
 2030DOPG   D2A46218  12.090   7.410  13.230
 2030DOPG   C3A46219  12.400   7.030  13.060
 2030DOPG   C4A46220  12.270   6.650  12.900
 2030DOPG   C1B46221  12.540   7.430  13.360
 2030DOPG   D2B46222  12.230   7.040  13.540
 2030DOPG   C3B46223  12.120   7.040  13.990
 2030DOPG   C4B46224  12.010   7.320  14.320
 2031DOPG   GL046225   6.180  17.070  13.730
 2031DOPG   PO446226   6.290  17.450  13.900
 2031DOPG   GL146227   6.760  17.540  13.690
 2031DOPG   GL246228   6.760  17.810  13.420
 2031DOPG   C1A46229   7.160  17.330  13.830
 2031DOPG   D2A46230   7.210  16.930  13.640
 2031DOPG   C3A46231   7.040  16.600  13.890
 2031DOPG   C4A46232   7.020  16.210  13.850
 2031DOPG   C1B46233   6.930  17.540  13.210
 2031DOPG   D2B46234   6.950  17.140  13.190
 2031DOPG   C3B46235   7.210  16.950  12.910
 2031DOPG   C4B46236   7.610  16.750  12.840
 2032DOPG   GL046237  12.040   4.180  19.310
 2032DOPG   PO446238  12.510   4.170  19.260
 2032DOPG   GL146239  12.880   4.420  19.300
 2032DOPG   GL246240  13.050   4.230  19.480
 2032DOPG   C1A46241  12.960   4.570  18.780
 2032DOPG   D2A46242  12.890   4.690  18.400
 2032DOPG   C3A46243  13.080   4.420  18.090
 2032DOPG   C4A46244  13.010   3.950  17.940
 2032DOPG   C1B46245  13.400   4.440  19.210
 2032DOPG   D2B46246  13.450   4.900  19.150
 2032DOPG   C3B46247  13.660   5.240  19.450
 2032DOPG   C4B46248  13.670   5.470  19.730
 2033DOPG   GL046249   7.660  12.550  20.200
 2033DOPG   PO446250   7.830  12.590  19.740
 2033DOPG   GL146251   8.190  12.590  19.500
 2033DOPG   GL246252   8.350  12.320  19.580
 2033DOPG   C1A46253   8.530  12.840  19.210
 2033DOPG   D2A46254   8.710  13.210  19.160
 2033DOPG   C3A46255   9.140  13.240  18.830
 2033DOPG   C4A46256   9.400  13.360  18.470
 2033DOPG   C1B46257   8.510  11.900  19.450
 2033DOPG   D2B46258   8.860  11.760  19.240
 2033DOPG   C3B46259   9.200  11.950  19.060
 2033DOPG   C4B46260   9.410  12.280  18.750
 2034DOPG   GL046261  13.950  24.420  19.390
 2034DOPG   PO446262  14.450  24.510  19.240
 2034DOPG   GL146263  14.790  24.400  19.010
 2034DOPG   GL246264  14.750  24.120  19.140
 2034DOPG   C1A46265  14.830  24.160  18.650
 2034DOPG   D2A46266  14.940  23.930  18.280
 2034DOPG   C3A46267  14.890  23.480  18.330
 2034DOPG   C4A46268  15.000  23.010  18.440
 2034DOPG   C1B46269  14.670  23.740  18.830
 2034DOPG   D2B46270  14.370  23.470  18.460
 2034DOPG   C3B46271  14.430  23.100  18.440
 2034DOPG   C4B46272  14.270  22.790  18.100
 2035DOPG   GL046273   9.260   5.200  14.540
 2035DOPG   PO446274   9.540   5.240  14.370
 2035DOPG   GL146275   9.940   5.400  14.310
 2035DOPG   GL246276  10.160   5.280  14.140
 2035DOPG   C1A46277  10.220   5.640  14.640
 2035DOPG   D2A46278  10.620   5.780  14.730
 2035DOPG   C3A46279  10.720   6.040  14.410
 2035DOPG   C4A46280  10.660   6.370  14.110
 2035DOPG   C1B46281  10.530   5.400  14.180
 2035DOPG   D2B46282  10.970   5.530  14.320
 2035DOPG   C3B46283  11.350   5.620  14.090
 2035DOPG   C4B46284  11.690   5.510  13.820
 2036DOPG   GL046285  12.970  16.580   4.030
 2036DOPG   PO446286  13.190  16.340   4.260
 2036DOPG   GL146287  13.440  16.290   4.780
 2036DOPG   GL246288  13.780  16.470   4.720
 2036DOPG   C1A46289  13.460  16.130   5.120
 2036DOPG   D2A46290  13.560  15.920   5.520
 2036DOPG   C3A46291  13.990  15.770   5.750
 2036DOPG   C4A46292  14.120  15.640   6.120
 2036DOPG   C1B46293  14.050  16.500   5.130
 2036DOPG   D2B46294  14.350  16.470   5.500
 2036DOPG   C3B46295  14.150  16.700   5.790
 2036DOPG   C4B46296  14.030  17.040   6.070
 2037DOPG   GL046297   7.270   9.870  16.110
 2037DOPG   PO446298   7.180  10.350  16.090
 2037DOPG   GL146299   7.610  10.270  16.190
 2037DOPG   GL246300   7.610  10.160  15.860
 2037DOPG   C1A46301   7.980  10.160  16.170
 2037DOPG   D2A46302   8.230   9.790  16.140
 2037DOPG   C3A46303   8.100   9.500  15.900
 2037DOPG   C4A46304   8.060   9.050  15.810
 2037DOPG   C1B46305   7.650  10.540  15.730
 2037DOPG   D2B46306   7.420  10.880  15.450
 2037DOPG   C3B46307   7.760  11.090  15.350
 2037DOPG   C4B46308   7.950  11.550  15.320
 2038DOPG   GL046309  24.430   4.520  21.930
 2038DOPG   PO446310  24.290   4.790  21.700
 2038DOPG   GL146311  24.350   5.100  21.500
 2038DOPG   GL246312  24.430   5.000  21.270
 2038DOPG   C1A46313  24.410   5.560  21.200
 2038DOPG   D2A46314  24.350   5.800  20.850
 2038DOPG   C3A46315  24.060   5.620  20.580
 2038DOPG   C4A46316  23.850   5.200  20.570
 2038DOPG   C1B46317  24.010   5.000  21.210
 2038DOPG   D2B46318  23.710   4.790  20.840
 2038DOPG   C3B46319  23.300   4.690  20.800
 2038DOPG   C4B46320  22.890   4.830  20.860
 2039DOPG   GL046321  14.460  11.090  11.180
 2039DOPG   PO446322  14.480  11.540  11.250
 2039DOPG   GL146323  14.800  11.820  11.210
 2039DOPG   GL246324  14.820  11.870  11.000
 2039DOPG   C1A46325  14.920  12.230  11.360
 2039DOPG   D2A46326  14.720  12.430  11.670
 2039DOPG   C3A46327  14.880  12.760  11.660
 2039DOPG   C4A46328  14.790  13.160  11.520
 2039DOPG   C1B46329  15.050  12.210  10.850
 2039DOPG   D2B46330  15.340  12.410  11.070
 2039DOPG   C3B46331  15.260  12.560  11.490
 2039DOPG   C4B46332  15.330  12.940  11.730
 2040DOPG   GL046333  14.640  17.590  18.040
 2040DOPG   PO446334  14.630  17.150  17.820
 2040DOPG   GL146335  14.940  17.040  17.540
 2040DOPG   GL246336  15.190  17.020  17.430
 2040DOPG   C1A46337  14.850  17.190  17.100
 2040DOPG   D2A46338  14.630  17.030  16.850
 2040DOPG   C3A46339  14.300  16.840  17.030
 2040DOPG   C4A46340  13.900  16.650  16.940
 2040DOPG   C1B46341  15.000  16.650  17.230
 2040DOPG   D2B46342  14.630  16.470  17.040
 2040DOPG   C3B46343  14.760  16.570  16.530
 2040DOPG   C4B46344  15.000  16.800  16.190
 2041DOPG   GL046345   9.890   9.880  20.650
 2041DOPG   PO446346   9.620   9.700  20.640
 2041DOPG   GL146347   9.940   9.380  20.490
 2041DOPG   GL246348  10.080   9.340  20.680
 2041DOPG   C1A46349  10.070   9.300  20.070
 2041DOPG   D2A46350  10.160   9.330  19.680
 2041DOPG   C3A46351  10.130   9.810  19.680
 2041DOPG   C4A46352  10.470  10.020  19.470
 2041DOPG   C1B46353  10.290   9.770  20.450
 2041DOPG   D2B46354  10.500  10.170  20.770
 2041DOPG   C3B46355  10.840  10.410  20.850
 2041DOPG   C4B46356  11.060  10.890  20.970
 2042DOPG   GL046357  29.820  12.580   7.350
 2042DOPG   PO446358  30.060  12.700   7.690
 2042DOPG   GL146359  29.740  12.530   7.970
 2042DOPG   GL246360  29.620  12.160   7.980
 2042DOPG   C1A46361  29.280  12.620   8.010
 2042DOPG   D2A46362  29.120  12.940   7.980
 2042DOPG   C3A46363  29.120  13.330   8.300
 2042DOPG   C4A46364  28.970  13.270   8.710
 2042DOPG   C1B46365  29.270  12.190   8.360
 2042DOPG   D2B46366  28.850  12.150   8.560
 2042DOPG   C3B46367  28.620  11.840   8.820
 2042DOPG   C4B46368  28.320  11.550   9.000
 2043DOPG   GL046369  27.650  18.080  13.390
 2043DOPG   PO446370  27.560  17.990  12.990
 2043DOPG   GL146371  27.820  18.330  12.950
 2043DOPG   GL246372  28.010  18.400  13.200
 2043DOPG   C1A46373  28.260  18.430  12.720
 2043DOPG   D2A46374  28.620  18.420  12.670
 2043DOPG   C3A46375  28.680  18.620  12.360
 2043DOPG   C4A46376  28.990  18.850  12.080
 2043DOPG   C1B46377  28.400  18.580  13.180
 2043DOPG   D2B46378  28.840  18.550  13.140
 2043DOPG   C3B46379  29.060  18.970  13.250
 2043DOPG   C4B46380  29.240  19.400  13.380
 2044DOPG   GL046381  24.000  20.850  14.790
 2044DOPG   PO446382  23.530  20.720  14.800
 2044DOPG   GL146383  23.420  20.490  14.560
 2044DOPG   GL246384  23.650  20.220  14.540
 2044DOPG   C1A46385  23.050  20.570  14.140
 2044DOPG   D2A46386  22.560  20.740  14.160
 2044DOPG   C3A46387  22.090  20.730  14.200
 2044DOPG   C4A46388  21.830  20.500  14.370
 2044DOPG   C1B46389  23.650  19.850  14.810
 2044DOPG   D2B46390  23.420  19.600  15.120
 2044DOPG   C3B46391  23.460  19.430  15.490
 2044DOPG   C4B46392  23.570  19.090  15.810
 2045DOPG   GL046393  23.260  25.230  19.390
 2045DOPG   PO446394  23.530  24.900  19.220
 2045DOPG   GL146395  23.380  24.520  19.200
 2045DOPG   GL246396  23.010  24.560  19.000
 2045DOPG   C1A46397  23.390  24.160  18.950
 2045DOPG   D2A46398  23.570  23.980  18.590
 2045DOPG   C3A46399  23.340  23.750  18.410
 2045DOPG   C4A46400  23.110  23.710  18.110
 2045DOPG   C1B46401  22.610  24.800  18.860
 2045DOPG   D2B46402  22.420  24.970  18.510
 2045DOPG   C3B46403  22.100  24.850  18.100
 2045DOPG   C4B46404  21.700  24.640  18.050
 2046DOPG   GL046405  25.930  15.780   9.610
 2046DOPG   PO446406  25.730  15.840   9.970
 2046DOPG   GL146407  25.290  15.920  10.040
 2046DOPG   GL246408  25.240  15.760  10.380
 2046DOPG   C1A46409  25.130  16.240  10.460
 2046DOPG   D2A46410  25.080  16.320  10.920
 2046DOPG   C3A46411  24.610  16.210  11.110
 2046DOPG   C4A46412  24.190  16.060  10.950
 2046DOPG   C1B46413  25.320  15.810  10.790
 2046DOPG   D2B46414  25.010  15.870  11.100
 2046DOPG   C3B46415  24.810  15.410  11.130
 2046DOPG   C4B46416  24.500  15.150  11.120
 2047DOPG   GL046417  23.030  25.950  18.840
 2047DOPG   PO446418  22.760  25.810  18.510
 2047DOPG   GL146419  22.450  25.490  18.330
 2047DOPG   GL246420  22.390  25.580  18.030
 2047DOPG   C1A46421  22.010  25.290  18.430
 2047DOPG   D2A46422  21.720  25.060  18.320
 2047DOPG   C3A46423  21.570  24.770  18.720
 2047DOPG   C4A46424  21.530  24.300  18.840
 2047DOPG   C1B46425  22.080  25.330  17.960
 2047DOPG   D2B46426  21.980  25.050  17.630
 2047DOPG   C3B46427  22.010  24.590  17.630
 2047DOPG   C4B46428  21.780  24.290  17.420
 2048DOPG   GL046429  13.620  10.890  18.460
 2048DOPG   PO446430  14.060  11.090  18.590
 2048DOPG   GL146431  13.730  11.110  18.960
 2048DOPG   GL246432  13.540  11.320  18.920
 2048DOPG   C1A46433  13.680  10.920  19.300
 2048DOPG   D2A46434  13.550  10.740  19.660
 2048DOPG   C3A46435  13.360  10.850  20.050
 2048DOPG   C4A46436  13.120  10.630  20.270
 2048DOPG   C1B46437  13.250  11.140  19.250
 2048DOPG   D2B46438  12.960  10.900  19.530
 2048DOPG   C3B46439  12.760  11.170  19.680
 2048DOPG   C4B46440  12.460  11.480  19.990
 2049DOPG   GL046441  19.830  22.660  14.360
 2049DOPG   PO446442  19.800  22.350  14.700
 2049DOPG   GL146443  20.100  22.030  14.560
 2049DOPG   GL246444  20.130  21.780  14.840
 2049DOPG   C1A46445  20.330  21.690  14.300
 2049DOPG   D2A46446  20.450  21.360  14.200
 2049DOPG   C3A46447  20.370  21.000  13.970
 2049DOPG   C4A46448  20.550  20.670  13.740
 2049DOPG   C1B46449  19.980  21.440  14.680
 2049DOPG   D2B46450  20.110  21.110  14.530
 2049DOPG   C3B46451  20.000  20.710  14.640
 2049DOPG   C4B46452  19.970  20.480  14.830
 2050DOPG   GL046453   9.140  19.860  19.240
 2050DOPG   PO446454   9.140  19.550  19.420
 2050DOPG   GL146455   9.490  19.610  19.000
 2050DOPG   GL246456   9.610  19.890  19.190
 2050DOPG   C1A46457   9.650  19.270  18.660
 2050DOPG   D2A46458   9.820  18.820  18.540
 2050DOPG   C3A46459  10.180  18.960  18.410
 2050DOPG   C4A46460  10.540  19.130  18.180
 2050DOPG   C1B46461  10.000  19.720  19.200
 2050DOPG   D2B46462  10.130  19.400  18.920
 2050DOPG   C3B46463  10.460  19.300  18.610
 2050DOPG   C4B46464  10.780  19.520  18.380
 2051DOPG   GL046465  11.830  18.050  12.950
 2051DOPG   PO446466  12.010  18.090  13.350
 2051DOPG   GL146467  12.280  18.170  13.490
 2051DOPG   GL246468  12.410  18.470  13.300
 2051DOPG   C1A46469  12.740  18.150  13.400
 2051DOPG   D2A46470  13.050  17.910  13.390
 2051DOPG   C3A46471  13.090  17.620  13.140
 2051DOPG   C4A46472  13.050  17.240  13.140
 2051DOPG   C1B46473  12.750  18.620  13.440
 2051DOPG   D2B46474  13.090  18.900  13.360
 2051DOPG   C3B46475  13.540  18.850  13.430
 2051DOPG   C4B46476  13.970  18.860  13.630
 2052DOPG   GL046477   8.810   9.480   9.740
 2052DOPG   PO446478   8.980   9.130   9.620
 2052DOPG   GL146479   9.290   9.360   9.740
 2052DOPG   GL246480   9.300   9.680   9.620
 2052DOPG   C1A46481   9.580   9.240  10.030
 2052DOPG   D2A46482   9.990   9.430  10.120
 2052DOPG   C3A46483  10.040   9.440  10.640
 2052DOPG   C4A46484  10.110   9.620  11.050
 2052DOPG   C1B46485   9.600   9.880   9.780
 2052DOPG   D2B46486   9.870  10.020  10.170
 2052DOPG   C3B46487  10.160  10.200  10.050
 2052DOPG   C4B46488  10.560  10.120  10.030
 2053DOPG   GL046489  25.910  11.940  17.800
 2053DOPG   PO446490  25.790  11.550  17.540
 2053DOPG   GL146491  25.450  11.600  17.280
 2053DOPG   GL246492  25.590  11.460  16.970
 2053DOPG   C1A46493  25.130  11.840  17.030
 2053DOPG   D2A46494  24.920  11.550  16.640
 2053DOPG   C3A46495  24.680  11.720  16.400
 2053DOPG   C4A46496  24.550  11.370  16.170
 2053DOPG   C1B46497  25.430  11.610  16.660
 2053DOPG   D2B46498  25.370  11.410  16.210
 2053DOPG   C3B46499  25.000  11.510  16.010
 2053DOPG   C4B46500  24.870  11.360  15.610
 2054DOPG   GL046501  20.900  14.000  15.440
 2054DOPG   PO446502  21.250  13.770  15.260
 2054DOPG   GL146503  21.340  13.840  15.750
 2054DOPG   GL246504  21.670  13.910  15.870
 2054DOPG   C1A46505  21.040  14.030  16.140
 2054DOPG   D2A46506  20.920  13.820  16.530
 2054DOPG   C3A46507  20.700  14.110  16.670
 2054DOPG   C4A46508  20.460  14.300  16.430
 2054DOPG   C1B46509  21.540  13.910  16.270
 2054DOPG   D2B46510  21.510  14.140  16.660
 2054DOPG   C3B46511  21.600  14.120  17.080
 2054DOPG   C4B46512  21.880  13.910  17.320
 2055DOPG   GL046513  28.020  12.610  12.940
 2055DOPG   PO446514  27.660  12.510  13.170
 2055DOPG   GL146515  27.280  12.300  13.090
 2055DOPG   GL246516  27.160  11.940  13.180
 2055DOPG   C1A46517  26.900  12.100  12.820
 2055DOPG   D2A46518  26.650  11.690  12.870
 2055DOPG   C3A46519  26.260  11.700  12.910
 2055DOPG   C4A46520  25.950  11.630  12.910
 2055DOPG   C1B46521  27.050  11.880  13.670
 2055DOPG   D2B46522  26.610  11.780  13.860
 2055DOPG   C3B46523  26.380  11.940  14.200
 2055DOPG   C4B46524  26.160  12.280  14.090
 2056DOPG   GL046525  16.940  14.730  24.750
 2056DOPG   PO446526  17.090  14.870  24.430
 2056DOPG   GL146527  17.070  14.800  23.930
 2056DOPG   GL246528  16.810  14.930  23.710
 2056DOPG   C1A46529  17.180  14.530  23.570
 2056DOPG   D2A46530  17.290  14.650  23.180
 2056DOPG   C3A46531  17.190  14.560  22.820
 2056DOPG   C4A46532  16.800  14.540  22.580
 2056DOPG   C1B46533  16.480  15.020  23.450
 2056DOPG   D2B46534  16.220  14.620  23.380
 2056DOPG   C3B46535  16.110  14.430  23.020
 2056DOPG   C4B46536  16.160  14.450  22.660
 2057DOPG   GL046537  25.810  20.060  13.220
 2057DOPG   PO446538  26.050  20.360  13.030
 2057DOPG   GL146539  26.430  20.520  12.970
 2057DOPG   GL246540  26.750  20.350  12.870
 2057DOPG   C1A46541  26.800  20.810  12.960
 2057DOPG   D2A46542  26.870  21.290  12.940
 2057DOPG   C3A46543  27.310  21.360  13.010
 2057DOPG   C4A46544  27.570  21.320  13.380
 2057DOPG   C1B46545  27.000  20.420  13.270
 2057DOPG   D2B46546  27.310  20.310  13.620
 2057DOPG   C3B46547  27.830  20.550  13.640
 2057DOPG   C4B46548  28.140  20.760  13.660
 2058DOPG   GL046549  24.700  18.790   9.420
 2058DOPG   PO446550  24.890  18.950   9.040
 2058DOPG   GL146551  25.200  19.180   8.760
 2058DOPG   GL246552  25.280  18.980   8.370
 2058DOPG   C1A46553  25.260  19.520   8.490
 2058DOPG   D2A46554  25.520  19.780   8.270
 2058DOPG   C3A46555  25.630  19.660   7.910
 2058DOPG   C4A46556  25.760  19.410   7.570
 2058DOPG   C1B46557  25.490  19.230   8.100
 2058DOPG   D2B46558  25.270  19.200   7.580
 2058DOPG   C3B46559  24.860  19.340   7.550
 2058DOPG   C4B46560  24.700  19.740   7.380
 2059DOPG   GL046561  20.750  11.470  25.140
 2059DOPG   PO446562  20.780  11.150  24.870
 2059DOPG   GL146563  20.680  11.310  24.480
 2059DOPG   GL246564  20.960  11.270  24.390
 2059DOPG   C1A46565  20.640  11.510  24.080
 2059DOPG   D2A46566  20.800  11.680  23.740
 2059DOPG   C3A46567  20.590  11.400  23.570
 2059DOPG   C4A46568  20.450  11.090  23.300
 2059DOPG   C1B46569  20.830  11.080  23.980
 2059DOPG   D2B46570  20.860  10.810  23.630
 2059DOPG   C3B46571  20.920  11.000  23.270
 2059DOPG   C4B46572  21.090  11.200  22.910
 2060DOPG   GL046573  14.300  11.680  14.740
 2060DOPG   PO446574  13.950  11.860  14.610
 2060DOPG   GL146575  14.150  12.070  14.300
 2060DOPG   GL246576  14.290  11.760  14.100
 2060DOPG   C1A46577  14.510  12.250  14.080
 2060DOPG   D2A46578  14.910  12.480  13.970
 2060DOPG   C3A46579  15.250  12.800  13.970
 2060DOPG   C4A46580  15.570  13.040  13.890
 2060DOPG   C1B46581  14.480  11.920  13.650
 2060DOPG   D2B46582  14.920  12.020  13.720
 2060DOPG   C3B46583  15.210  12.240  13.540
 2060DOPG   C4B46584  15.480  12.230  13.230
 2061DOPG   GL046585  22.330   8.840  18.520
 2061DOPG   PO446586  22.550   9.050  18.050
 2061DOPG   GL146587  22.330   9.110  17.690
 2061DOPG   GL246588  22.080   9.210  17.600
 2061DOPG   C1A46589  22.390   8.930  17.220
 2061DOPG   D2A46590  22.250   8.520  16.950
 2061DOPG   C3A46591  21.730   8.360  16.960
 2061DOPG   C4A46592  21.370   7.990  16.770
 2061DOPG   C1B46593  22.030   9.590  17.470
 2061DOPG   D2B46594  21.800   9.780  17.190
 2061DOPG   C3B46595  21.870   9.990  16.780
 2061DOPG   C4B46596  21.600  10.000  16.440
 2062DOPG   GL046597  21.470  20.460   7.710
 2062DOPG   PO446598  21.300  20.620   8.200
 2062DOPG   GL146599  21.170  20.870   7.840
 2062DOPG   GL246600  21.420  20.990   7.670
 2062DOPG   C1A46601  21.010  20.560   7.520
 2062DOPG   D2A46602  20.970  20.450   7.070
 2062DOPG   C3A46603  20.950  20.840   6.820
 2062DOPG   C4A46604  21.030  21.150   6.510
 2062DOPG   C1B46605  21.370  20.800   7.240
 2062DOPG   D2B46606  21.390  20.580   6.890
 2062DOPG   C3B46607  21.280  20.700   6.390
 2062DOPG   C4B46608  21.380  20.600   5.960
 2063DOPG   GL046609  15.840  13.990  18.650
 2063DOPG   PO446610  15.790  14.180  18.290
 2063DOPG   GL146611  15.880  14.300  17.840
 2063DOPG   GL246612  16.140  14.060  17.870
 2063DOPG   C1A46613  15.980  14.230  17.330
 2063DOPG   D2A46614  16.230  14.300  16.950
 2063DOPG   C3A46615  16.430  13.930  16.710
 2063DOPG   C4A46616  16.650  13.700  16.500
 2063DOPG   C1B46617  16.480  14.330  17.640
 2063DOPG   D2B46618  16.720  14.370  17.280
 2063DOPG   C3B46619  16.780  14.050  17.120
 2063DOPG   C4B46620  16.640  13.620  17.090
 2064DOPG   GL046621  30.070   9.190  20.440
 2064DOPG   PO446622  29.850   9.580  20.280
 2064DOPG   GL146623  29.580   9.810  20.170
 2064DOPG   GL246624  29.740  10.060  20.040
 2064DOPG   C1A46625  29.550  10.030  19.630
 2064DOPG   D2A46626  29.210   9.920  19.300
 2064DOPG   C3A46627  29.120  10.370  19.080
 2064DOPG   C4A46628  29.160  10.810  19.280
 2064DOPG   C1B46629  29.230  10.160  20.040
 2064DOPG   D2B46630  28.770  10.260  20.020
 2064DOPG   C3B46631  28.660   9.830  19.890
 2064DOPG   C4B46632  28.580   9.440  19.600
 2065DOPG   GL046633  16.930   5.480  22.980
 2065DOPG   PO446634  17.230   5.830  22.890
 2065DOPG   GL146635  17.330   6.180  22.580
 2065DOPG   GL246636  17.120   6.420  22.550
 2065DOPG   C1A46637  17.600   6.310  22.380
 2065DOPG   D2A46638  17.950   6.090  22.180
 2065DOPG   C3A46639  18.240   6.110  22.550
 2065DOPG   C4A46640  18.540   6.310  22.700
 2065DOPG   C1B46641  17.140   6.910  22.440
 2065DOPG   D2B46642  17.330   7.340  22.520
 2065DOPG   C3B46643  17.230   7.640  22.190
 2065DOPG   C4B46644  16.890   7.750  21.940
 2066DOPG   GL046645  23.430   1.180  14.490
 2066DOPG   PO446646  23.100   1.320  14.560
 2066DOPG   GL146647  23.190   1.670  14.680
 2066DOPG   GL246648  23.290   1.780  14.350
 2066DOPG   C1A46649  23.190   2.090  14.720
 2066DOPG   D2A46650  23.240   2.590  14.720
 2066DOPG   C3A46651  23.160   3.050  14.740
 2066DOPG   C4A46652  22.890   3.370  14.870
 2066DOPG   C1B46653  22.970   2.010  14.280
 2066DOPG   D2B46654  22.770   2.410  14.530
 2066DOPG   C3B46655  22.330   2.290  14.620
 2066DOPG   C4B46656  21.960   2.360  14.810
 2067DOPG   GL046657  21.370  13.770  19.260
 2067DOPG   PO446658  21.480  14.130  19.170
 2067DOPG   GL146659  21.540  13.860  18.770
 2067DOPG   GL246660  21.640  13.440  18.740
 2067DOPG   C1A46661  21.670  13.780  18.350
 2067DOPG   D2A46662  21.540  13.490  18.080
 2067DOPG   C3A46663  21.570  13.450  17.670
 2067DOPG   C4A46664  21.620  13.090  17.500
 2067DOPG   C1B46665  22.030  13.490  18.650
 2067DOPG   D2B46666  22.270  13.880  18.410
 2067DOPG   C3B46667  22.190  13.970  17.950
 2067DOPG   C4B46668  21.850  13.820  17.810
 2068DOPG   GL046669  12.210  25.910  14.410
 2068DOPG   PO446670  12.020  25.640  14.520
 2068DOPG   GL146671  12.230  25.350  14.250
 2068DOPG   GL246672  12.490  25.300  13.930
 2068DOPG   C1A46673  12.470  24.980  14.320
 2068DOPG   D2A46674  12.620  24.800  14.720
 2068DOPG   C3A46675  12.720  24.390  14.790
 2068DOPG   C4A46676  12.880  24.180  15.110
 2068DOPG   C1B46677  12.720  25.120  13.570
 2068DOPG   D2B46678  13.070  24.970  13.290
 2068DOPG   C3B46679  13.370  24.600  13.090
 2068DOPG   C4B46680  13.760  24.350  12.790
 2069DOPG   GL046681  23.030  11.890  19.380
 2069DOPG   PO446682  22.630  11.890  19.190
 2069DOPG   GL146683  22.450  12.180  18.860
 2069DOPG   GL246684  22.440  12.480  18.900
 2069DOPG   C1A46685  22.430  12.200  18.430
 2069DOPG   D2A46686  22.470  12.090  17.910
 2069DOPG   C3A46687  22.890  12.150  17.760
 2069DOPG   C4A46688  23.060  12.160  17.310
 2069DOPG   C1B46689  22.820  12.480  18.580
 2069DOPG   D2B46690  22.980  12.210  18.240
 2069DOPG   C3B46691  22.830  11.780  18.130
 2069DOPG   C4B46692  22.730  11.400  18.150
 2070DOPG   GL046693  19.760  13.870  24.420
 2070DOPG   PO446694  20.180  13.960  24.510
 2070DOPG   GL146695  20.180  13.730  24.150
 2070DOPG   GL246696  20.380  13.820  23.870
 2070DOPG   C1A46697  20.000  13.640  23.610
 2070DOPG   D2A46698  20.040  13.800  23.160
 2070DOPG   C3A46699  20.160  13.560  22.750
 2070DOPG   C4A46700  20.110  13.670  22.250
 2070DOPG   C1B46701  20.510  13.720  23.490
 2070DOPG   D2B46702  20.470  13.560  23.190
 2070DOPG   C3B46703  20.780  13.210  22.960
 2070DOPG   C4B46704  21.070  13.080  23.130
 2071DOPG   GL046705  16.420  17.100  24.390
 2071DOPG   PO446706  16.550  16.850  24.070
 2071DOPG   GL146707  16.650  16.620  23.550
 2071DOPG   GL246708  16.950  16.510  23.400
 2071DOPG   C1A46709  16.440  16.440  23.280
 2071DOPG   D2A46710  16.390  16.420  22.840
 2071DOPG   C3A46711  16.510  16.410  22.410
 2071DOPG   C4A46712  16.800  16.540  22.140
 2071DOPG   C1B46713  17.230  16.270  23.190
 2071DOPG   D2B46714  17.190  15.950  22.920
 2071DOPG   C3B46715  17.520  15.870  22.560
 2071DOPG   C4B46716  17.790  15.740  22.260
 2072DOPG   GL046717  15.710   2.790  19.800
 2072DOPG   PO446718  15.640   3.190  19.660
 2072DOPG   GL146719  15.520   3.520  19.450
 2072DOPG   GL246720  15.340   3.400  19.190
 2072DOPG   C1A46721  15.450   3.880  19.300
 2072DOPG   D2A46722  15.440   4.260  19.030
 2072DOPG   C3A46723  15.690   4.500  18.790
 2072DOPG   C4A46724  15.690   4.750  18.440
 2072DOPG   C1B46725  15.350   3.600  18.790
 2072DOPG   D2B46726  15.060   3.690  18.510
 2072DOPG   C3B46727  14.770   3.880  18.480
 2072DOPG   C4B46728  14.310   3.840  18.330
 2073DOPG   GL046729  14.820  10.500   4.020
 2073DOPG   PO446730  14.580  10.200   4.470
 2073DOPG   GL146731  14.750  10.150   4.890
 2073DOPG   GL246732  14.450  10.100   5.050
 2073DOPG   C1A46733  14.950   9.780   5.090
 2073DOPG   D2A46734  15.230   9.540   5.340
 2073DOPG   C3A46735  15.470   9.690   5.630
 2073DOPG   C4A46736  15.570   9.660   6.090
 2073DOPG   C1B46737  14.580   9.940   5.440
 2073DOPG   D2B46738  14.820   9.650   5.750
 2073DOPG   C3B46739  14.820   9.780   6.190
 2073DOPG   C4B46740  14.440   9.700   6.450
 2074DOPG   GL046741  20.810  17.560  18.850
 2074DOPG   PO446742  20.410  17.460  18.990
 2074DOPG   GL146743  20.540  17.290  18.480
 2074DOPG   GL246744  20.820  17.320  18.340
 2074DOPG   C1A46745  20.490  17.000  17.980
 2074DOPG   D2A46746  20.410  16.860  17.680
 2074DOPG   C3A46747  20.500  16.430  17.550
 2074DOPG   C4A46748  20.260  16.110  17.770
 2074DOPG   C1B46749  20.980  17.140  18.010
 2074DOPG   D2B46750  21.000  16.960  17.640
 2074DOPG   C3B46751  20.810  16.760  17.330
 2074DOPG   C4B46752  20.520  16.560  17.000
 2075DOPG   GL046753  17.180  13.690  24.880
 2075DOPG   PO446754  17.550  13.950  24.730
 2075DOPG   GL146755  17.310  13.890  24.340
 2075DOPG   GL246756  17.000  13.890  24.250
 2075DOPG   C1A46757  17.200  13.990  23.800
 2075DOPG   D2A46758  17.330  14.020  23.450
 2075DOPG   C3A46759  17.090  14.200  23.210
 2075DOPG   C4A46760  16.980  14.070  22.770
 2075DOPG   C1B46761  16.730  14.070  23.940
 2075DOPG   D2B46762  16.670  14.340  23.520
 2075DOPG   C3B46763  16.790  14.650  23.240
 2075DOPG   C4B46764  16.530  14.790  22.870
 2076DOPG   GL046765  24.820  16.030  18.660
 2076DOPG   PO446766  24.850  15.850  18.290
 2076DOPG   GL146767  24.870  15.980  17.810
 2076DOPG   GL246768  25.010  15.690  17.830
 2076DOPG   C1A46769  24.880  16.060  17.330
 2076DOPG   D2A46770  24.590  16.190  16.990
 2076DOPG   C3A46771  24.260  15.850  16.890
 2076DOPG   C4A46772  24.440  15.460  16.950
 2076DOPG   C1B46773  24.670  15.550  17.540
 2076DOPG   D2B46774  24.230  15.560  17.370
 2076DOPG   C3B46775  24.110  15.620  17.750
 2076DOPG   C4B46776  23.920  15.810  18.050
 2077DOPG   GL046777  17.660  23.470  11.400
 2077DOPG   PO446778  17.810  23.670  11.020
 2077DOPG   GL146779  18.010  24.040  10.830
 2077DOPG   GL246780  18.040  23.770  10.570
 2077DOPG   C1A46781  18.350  24.280  10.770
 2077DOPG   D2A46782  18.770  24.380  10.970
 2077DOPG   C3A46783  19.070  24.690  10.890
 2077DOPG   C4A46784  19.420  24.960  10.750
 2077DOPG   C1B46785  18.170  24.120  10.280
 2077DOPG   D2B46786  18.080  24.600  10.320
 2077DOPG   C3B46787  18.350  24.800  10.560
 2077DOPG   C4B46788  18.510  25.100  10.760
 2078DOPG   GL046789  12.420  16.310  16.300
 2078DOPG   PO446790  12.420  16.390  15.910
 2078DOPG   GL146791  12.620  16.370  15.440
 2078DOPG   GL246792  12.620  16.490  15.130
 2078DOPG   C1A46793  12.950  16.700  15.390
 2078DOPG   D2A46794  13.030  17.100  15.430
 2078DOPG   C3A46795  13.310  17.200  15.120
 2078DOPG   C4A46796  13.370  17.570  15.050
 2078DOPG   C1B46797  12.840  16.380  14.860
 2078DOPG   D2B46798  12.950  16.090  14.480
 2078DOPG   C3B46799  13.330  16.050  14.050
 2078DOPG   C4B46800  13.670  16.360  14.010
 2079DOPG   GL046801  27.130  15.460  16.030
 2079DOPG   PO446802  26.690  15.550  16.040
 2079DOPG   GL146803  26.240  15.550  15.990
 2079DOPG   GL246804  26.160  15.260  16.250
 2079DOPG   C1A46805  26.060  15.410  15.690
 2079DOPG   D2A46806  25.710  15.330  15.310
 2079DOPG   C3A46807  25.870  15.210  14.870
 2079DOPG   C4A46808  26.220  15.200  14.740
 2079DOPG   C1B46809  25.800  15.000  15.990
 2079DOPG   D2B46810  25.390  14.910  15.890
 2079DOPG   C3B46811  25.230  14.810  15.520
 2079DOPG   C4B46812  25.000  14.700  15.190
 2080DOPG   GL046813  24.340  16.140   8.040
 2080DOPG   PO446814  24.050  16.440   7.900
 2080DOPG   GL146815  24.260  16.170   7.560
 2080DOPG   GL246816  24.490  16.370   7.440
 2080DOPG   C1A46817  24.390  16.010   7.090
 2080DOPG   D2A46818  24.620  16.060   6.670
 2080DOPG   C3A46819  24.930  16.380   6.490
 2080DOPG   C4A46820  25.170  16.780   6.290
 2080DOPG   C1B46821  24.670  16.440   7.030
 2080DOPG   D2B46822  25.110  16.200   6.970
 2080DOPG   C3B46823  25.170  15.980   6.650
 2080DOPG   C4B46824  25.420  15.880   6.280
 2081DOPG   GL046825  10.480  17.230  20.840
 2081DOPG   PO446826  10.180  17.190  20.590
 2081DOPG   GL146827  10.290  17.320  20.150
 2081DOPG   GL246828  10.100  17.180  19.920
 2081DOPG   C1A46829  10.550  17.180  19.730
 2081DOPG   D2A46830  10.590  17.410  19.280
 2081DOPG   C3A46831  10.820  17.230  18.790
 2081DOPG   C4A46832  10.450  17.170  18.440
 2081DOPG   C1B46833  10.200  17.550  19.670
 2081DOPG   D2B46834  10.120  17.640  19.200
 2081DOPG   C3B46835  10.320  17.510  18.840
 2081DOPG   C4B46836  10.580  17.630  18.560
 2082DOPG   GL046837  22.670   5.420  16.630
 2082DOPG   PO446838  22.970   5.120  16.760
 2082DOPG   GL146839  23.330   4.900  16.860
 2082DOPG   GL246840  23.180   4.880  17.150
 2082DOPG   C1A46841  23.790   4.610  16.970
 2082DOPG   D2A46842  23.970   4.190  16.990
 2082DOPG   C3A46843  23.850   3.950  17.390
 2082DOPG   C4A46844  23.890   3.920  17.770
 2082DOPG   C1B46845  23.040   4.820  17.560
 2082DOPG   D2B46846  23.030   4.640  17.970
 2082DOPG   C3B46847  23.290   4.600  18.250
 2082DOPG   C4B46848  23.580   4.440  18.360
 2083DOPG   GL046849  26.710  11.170  11.490
 2083DOPG   PO446850  26.290  11.350  11.550
 2083DOPG   GL146851  26.180  11.180  11.900
 2083DOPG   GL246852  26.130  11.450  11.990
 2083DOPG   C1A46853  26.370  11.170  12.370
 2083DOPG   D2A46854  26.270  11.160  12.810
 2083DOPG   C3A46855  26.000  11.250  13.170
 2083DOPG   C4A46856  25.620  11.480  13.360
 2083DOPG   C1B46857  25.670  11.560  11.970
 2083DOPG   D2B46858  25.390  12.020  12.030
 2083DOPG   C3B46859  25.370  12.200  12.430
 2083DOPG   C4B46860  25.400  12.240  12.810
 2084DOPG   GL046861  26.260  14.340   9.690
 2084DOPG   PO446862  26.030  14.480  10.060
 2084DOPG   GL146863  25.770  14.740  10.270
 2084DOPG   GL246864  25.730  14.740  10.580
 2084DOPG   C1A46865  25.350  14.940  10.350
 2084DOPG   D2A46866  25.160  15.300  10.220
 2084DOPG   C3A46867  24.810  15.490  10.080
 2084DOPG   C4A46868  24.390  15.550  10.080
 2084DOPG   C1B46869  25.280  14.800  10.840
 2084DOPG   D2B46870  24.940  14.880  11.110
 2084DOPG   C3B46871  24.560  14.640  11.200
 2084DOPG   C4B46872  24.280  14.260  11.010
 2085DOPG   GL046873   9.480   5.880  10.790
 2085DOPG   PO446874   9.850   6.210  10.570
 2085DOPG   GL146875  10.100   6.540  10.790
 2085DOPG   GL246876  10.180   6.570  11.090
 2085DOPG   C1A46877  10.580   6.780  10.900
 2085DOPG   D2A46878  10.960   6.630  10.670
 2085DOPG   C3A46879  11.340   6.730  10.760
 2085DOPG   C4A46880  11.650   6.870  11.020
 2085DOPG   C1B46881  10.070   6.930  11.440
 2085DOPG   D2B46882  10.030   7.320  11.550
 2085DOPG   C3B46883  10.230   7.350  12.000
 2085DOPG   C4B46884  10.290   7.760  11.950
 2086DOPG   GL046885  20.660   1.900  18.980
 2086DOPG   PO446886  20.840   1.870  18.700
 2086DOPG   GL146887  20.820   2.170  18.400
 2086DOPG   GL246888  20.700   2.230  18.090
 2086DOPG   C1A46889  21.210   2.200  18.130
 2086DOPG   D2A46890  21.460   2.430  17.870
 2086DOPG   C3A46891  21.390   2.610  17.470
 2086DOPG   C4A46892  21.370   3.020  17.360
 2086DOPG   C1B46893  20.520   2.650  17.890
 2086DOPG   D2B46894  20.470   3.000  17.680
 2086DOPG   C3B46895  20.640   3.230  17.920
 2086DOPG   C4B46896  21.080   3.240  18.110
 2087DOPG   GL046897  25.720   8.780  14.710
 2087DOPG   PO446898  25.680   8.580  15.160
 2087DOPG   GL146899  25.280   8.720  14.930
 2087DOPG   GL246900  25.050   8.630  14.690
 2087DOPG   C1A46901  24.990   9.070  14.950
 2087DOPG   D2A46902  24.940   9.450  14.770
 2087DOPG   C3A46903  24.840   9.870  14.890
 2087DOPG   C4A46904  24.810  10.220  14.630
 2087DOPG   C1B46905  24.630   8.690  15.000
 2087DOPG   D2B46906  24.100   8.610  15.030
 2087DOPG   C3B46907  23.750   8.850  14.990
 2087DOPG   C4B46908  23.650   9.230  14.950
 2088DOPG   GL046909  16.480   7.670  18.430
 2088DOPG   PO446910  16.680   7.260  18.740
 2088DOPG   GL146911  16.720   7.080  19.180
 2088DOPG   GL246912  16.910   7.190  19.570
 2088DOPG   C1A46913  16.510   6.860  19.440
 2088DOPG   D2A46914  16.430   6.480  19.500
 2088DOPG   C3A46915  16.540   6.370  19.880
 2088DOPG   C4A46916  16.450   5.980  20.070
 2088DOPG   C1B46917  16.860   6.740  19.820
 2088DOPG   D2B46918  16.880   6.540  20.190
 2088DOPG   C3B46919  17.080   6.670  20.690
 2088DOPG   C4B46920  17.350   6.610  20.960
 2089DOPG   GL046921  26.450  17.820  14.640
 2089DOPG   PO446922  26.440  17.530  14.260
 2089DOPG   GL146923  26.140  17.210  14.090
 2089DOPG   GL246924  26.120  16.900  13.930
 2089DOPG   C1A46925  25.680  17.160  14.160
 2089DOPG   D2A46926  25.510  16.770  14.090
 2089DOPG   C3A46927  25.390  16.570  13.800
 2089DOPG   C4A46928  25.560  16.630  13.470
 2089DOPG   C1B46929  25.910  16.470  13.890
 2089DOPG   D2B46930  25.550  16.130  13.890
 2089DOPG   C3B46931  25.140  16.190  13.590
 2089DOPG   C4B46932  24.820  16.260  13.230
 2090DOPG   GL046933  27.420  16.110  12.190
 2090DOPG   PO446934  27.580  15.990  11.730
 2090DOPG   GL146935  27.960  16.390  11.650
 2090DOPG   GL246936  27.840  16.760  11.620
 2090DOPG   C1A46937  28.330  16.580  11.770
 2090DOPG   D2A46938  28.630  16.730  11.610
 2090DOPG   C3A46939  28.920  16.470  11.330
 2090DOPG   C4A46940  28.820  16.160  10.970
 2090DOPG   C1B46941  28.140  16.940  11.450
 2090DOPG   D2B46942  28.390  16.960  11.160
 2090DOPG   C3B46943  28.780  17.090  11.170
 2090DOPG   C4B46944  29.120  17.280  11.340
 2091DOPG   GL046945  11.660  25.280  14.430
 2091DOPG   PO446946  11.450  25.010  14.010
 2091DOPG   GL146947  11.700  24.700  13.830
 2091DOPG   GL246948  11.550  24.540  14.130
 2091DOPG   C1A46949  11.930  24.450  13.620
 2091DOPG   D2A46950  12.150  24.040  13.460
 2091DOPG   C3A46951  12.520  24.120  13.530
 2091DOPG   C4A46952  12.900  24.390  13.480
 2091DOPG   C1B46953  11.920  24.140  14.090
 2091DOPG   D2B46954  12.260  23.990  13.940
 2091DOPG   C3B46955  12.490  23.700  13.840
 2091DOPG   C4B46956  12.890  23.590  13.930
 2092DOPG   GL046957   9.670   6.840  18.900
 2092DOPG   PO446958   9.570   7.210  18.860
 2092DOPG   GL146959   9.960   7.540  18.730
 2092DOPG   GL246960   9.940   7.880  18.640
 2092DOPG   C1A46961  10.350   7.620  18.990
 2092DOPG   D2A46962  10.530   8.060  19.050
 2092DOPG   C3A46963  10.870   8.210  18.760
 2092DOPG   C4A46964  11.260   8.380  18.760
 2092DOPG   C1B46965  10.370   7.920  18.500
 2092DOPG   D2B46966  10.630   8.050  18.370
 2092DOPG   C3B46967  10.730   8.080  18.000
 2092DOPG   C4B46968  10.990   8.340  17.760
 2093DOPG   GL046969  25.540   8.270  15.970
 2093DOPG   PO446970  25.480   8.580  15.670
 2093DOPG   GL146971  25.210   8.900  15.430
 2093DOPG   GL246972  25.320   9.270  15.490
 2093DOPG   C1A46973  24.730   8.980  15.430
 2093DOPG   D2A46974  24.230   8.870  15.470
 2093DOPG   C3A46975  23.950   9.210  15.380
 2093DOPG   C4A46976  23.850   9.700  15.320
 2093DOPG   C1B46977  25.090   9.530  15.240
 2093DOPG   D2B46978  24.750   9.760  15.330
 2093DOPG   C3B46979  24.930  10.150  15.290
 2093DOPG   C4B46980  25.050  10.510  15.510
 2094DOPG   GL046981  23.100  26.430  10.680
 2094DOPG   PO446982  22.820  26.580  10.830
 2094DOPG   GL146983  22.670  26.230  10.990
 2094DOPG   GL246984  22.900  26.000  11.060
 2094DOPG   C1A46985  22.440  26.140  11.340
 2094DOPG   D2A46986  22.030  26.050  11.540
 2094DOPG   C3A46987  21.830  26.400  11.720
 2094DOPG   C4A46988  21.490  26.300  12.000
 2094DOPG   C1B46989  22.760  25.680  11.170
 2094DOPG   D2B46990  22.640  25.250  11.060
 2094DOPG   C3B46991  22.720  24.770  11.250
 2094DOPG   C4B46992  22.890  24.600  11.650
 2095DOPG   GL046993  16.630  17.240  18.020
 2095DOPG   PO446994  16.870  17.630  18.070
 2095DOPG   GL146995  16.790  17.540  17.540
 2095DOPG   GL246996  17.040  17.370  17.680
 2095DOPG   C1A46997  16.520  17.610  17.080
 2095DOPG   D2A46998  16.540  17.720  16.610
 2095DOPG   C3A46999  16.680  17.510  16.200
 2095DOPG   C4A47000  16.680  17.200  15.870
 2095DOPG   C1B47001  17.300  17.390  17.330
 2095DOPG   D2B47002  17.670  17.440  16.960
 2095DOPG   C3B47003  18.070  17.170  16.910
 2095DOPG   C4B47004  18.290  17.130  16.570
 2096DOPG   GL047005  31.070   8.740  10.680
 2096DOPG   PO447006  30.810   8.500  10.450
 2096DOPG   GL147007  30.370   8.600  10.570
 2096DOPG   GL247008  30.310   8.810  10.770
 2096DOPG   C1A47009  30.050   8.360  10.850
 2096DOPG   D2A47010  29.830   8.300  11.280
 2096DOPG   C3A47011  29.540   8.160  11.550
 2096DOPG   C4A47012  29.700   8.130  12.040
 2096DOPG   C1B47013  29.970   8.810  10.720
 2096DOPG   D2B47014  29.560   9.030  10.920
 2096DOPG   C3B47015  29.540   9.380  11.200
 2096DOPG   C4B47016  29.250   9.700  11.270
 2097DOPG   GL047017   9.160  22.200  17.700
 2097DOPG   PO447018   9.400  21.810  17.750
 2097DOPG   GL147019   9.790  21.650  17.590
 2097DOPG   GL247020   9.630  21.360  17.600
 2097DOPG   C1A47021  10.140  21.450  17.380
 2097DOPG   D2A47022  10.450  21.540  17.080
 2097DOPG   C3A47023  10.900  21.570  17.120
 2097DOPG   C4A47024  11.310  21.460  17.470
 2097DOPG   C1B47025   9.820  20.910  17.590
 2097DOPG   D2B47026  10.180  20.810  17.420
 2097DOPG   C3B47027  10.370  21.020  17.230
 2097DOPG   C4B47028  10.650  20.970  16.980
 2098DOPG   GL047029  26.920   7.140  21.410
 2098DOPG   PO447030  26.800   6.730  21.360
 2098DOPG   GL147031  26.520   6.850  21.150
 2098DOPG   GL247032  26.440   7.200  21.130
 2098DOPG   C1A47033  26.410   6.550  20.840
 2098DOPG   D2A47034  25.960   6.510  20.650
 2098DOPG   C3A47035  25.740   6.840  20.620
 2098DOPG   C4A47036  25.750   7.180  20.290
 2098DOPG   C1B47037  26.850   7.550  21.090
 2098DOPG   D2B47038  27.030   7.940  20.960
 2098DOPG   C3B47039  27.310   8.270  21.150
 2098DOPG   C4B47040  27.610   8.250  21.480
 2099DOPG   GL047041  16.540   5.700  23.170
 2099DOPG   PO447042  16.220   5.990  22.850
 2099DOPG   GL147043  16.440   6.110  22.370
 2099DOPG   GL247044  16.770   6.180  22.310
 2099DOPG   C1A47045  16.260   5.970  21.890
 2099DOPG   D2A47046  16.270   5.890  21.490
 2099DOPG   C3A47047  16.590   6.170  21.280
 2099DOPG   C4A47048  16.730   6.320  20.920
 2099DOPG   C1B47049  17.080   6.350  22.060
 2099DOPG   D2B47050  17.150   6.490  21.730
 2099DOPG   C3B47051  17.040   6.710  21.380
 2099DOPG   C4B47052  16.760   6.750  21.170
 2100DOPG   GL047053  16.450   7.830  13.770
 2100DOPG   PO447054  16.610   7.760  13.320
 2100DOPG   GL147055  16.740   8.210  13.370
 2100DOPG   GL247056  16.880   8.310  13.670
 2100DOPG   C1A47057  17.150   8.370  13.290
 2100DOPG   D2A47058  17.500   8.560  13.400
 2100DOPG   C3A47059  17.770   8.480  13.680
 2100DOPG   C4A47060  17.610   8.510  14.150
 2100DOPG   C1B47061  17.260   8.570  13.820
 2100DOPG   D2B47062  17.590   8.970  13.790
 2100DOPG   C3B47063  17.770   9.240  13.490
 2100DOPG   C4B47064  18.000   9.280  13.190
 2101DOPG   GL047065   8.990   7.330  19.340
 2101DOPG   PO447066   9.320   7.450  19.230
 2101DOPG   GL147067   9.580   7.740  19.080
 2101DOPG   GL247068   9.440   7.870  18.810
 2101DOPG   C1A47069  10.050   7.970  19.180
 2101DOPG   D2A47070  10.160   8.260  18.810
 2101DOPG   C3A47071  10.490   8.560  18.990
 2101DOPG   C4A47072  10.940   8.720  18.880
 2101DOPG   C1B47073   9.600   8.250  18.880
 2101DOPG   D2B47074   9.620   8.710  18.970
 2101DOPG   C3B47075   9.710   9.180  19.080
 2101DOPG   C4B47076  10.010   9.340  18.790
 2102DOPG   GL047077  27.110  16.310  12.680
 2102DOPG   PO447078  26.910  16.130  12.210
 2102DOPG   GL147079  26.540  16.170  12.370
 2102DOPG   GL247080  26.200  16.190  12.200
 2102DOPG   C1A47081  26.200  15.930  12.670
 2102DOPG   D2A47082  25.750  15.870  12.520
 2102DOPG   C3A47083  25.460  15.640  12.640
 2102DOPG   C4A47084  25.070  15.440  12.530
 2102DOPG   C1B47085  25.820  16.280  12.200
 2102DOPG   D2B47086  25.390  16.420  12.380
 2102DOPG   C3B47087  25.250  16.500  12.840
 2102DOPG   C4B47088  25.110  16.680  13.180
 2103DOPG   GL047089  26.970  10.600  16.510
 2103DOPG   PO447090  27.130  10.890  16.330
 2103DOPG   GL147091  26.750  10.820  16.120
 2103DOPG   GL247092  26.480  10.530  16.360
 2103DOPG   C1A47093  26.280  11.020  16.190
 2103DOPG   D2A47094  25.820  10.920  16.200
 2103DOPG   C3A47095  25.500  11.040  15.930
 2103DOPG   C4A47096  25.040  10.990  15.900
 2103DOPG   C1B47097  26.410  10.510  15.960
 2103DOPG   D2B47098  26.230  10.780  15.740
 2103DOPG   C3B47099  26.180  10.980  15.360
 2103DOPG   C4B47100  26.040  11.360  15.220
 2104DOPG   GL047101  28.170  14.850  13.870
 2104DOPG   PO447102  28.690  14.900  13.850
 2104DOPG   GL147103  28.940  15.130  13.920
 2104DOPG   GL247104  29.020  15.350  13.590
 2104DOPG   C1A47105  29.350  15.420  14.070
 2104DOPG   D2A47106  29.800  15.580  14.040
 2104DOPG   C3A47107  30.160  15.440  13.840
 2104DOPG   C4A47108  30.520  15.700  13.810
 2104DOPG   C1B47109  29.400  15.420  13.380
 2104DOPG   D2B47110  29.610  15.160  12.950
 2104DOPG   C3B47111  30.040  15.140  12.970
 2104DOPG   C4B47112  30.450  15.270  12.820
 2105DOPG   GL047113  23.640  14.570   8.120
 2105DOPG   PO447114  23.370  14.390   8.440
 2105DOPG   GL147115  23.110  14.300   8.830
 2105DOPG   GL247116  23.080  13.990   8.730
 2105DOPG   C1A47117  22.750  14.500   9.100
 2105DOPG   D2A47118  22.790  14.720   9.450
 2105DOPG   C3A47119  22.910  14.780   9.730
 2105DOPG   C4A47120  23.020  14.510  10.100
 2105DOPG   C1B47121  22.910  13.770   9.020
 2105DOPG   D2B47122  22.730  13.710   9.310
 2105DOPG   C3B47123  22.480  14.060   9.350
 2105DOPG   C4B47124  22.280  14.370   9.530
 2106DOPG   GL047125  13.370  15.360  23.190
 2106DOPG   PO447126  13.060  15.180  23.060
 2106DOPG   GL147127  12.970  15.030  22.600
 2106DOPG   GL247128  12.930  14.720  22.400
 2106DOPG   C1A47129  13.310  15.100  22.290
 2106DOPG   D2A47130  13.540  14.820  21.870
 2106DOPG   C3A47131  13.670  15.080  21.540
 2106DOPG   C4A47132  13.990  15.340  21.280
 2106DOPG   C1B47133  13.110  14.580  22.060
 2106DOPG   D2B47134  13.020  14.760  21.700
 2106DOPG   C3B47135  13.210  15.180  21.770
 2106DOPG   C4B47136  13.530  15.440  21.910
 2107DOPG   GL047137  19.100  21.910  10.200
 2107DOPG   PO447138  19.310  22.030  10.600
 2107DOPG   GL147139  19.280  21.560  10.560
 2107DOPG   GL247140  19.550  21.650  10.590
 2107DOPG   C1A47141  19.060  21.180  10.700
 2107DOPG   D2A47142  18.740  21.270  11.050
 2107DOPG   C3A47143  18.740  20.980  11.420
 2107DOPG   C4A47144  18.980  20.640  11.520
 2107DOPG   C1B47145  19.540  21.320  10.870
 2107DOPG   D2B47146  19.600  21.190  11.270
 2107DOPG   C3B47147  20.050  21.190  11.450
 2107DOPG   C4B47148  20.090  20.880  11.650
 2108DOPG   GL047149  26.280  10.720   4.570
 2108DOPG   PO447150  26.340  10.360   4.750
 2108DOPG   GL147151  25.970  10.340   5.050
 2108DOPG   GL247152  25.750  10.430   4.830
 2108DOPG   C1A47153  25.850  10.300   5.410
 2108DOPG   D2A47154  25.960  10.360   5.760
 2108DOPG   C3A47155  26.060  10.240   6.200
 2108DOPG   C4A47156  26.240  10.400   6.580
 2108DOPG   C1B47157  25.540  10.560   5.160
 2108DOPG   D2B47158  25.040  10.640   5.340
 2108DOPG   C3B47159  24.890  10.720   5.790
 2108DOPG   C4B47160  25.060  10.430   5.990
 2109DOPG   GL047161   6.110  15.130  11.000
 2109DOPG   PO447162   6.300  14.990  11.360
 2109DOPG   GL147163   6.580  15.300  11.560
 2109DOPG   GL247164   6.810  15.510  11.420
 2109DOPG   C1A47165   6.870  15.310  11.900
 2109DOPG   D2A47166   7.270  15.470  11.720
 2109DOPG   C3A47167   7.610  15.220  11.980
 2109DOPG   C4A47168   7.970  14.860  12.100
 2109DOPG   C1B47169   7.180  15.590  11.190
 2109DOPG   D2B47170   7.500  15.250  11.250
 2109DOPG   C3B47171   7.970  15.290  11.260
 2109DOPG   C4B47172   8.350  15.190  10.990
 2110DOPG   GL047173  13.820   7.910  23.310
 2110DOPG   PO447174  14.060   7.660  23.210
 2110DOPG   GL147175  14.160   7.710  22.800
 2110DOPG   GL247176  14.580   7.800  22.740
 2110DOPG   C1A47177  14.160   7.920  22.470
 2110DOPG   D2A47178  14.220   7.660  22.110
 2110DOPG   C3A47179  14.500   7.590  21.900
 2110DOPG   C4A47180  14.620   7.400  21.670
 2110DOPG   C1B47181  14.660   7.890  22.300
 2110DOPG   D2B47182  14.470   8.100  21.940
 2110DOPG   C3B47183  14.690   8.440  21.580
 2110DOPG   C4B47184  15.110   8.460  21.390
 2111DOPG   GL047185  25.950  12.430  17.590
 2111DOPG   PO447186  26.130  12.180  17.070
 2111DOPG   GL147187  26.000  12.470  16.830
 2111DOPG   GL247188  25.730  12.620  16.940
 2111DOPG   C1A47189  25.870  12.830  16.510
 2111DOPG   D2A47190  25.630  13.050  16.230
 2111DOPG   C3A47191  25.310  13.000  16.170
 2111DOPG   C4A47192  25.060  12.870  16.020
 2111DOPG   C1B47193  25.390  12.770  16.570
 2111DOPG   D2B47194  25.310  12.410  16.300
 2111DOPG   C3B47195  25.570  12.380  16.050
 2111DOPG   C4B47196  25.880  12.210  15.870
 2112DOPG   GL047197  18.550  14.970  18.880
 2112DOPG   PO447198  18.910  14.950  18.800
 2112DOPG   GL147199  18.770  14.960  18.320
 2112DOPG   GL247200  19.010  15.160  18.350
 2112DOPG   C1A47201  18.790  14.680  17.900
 2112DOPG   D2A47202  18.700  14.470  17.460
 2112DOPG   C3A47203  19.110  14.280  17.370
 2112DOPG   C4A47204  19.440  13.930  17.040
 2112DOPG   C1B47205  19.100  15.050  17.930
 2112DOPG   D2B47206  19.310  14.860  17.660
 2112DOPG   C3B47207  19.280  14.700  17.280
 2112DOPG   C4B47208  18.880  14.700  17.060
 2113DOPG   GL047209   9.520  23.210  12.040
 2113DOPG   PO447210   9.640  23.160  11.640
 2113DOPG   GL147211   9.980  22.890  11.730
 2113DOPG   GL247212  10.240  22.930  11.520
 2113DOPG   C1A47213  10.170  22.480  11.770
 2113DOPG   D2A47214  10.550  22.160  11.740
 2113DOPG   C3A47215  10.670  22.200  12.060
 2113DOPG   C4A47216  11.030  22.020  12.320
 2113DOPG   C1B47217  10.660  22.670  11.610
 2113DOPG   D2B47218  11.160  22.540  11.580
 2113DOPG   C3B47219  11.200  22.350  11.940
 2113DOPG   C4B47220  11.340  22.500  12.390
 2114DOPG   GL047221  19.490  11.250   8.560
 2114DOPG   PO447222  19.730  11.440   8.750
 2114DOPG   GL147223  19.990  11.310   9.220
 2114DOPG   GL247224  19.950  11.580   9.330
 2114DOPG   C1A47225  19.950  11.240   9.740
 2114DOPG   D2A47226  19.800  11.440  10.070
 2114DOPG   C3A47227  19.870  11.190  10.460
 2114DOPG   C4A47228  19.700  10.780  10.620
 2114DOPG   C1B47229  19.910  11.780   9.750
 2114DOPG   D2B47230  19.920  11.890  10.190
 2114DOPG   C3B47231  19.630  12.130  10.560
 2114DOPG   C4B47232  19.690  12.350  10.800
 2115DOPG   GL047233  32.970  10.440  14.580
 2115DOPG   PO447234  32.610  10.560  14.370
 2115DOPG   GL147235  32.330  10.690  14.240
 2115DOPG   GL247236  32.270  10.980  14.180
 2115DOPG   C1A47237  31.900  10.620  14.370
 2115DOPG   D2A47238  31.460  10.730  14.350
 2115DOPG   C3A47239  31.250  11.040  14.420
 2115DOPG   C4A47240  31.010  11.330  14.310
 2115DOPG   C1B47241  31.890  10.980  14.030
 2115DOPG   D2B47242  31.510  11.220  14.020
 2115DOPG   C3B47243  31.140  11.040  13.840
 2115DOPG   C4B47244  30.720  11.240  13.740
 2116DOPG   GL047245  10.270  23.720  10.650
 2116DOPG   PO447246  10.720  23.730  10.690
 2116DOPG   GL147247  11.020  23.700  10.470
 2116DOPG   GL247248  11.150  23.410  10.370
 2116DOPG   C1A47249  11.500  23.790  10.390
 2116DOPG   D2A47250  11.880  23.820  10.360
 2116DOPG   C3A47251  12.060  23.560  10.730
 2116DOPG   C4A47252  12.220  23.140  10.880
 2116DOPG   C1B47253  11.530  23.360  10.520
 2116DOPG   D2B47254  11.730  23.090  10.680
 2116DOPG   C3B47255  11.620  22.570  10.700
 2116DOPG   C4B47256  11.420  22.130  10.800
 2117DOPG   GL047257  21.500   6.750  16.770
 2117DOPG   PO447258  21.440   7.230  16.870
 2117DOPG   GL147259  21.550   7.550  16.600
 2117DOPG   GL247260  21.290   7.730  16.390
 2117DOPG   C1A47261  21.690   7.540  16.170
 2117DOPG   D2A47262  21.810   7.930  15.950
 2117DOPG   C3A47263  21.730   8.050  15.580
 2117DOPG   C4A47264  21.380   8.210  15.550
 2117DOPG   C1B47265  21.470   8.100  16.310
 2117DOPG   D2B47266  21.350   8.410  15.990
 2117DOPG   C3B47267  21.750   8.500  15.910
 2117DOPG   C4B47268  22.020   8.490  16.050
 2118DOPG   GL047269  14.060  13.270   4.040
 2118DOPG   PO447270  13.850  13.530   4.150
 2118DOPG   GL147271  14.030  13.630   4.490
 2118DOPG   GL247272  14.300  13.400   4.470
 2118DOPG   C1A47273  14.180  13.970   4.700
 2118DOPG   D2A47274  14.520  14.100   5.040
 2118DOPG   C3A47275  14.670  13.820   5.350
 2118DOPG   C4A47276  14.710  13.410   5.310
 2118DOPG   C1B47277  14.310  13.160   4.790
 2118DOPG   D2B47278  14.510  12.990   5.120
 2118DOPG   C3B47279  14.280  12.580   5.140
 2118DOPG   C4B47280  14.420  12.150   5.230
 2119DOPG   GL047281  29.940  18.960  17.720
 2119DOPG   PO447282  30.340  18.720  17.780
 2119DOPG   GL147283  30.210  18.730  17.390
 2119DOPG   GL247284  30.250  18.930  17.140
 2119DOPG   C1A47285  29.980  18.570  16.930
 2119DOPG   D2A47286  29.680  18.440  16.620
 2119DOPG   C3A47287  29.370  18.180  16.600
 2119DOPG   C4A47288  28.970  18.220  16.710
 2119DOPG   C1B47289  29.880  19.120  16.940
 2119DOPG   D2B47290  29.530  19.110  16.850
 2119DOPG   C3B47291  29.560  19.430  16.570
 2119DOPG   C4B47292  29.480  19.740  16.280
 2120DOPG   GL047293  20.780  16.080  19.100
 2120DOPG   PO447294  20.820  16.180  18.760
 2120DOPG   GL147295  20.810  16.240  18.370
 2120DOPG   GL247296  20.690  16.480  18.160
 2120DOPG   C1A47297  20.570  16.010  18.120
 2120DOPG   D2A47298  20.340  15.580  18.060
 2120DOPG   C3A47299  20.490  15.140  18.000
 2120DOPG   C4A47300  20.660  14.950  18.320
 2120DOPG   C1B47301  20.960  16.330  17.830
 2120DOPG   D2B47302  20.740  15.990  17.520
 2120DOPG   C3B47303  20.880  16.140  17.170
 2120DOPG   C4B47304  20.990  16.080  16.660
 2121DOPG   GL047305  12.930   2.640  14.500
 2121DOPG   PO447306  12.630   2.710  14.820
 2121DOPG   GL147307  12.750   3.080  14.870
 2121DOPG   GL247308  12.580   3.230  14.940
 2121DOPG   C1A47309  13.220   3.230  14.970
 2121DOPG   D2A47310  13.390   3.520  15.050
 2121DOPG   C3A47311  13.650   3.900  14.930
 2121DOPG   C4A47312  13.680   4.330  15.050
 2121DOPG   C1B47313  12.920   3.480  15.220
 2121DOPG   D2B47314  13.260   3.950  15.240
 2121DOPG   C3B47315  13.280   4.230  14.780
 2121DOPG   C4B47316  13.180   4.610  14.540
 2122DOPG   GL047317  10.720  14.730  21.820
 2122DOPG   PO447318  10.870  14.330  21.880
 2122DOPG   GL147319  10.950  14.060  21.600
 2122DOPG   GL247320  11.070  13.710  21.600
 2122DOPG   C1A47321  11.130  13.950  21.190
 2122DOPG   D2A47322  11.190  13.660  21.010
 2122DOPG   C3A47323  10.930  13.580  20.640
 2122DOPG   C4A47324  10.880  13.730  20.220
 2122DOPG   C1B47325  11.430  13.730  21.500
 2122DOPG   D2B47326  11.780  14.030  21.560
 2122DOPG   C3B47327  12.070  14.270  21.230
 2122DOPG   C4B47328  11.940  14.210  20.780
 2123DOPG   GL047329  26.610   4.570  19.970
 2123DOPG   PO447330  26.470   4.190  19.980
 2123DOPG   GL147331  26.150   4.280  19.620
 2123DOPG   GL247332  26.310   4.210  19.220
 2123DOPG   C1A47333  25.810   4.270  19.300
 2123DOPG   D2A47334  25.410   4.040  19.140
 2123DOPG   C3A47335  25.260   4.310  18.970
 2123DOPG   C4A47336  24.970   4.630  18.930
 2123DOPG   C1B47337  26.150   4.570  18.900
 2123DOPG   D2B47338  25.980   4.620  18.380
 2123DOPG   C3B47339  26.020   4.990  18.220
 2123DOPG   C4B47340  26.050   5.390  18.470
 2124DOPG   GL047341  24.300  20.360  12.950
 2124DOPG   PO447342  23.960  20.470  12.760
 2124DOPG   GL147343  23.740  20.110  12.650
 2124DOPG   GL247344  23.610  19.920  12.350
 2124DOPG   C1A47345  23.230  20.140  12.560
 2124DOPG   D2A47346  22.810  20.030  12.440
 2124DOPG   C3A47347  22.690  19.570  12.360
 2124DOPG   C4A47348  22.440  19.340  12.650
 2124DOPG   C1B47349  23.260  19.660  12.580
 2124DOPG   D2B47350  23.130  19.270  12.320
 2124DOPG   C3B47351  22.850  19.090  12.530
 2124DOPG   C4B47352  22.410  18.880  12.390
 2125DOPG   GL047353  21.320  28.150  12.710
 2125DOPG   PO447354  21.100  27.930  13.150
 2125DOPG   GL147355  21.100  27.410  13.190
 2125DOPG   GL247356  20.920  27.410  13.460
 2125DOPG   C1A47357  21.090  26.970  13.190
 2125DOPG   D2A47358  21.040  26.540  13.260
 2125DOPG   C3A47359  20.790  26.320  13.510
 2125DOPG   C4A47360  20.500  25.990  13.450
 2125DOPG   C1B47361  21.210  27.160  13.640
 2125DOPG   D2B47362  21.250  26.920  14.020
 2125DOPG   C3B47363  21.160  26.660  14.460
 2125DOPG   C4B47364  20.700  26.550  14.590
 2126DOPG   GL047365  16.900  11.010   9.110
 2126DOPG   PO447366  17.140  10.650   8.980
 2126DOPG   GL147367  17.320  10.890   9.360
 2126DOPG   GL247368  17.670  10.880   9.480
 2126DOPG   C1A47369  17.460  11.200   9.770
 2126DOPG   D2A47370  17.360  11.300  10.270
 2126DOPG   C3A47371  17.580  11.390  10.720
 2126DOPG   C4A47372  17.890  11.180  11.080
 2126DOPG   C1B47373  17.670  10.670   9.810
 2126DOPG   D2B47374  17.920  10.320   9.890
 2126DOPG   C3B47375  18.300  10.380  10.010
 2126DOPG   C4B47376  18.770  10.500  10.070
 2127DOPG   GL047377   7.680  17.140  10.350
 2127DOPG   PO447378   7.840  17.230  10.050
 2127DOPG   GL147379   8.230  17.360  10.080
 2127DOPG   GL247380   8.350  17.170   9.830
 2127DOPG   C1A47381   8.670  17.350  10.230
 2127DOPG   D2A47382   9.080  17.170  10.340
 2127DOPG   C3A47383   9.510  17.360  10.100
 2127DOPG   C4A47384   9.880  17.400   9.850
 2127DOPG   C1B47385   8.690  16.950   9.840
 2127DOPG   D2B47386   8.980  16.710   9.980
 2127DOPG   C3B47387   9.200  16.700  10.460
 2127DOPG   C4B47388   9.560  16.520  10.710
 2128DOPG   GL047389  18.190  15.790  18.950
 2128DOPG   PO447390  17.830  15.860  18.800
 2128DOPG   GL147391  17.980  16.130  18.540
 2128DOPG   GL247392  17.640  16.280  18.390
 2128DOPG   C1A47393  18.150  15.960  18.060
 2128DOPG   D2A47394  17.870  15.980  17.870
 2128DOPG   C3A47395  17.590  15.790  18.110
 2128DOPG   C4A47396  17.230  15.950  18.350
 2128DOPG   C1B47397  17.480  16.260  17.870
 2128DOPG   D2B47398  17.580  16.600  17.620
 2128DOPG   C3B47399  17.430  16.500  17.230
 2128DOPG   C4B47400  17.210  16.450  16.820
 2129DOPG   GL047401  13.210  18.840  16.410
 2129DOPG   PO447402  13.280  18.580  16.590
 2129DOPG   GL147403  13.580  18.510  16.260
 2129DOPG   GL247404  13.710  18.770  16.230
 2129DOPG   C1A47405  14.010  18.390  16.310
 2129DOPG   D2A47406  14.380  18.470  16.160
 2129DOPG   C3A47407  14.540  18.140  15.750
 2129DOPG   C4A47408  14.700  17.950  15.320
 2129DOPG   C1B47409  13.970  18.610  15.870
 2129DOPG   D2B47410  14.080  18.450  15.460
 2129DOPG   C3B47411  14.500  18.420  15.290
 2129DOPG   C4B47412  14.730  18.630  15.300
 2130DOPG   GL047413  13.320  15.870  23.020
 2130DOPG   PO447414  13.680  15.780  23.030
 2130DOPG   GL147415  13.890  15.480  22.820
 2130DOPG   GL247416  13.790  15.110  22.780
 2130DOPG   C1A47417  14.160  15.340  22.540
 2130DOPG   D2A47418  14.630  15.310  22.450
 2130DOPG   C3A47419  14.870  14.960  22.340
 2130DOPG   C4A47420  15.240  14.810  22.160
 2130DOPG   C1B47421  13.860  14.980  22.370
 2130DOPG   D2B47422  14.030  15.200  22.090
 2130DOPG   C3B47423  14.420  15.180  22.030
 2130DOPG   C4B47424  14.630  15.010  21.710
 2131DOPG   GL047425  20.330  22.100  11.830
 2131DOPG   PO447426  20.620  22.150  12.230
 2131DOPG   GL147427  20.620  21.710  12.280
 2131DOPG   GL247428  20.500  21.610  12.000
 2131DOPG   C1A47429  20.500  21.320  12.500
 2131DOPG   D2A47430  20.430  21.170  12.920
 2131DOPG   C3A47431  20.530  21.490  13.210
 2131DOPG   C4A47432  20.660  21.800  13.430
 2131DOPG   C1B47433  20.460  21.150  12.040
 2131DOPG   D2B47434  20.370  20.800  12.250
 2131DOPG   C3B47435  20.130  20.660  12.610
 2131DOPG   C4B47436  19.870  20.560  13.010
 2132DOPG   GL047437  17.990   7.890  11.050
 2132DOPG   PO447438  18.230   8.210  11.090
 2132DOPG   GL147439  18.470   8.630  11.120
 2132DOPG   GL247440  18.820   8.630  10.950
 2132DOPG   C1A47441  18.330   9.180  11.210
 2132DOPG   D2A47442  18.270   9.430  11.650
 2132DOPG   C3A47443  18.640   9.660  11.870
 2132DOPG   C4A47444  19.000   9.920  12.040
 2132DOPG   C1B47445  19.280   8.470  10.930
 2132DOPG   D2B47446  19.830   8.530  11.000
 2132DOPG   C3B47447  19.960   8.840  10.830
 2132DOPG   C4B47448  20.180   9.200  10.730
 2133DOPG   GL047449  20.270   8.660  17.640
 2133DOPG   PO447450  20.400   8.380  17.350
 2133DOPG   GL147451  20.410   8.760  17.090
 2133DOPG   GL247452  20.600   8.990  17.310
 2133DOPG   C1A47453  20.480   9.190  16.890
 2133DOPG   D2A47454  20.640   9.520  16.680
 2133DOPG   C3A47455  20.300   9.660  16.430
 2133DOPG   C4A47456  20.120  10.020  16.270
 2133DOPG   C1B47457  20.240   9.200  17.350
 2133DOPG   D2B47458  20.030   9.470  17.250
 2133DOPG   C3B47459  20.290   9.710  17.000
 2133DOPG   C4B47460  20.200  10.100  16.790
 2134DOPG   GL047461  32.680  11.930  11.170
 2134DOPG   PO447462  32.400  12.190  11.290
 2134DOPG   GL147463  32.030  11.990  11.410
 2134DOPG   GL247464  31.890  11.710  11.260
 2134DOPG   C1A47465  31.700  12.210  11.560
 2134DOPG   D2A47466  31.480  12.600  11.310
 2134DOPG   C3A47467  31.110  12.870  11.000
 2134DOPG   C4A47468  30.690  13.020  11.050
 2134DOPG   C1B47469  31.500  11.570  10.970
 2134DOPG   D2B47470  31.020  11.620  10.910
 2134DOPG   C3B47471  30.690  11.480  11.200
 2134DOPG   C4B47472  30.190  11.410  11.260
 2135DOPG   GL047473  27.940  14.310  16.060
 2135DOPG   PO447474  28.320  14.200  15.970
 2135DOPG   GL147475  28.830  14.380  15.870
 2135DOPG   GL247476  28.840  14.690  15.720
 2135DOPG   C1A47477  29.280  14.400  15.890
 2135DOPG   D2A47478  29.680  14.390  16.110
 2135DOPG   C3A47479  29.860  14.210  16.540
 2135DOPG   C4A47480  30.010  14.260  16.940
 2135DOPG   C1B47481  29.180  14.980  15.760
 2135DOPG   D2B47482  29.210  15.420  15.830
 2135DOPG   C3B47483  29.550  15.660  15.620
 2135DOPG   C4B47484  29.540  16.070  15.830
 2136DOPG   GL047485   8.870  17.480  19.280
 2136DOPG   PO447486   8.490  17.790  19.180
 2136DOPG   GL147487   8.610  17.970  18.850
 2136DOPG   GL247488   8.800  18.260  18.830
 2136DOPG   C1A47489   8.740  17.900  18.400
 2136DOPG   D2A47490   8.940  17.770  18.020
 2136DOPG   C3A47491   8.780  17.930  17.680
 2136DOPG   C4A47492   8.940  18.050  17.300
 2136DOPG   C1B47493   9.220  18.190  18.720
 2136DOPG   D2B47494   9.680  18.330  18.760
 2136DOPG   C3B47495   9.920  18.380  18.290
 2136DOPG   C4B47496  10.090  18.630  18.010
 2137DOPG   GL047497   9.930  21.680   8.230
 2137DOPG   PO447498  10.330  21.800   8.060
 2137DOPG   GL147499  10.750  21.670   8.180
 2137DOPG   GL247500  10.700  21.780   8.510
 2137DOPG   C1A47501  10.940  21.370   8.330
 2137DOPG   D2A47502  11.080  20.970   8.640
 2137DOPG   C3A47503  10.920  20.870   8.960
 2137DOPG   C4A47504  11.040  20.580   9.370
 2137DOPG   C1B47505  10.950  21.840   8.860
 2137DOPG   D2B47506  11.330  21.840   9.060
 2137DOPG   C3B47507  11.600  21.630   8.990
 2137DOPG   C4B47508  11.920  21.540   8.730
 2138DOPG   GL047509  18.460  22.710  14.740
 2138DOPG   PO447510  18.230  22.340  15.020
 2138DOPG   GL147511  18.520  21.880  14.760
 2138DOPG   GL247512  18.820  21.880  14.680
 2138DOPG   C1A47513  18.550  21.410  14.680
 2138DOPG   D2A47514  18.730  20.960  14.630
 2138DOPG   C3A47515  19.150  20.860  14.780
 2138DOPG   C4A47516  19.500  20.920  14.760
 2138DOPG   C1B47517  18.810  21.590  15.070
 2138DOPG   D2B47518  18.660  21.430  15.450
 2138DOPG   C3B47519  18.730  21.030  15.500
 2138DOPG   C4B47520  19.020  20.710  15.400
 2139DOPG   GL047521  31.320  20.660  12.520
 2139DOPG   PO447522  31.070  20.330  12.840
 2139DOPG   GL147523  30.940  20.050  12.950
 2139DOPG   GL247524  30.810  19.810  12.840
 2139DOPG   C1A47525  30.770  19.730  13.330
 2139DOPG   D2A47526  30.880  19.330  13.670
 2139DOPG   C3A47527  30.620  19.050  13.700
 2139DOPG   C4A47528  30.290  18.800  13.490
 2139DOPG   C1B47529  30.470  19.600  12.870
 2139DOPG   D2B47530  30.120  19.270  12.980
 2139DOPG   C3B47531  30.030  19.070  12.610
 2139DOPG   C4B47532  30.200  18.780  12.300
 2140DOPG   GL047533  11.550  19.810   5.950
 2140DOPG   PO447534  11.680  20.090   5.710
 2140DOPG   GL147535  12.070  20.070   5.820
 2140DOPG   GL247536  12.080  19.840   6.050
 2140DOPG   C1A47537  12.530  19.910   5.900
 2140DOPG   D2A47538  12.790  19.640   6.160
 2140DOPG   C3A47539  13.240  19.460   6.240
 2140DOPG   C4A47540  13.450  19.680   6.250
 2140DOPG   C1B47541  12.310  19.570   6.410
 2140DOPG   D2B47542  12.540  19.570   6.820
 2140DOPG   C3B47543  12.300  19.540   7.220
 2140DOPG   C4B47544  12.080  19.330   7.440
 2141DOPG   GL047545  15.500  13.800   8.830
 2141DOPG   PO447546  15.750  13.480   8.710
 2141DOPG   GL147547  15.760  13.580   9.190
 2141DOPG   GL247548  16.040  13.720   9.430
 2141DOPG   C1A47549  15.530  13.740   9.600
 2141DOPG   D2A47550  15.520  14.080  10.000
 2141DOPG   C3A47551  15.600  14.450   9.960
 2141DOPG   C4A47552  15.580  14.590   9.520
 2141DOPG   C1B47553  15.980  13.780  10.000
 2141DOPG   D2B47554  16.030  13.910  10.440
 2141DOPG   C3B47555  15.950  13.640  10.790
 2141DOPG   C4B47556  16.140  13.650  11.120
 2142DOPG   GL047557  11.910   3.100  13.660
 2142DOPG   PO447558  12.060   3.090  13.290
 2142DOPG   GL147559  12.350   3.440  13.430
 2142DOPG   GL247560  12.260   3.630  13.640
 2142DOPG   C1A47561  12.790   3.590  13.400
 2142DOPG   D2A47562  12.870   3.890  13.100
 2142DOPG   C3A47563  13.030   4.270  13.210
 2142DOPG   C4A47564  13.230   4.710  13.070
 2142DOPG   C1B47565  12.590   3.700  13.950
 2142DOPG   D2B47566  12.880   3.800  14.280
 2142DOPG   C3B47567  12.890   4.220  14.500
 2142DOPG   C4B47568  12.800   4.460  14.880
 2143DOPG   GL047569  13.510   2.310  14.610
 2143DOPG   PO447570  13.670   1.850  14.630
 2143DOPG   GL147571  14.030   2.140  14.800
 2143DOPG   GL247572  14.120   2.420  14.510
 2143DOPG   C1A47573  13.880   2.570  14.930
 2143DOPG   D2A47574  13.670   3.010  15.120
 2143DOPG   C3A47575  13.910   3.240  15.390
 2143DOPG   C4A47576  14.380   3.540  15.120
 2143DOPG   C1B47577  14.240   2.760  14.220
 2143DOPG   D2B47578  14.260   3.040  13.910
 2143DOPG   C3B47579  14.610   3.340  13.980
 2143DOPG   C4B47580  14.930   3.640  13.920
 2144DOPG   GL047581  25.150  19.700  13.090
 2144DOPG   PO447582  25.150  19.470  12.740
 2144DOPG   GL147583  25.060  19.130  12.670
 2144DOPG   GL247584  24.740  19.140  12.530
 2144DOPG   C1A47585  24.730  18.710  12.770
 2144DOPG   D2A47586  24.700  18.340  12.920
 2144DOPG   C3A47587  24.410  18.160  13.190
 2144DOPG   C4A47588  24.160  18.140  13.440
 2144DOPG   C1B47589  24.360  19.050  12.810
 2144DOPG   D2B47590  24.000  19.120  13.000
 2144DOPG   C3B47591  23.590  19.270  12.910
 2144DOPG   C4B47592  23.190  19.170  12.860
 2145DOPG   GL047593  18.440  17.510  18.810
 2145DOPG   PO447594  18.700  17.270  19.010
 2145DOPG   GL147595  18.830  17.320  18.480
 2145DOPG   GL247596  19.090  17.220  18.470
 2145DOPG   C1A47597  18.770  17.110  18.000
 2145DOPG   D2A47598  18.980  16.940  17.670
 2145DOPG   C3A47599  18.930  16.880  17.200
 2145DOPG   C4A47600  19.030  16.710  16.860
 2145DOPG   C1B47601  19.290  17.060  18.080
 2145DOPG   D2B47602  19.460  17.180  17.650
 2145DOPG   C3B47603  19.290  17.250  17.280
 2145DOPG   C4B47604  19.290  17.220  16.940
 2146DOPG   GL047605  27.070  14.340  23.420
 2146DOPG   PO447606  27.210  14.230  23.120
 2146DOPG   GL147607  27.000  14.400  22.730
 2146DOPG   GL247608  26.740  14.170  22.670
 2146DOPG   C1A47609  27.200  14.720  22.430
 2146DOPG   D2A47610  27.130  14.840  21.990
 2146DOPG   C3A47611  26.850  14.840  21.670
 2146DOPG   C4A47612  26.460  14.820  21.610
 2146DOPG   C1B47613  26.640  14.440  22.410
 2146DOPG   D2B47614  26.510  14.780  22.200
 2146DOPG   C3B47615  26.700  15.110  22.050
 2146DOPG   C4B47616  27.000  15.330  22.170
 2147DOPG   GL047617  15.570   5.460  15.020
 2147DOPG   PO447618  15.340   5.050  15.150
 2147DOPG   GL147619  15.470   4.580  15.160
 2147DOPG   GL247620  15.750   4.610  15.340
 2147DOPG   C1A47621  15.590   4.290  14.940
 2147DOPG   D2A47622  15.740   4.160  14.510
 2147DOPG   C3A47623  15.460   3.920  14.290
 2147DOPG   C4A47624  15.440   3.530  13.970
 2147DOPG   C1B47625  15.460   4.340  15.680
 2147DOPG   D2B47626  15.360   3.880  15.920
 2147DOPG   C3B47627  15.510   3.720  16.320
 2147DOPG   C4B47628  15.420   3.620  16.700
 2148DOPG   GL047629   7.560  19.160  18.340
 2148DOPG   PO447630   7.900  19.070  18.150
 2148DOPG   GL147631   8.260  19.030  17.980
 2148DOPG   GL247632   8.570  19.290  18.130
 2148DOPG   C1A47633   8.490  19.240  17.650
 2148DOPG   D2A47634   8.710  19.480  17.350
 2148DOPG   C3A47635   9.110  19.290  17.260
 2148DOPG   C4A47636   9.500  19.150  17.190
 2148DOPG   C1B47637   8.920  19.330  17.870
 2148DOPG   D2B47638   9.200  19.680  17.670
 2148DOPG   C3B47639   9.450  19.930  17.760
 2148DOPG   C4B47640   9.620  20.110  17.430
 2149DOPG   GL047641  19.150   7.130  15.880
 2149DOPG   PO447642  19.340   7.420  16.240
 2149DOPG   GL147643  19.640   7.710  16.060
 2149DOPG   GL247644  19.770   8.000  16.270
 2149DOPG   C1A47645  19.680   8.130  15.760
 2149DOPG   D2A47646  20.000   8.180  15.480
 2149DOPG   C3A47647  20.060   8.670  15.350
 2149DOPG   C4A47648  19.990   9.170  15.400
 2149DOPG   C1B47649  20.080   8.240  16.290
 2149DOPG   D2B47650  20.200   8.720  16.110
 2149DOPG   C3B47651  19.950   8.610  15.810
 2149DOPG   C4B47652  19.600   8.520  15.500
 2150DOPG   GL047653  27.970  20.860  20.410
 2150DOPG   PO447654  28.130  20.540  20.210
 2150DOPG   GL147655  28.080  20.100  20.150
 2150DOPG   GL247656  28.160  19.890  19.790
 2150DOPG   C1A47657  27.740  19.900  20.310
 2150DOPG   D2A47658  27.370  19.800  20.300
 2150DOPG   C3A47659  27.170  19.700  19.890
 2150DOPG   C4A47660  27.070  19.870  19.410
 2150DOPG   C1B47661  28.170  19.400  19.630
 2150DOPG   D2B47662  28.190  18.950  19.530
 2150DOPG   C3B47663  27.880  18.810  19.160
 2150DOPG   C4B47664  27.810  18.550  18.890
 2151DOPG   GL047665   7.570  12.470  18.700
 2151DOPG   PO447666   7.500  12.380  19.150
 2151DOPG   GL147667   7.960  12.110  18.950
 2151DOPG   GL247668   8.220  11.840  19.060
 2151DOPG   C1A47669   8.220  12.270  18.630
 2151DOPG   D2A47670   8.020  12.650  18.420
 2151DOPG   C3A47671   8.160  12.800  17.970
 2151DOPG   C4A47672   8.460  12.590  17.630
 2151DOPG   C1B47673   8.230  11.750  18.660
 2151DOPG   D2B47674   8.300  11.890  18.290
 2151DOPG   C3B47675   8.700  11.680  18.110
 2151DOPG   C4B47676   8.930  11.710  17.690
 2152DOPG   GL047677  23.590  16.860  18.580
 2152DOPG   PO447678  23.910  16.970  18.270
 2152DOPG   GL147679  23.940  17.110  17.850
 2152DOPG   GL247680  23.690  17.040  17.660
 2152DOPG   C1A47681  24.130  16.910  17.490
 2152DOPG   D2A47682  24.370  16.940  17.070
 2152DOPG   C3A47683  24.240  17.280  16.840
 2152DOPG   C4A47684  23.880  17.600  16.770
 2152DOPG   C1B47685  23.380  17.030  17.280
 2152DOPG   D2B47686  23.330  17.310  16.870
 2152DOPG   C3B47687  23.520  17.190  16.340
 2152DOPG   C4B47688  23.370  17.260  15.920
 2153DOPG   GL047689  14.630   8.220  24.090
 2153DOPG   PO447690  14.480   8.300  23.760
 2153DOPG   GL147691  14.280   8.440  23.420
 2153DOPG   GL247692  13.990   8.650  23.330
 2153DOPG   C1A47693  14.550   8.670  23.070
 2153DOPG   D2A47694  14.680   8.710  22.640
 2153DOPG   C3A47695  14.800   9.040  22.630
 2153DOPG   C4A47696  15.050   9.330  22.500
 2153DOPG   C1B47697  14.070   8.770  22.950
 2153DOPG   D2B47698  14.180   9.010  22.550
 2153DOPG   C3B47699  14.080   9.370  22.260
 2153DOPG   C4B47700  14.120   9.750  22.200
 2154DOPG   GL047701  12.870  14.080  14.960
 2154DOPG   PO447702  13.150  13.970  15.300
 2154DOPG   GL147703  13.580  13.860  15.240
 2154DOPG   GL247704  13.380  13.510  15.260
 2154DOPG   C1A47705  14.020  13.870  15.090
 2154DOPG   D2A47706  14.420  13.680  14.980
 2154DOPG   C3A47707  14.740  13.520  14.720
 2154DOPG   C4A47708  15.060  13.500  14.480
 2154DOPG   C1B47709  13.630  13.360  14.900
 2154DOPG   D2B47710  14.050  13.270  14.810
 2154DOPG   C3B47711  14.180  12.910  14.710
 2154DOPG   C4B47712  14.280  12.490  14.550
 2155DOPG   GL047713  32.090  14.250  17.930
 2155DOPG   PO447714  31.860  14.420  17.660
 2155DOPG   GL147715  31.550  14.450  17.580
 2155DOPG   GL247716  31.540  14.600  17.310
 2155DOPG   C1A47717  31.080  14.460  17.600
 2155DOPG   D2A47718  30.760  14.450  17.490
 2155DOPG   C3A47719  30.640  14.560  16.980
 2155DOPG   C4A47720  30.830  14.720  16.660
 2155DOPG   C1B47721  31.120  14.630  17.110
 2155DOPG   D2B47722  31.230  14.430  16.770
 2155DOPG   C3B47723  31.440  14.770  16.630
 2155DOPG   C4B47724  31.630  14.920  16.940
 2156DOPG   GL047725  15.280  18.390  17.940
 2156DOPG   PO447726  15.590  18.410  17.650
 2156DOPG   GL147727  15.440  18.390  17.210
 2156DOPG   GL247728  15.670  18.620  17.050
 2156DOPG   C1A47729  15.410  18.430  16.640
 2156DOPG   D2A47730  15.370  18.480  16.190
 2156DOPG   C3A47731  15.560  18.170  15.860
 2156DOPG   C4A47732  15.760  18.260  15.460
 2156DOPG   C1B47733  15.920  18.440  16.770
 2156DOPG   D2B47734  16.270  18.260  16.600
 2156DOPG   C3B47735  16.050  17.910  16.240
 2156DOPG   C4B47736  16.100  17.530  16.130
 2157DOPG   GL047737  26.430  12.440  17.400
 2157DOPG   PO447738  26.460  12.590  16.980
 2157DOPG   GL147739  26.400  12.590  16.420
 2157DOPG   GL247740  26.330  12.860  16.360
 2157DOPG   C1A47741  26.070  12.600  16.100
 2157DOPG   D2A47742  25.790  12.830  15.810
 2157DOPG   C3A47743  25.370  12.680  15.700
 2157DOPG   C4A47744  24.990  12.790  15.340
 2157DOPG   C1B47745  26.140  13.100  16.100
 2157DOPG   D2B47746  25.860  13.420  15.920
 2157DOPG   C3B47747  25.810  13.950  16.030
 2157DOPG   C4B47748  26.240  14.130  16.190
 2158DOPG   GL047749  28.070  13.860  12.070
 2158DOPG   PO447750  28.260  14.320  12.060
 2158DOPG   GL147751  28.740  14.480  11.870
 2158DOPG   GL247752  28.930  14.360  12.150
 2158DOPG   C1A47753  29.090  14.520  11.630
 2158DOPG   D2A47754  29.360  14.370  11.390
 2158DOPG   C3A47755  29.650  14.500  11.140
 2158DOPG   C4A47756  30.010  14.810  10.890
 2158DOPG   C1B47757  29.270  14.240  11.980
 2158DOPG   D2B47758  29.680  14.020  11.850
 2158DOPG   C3B47759  29.810  14.110  11.420
 2158DOPG   C4B47760  29.690  13.900  11.150
 2159DOPG   GL047761  19.450  21.540  16.720
 2159DOPG   PO447762  19.070  21.270  16.960
 2159DOPG   GL147763  19.240  20.980  16.650
 2159DOPG   GL247764  19.390  20.600  16.790
 2159DOPG   C1A47765  19.210  20.590  16.330
 2159DOPG   D2A47766  18.880  20.300  16.220
 2159DOPG   C3A47767  18.780  20.190  15.820
 2159DOPG   C4A47768  18.480  19.940  15.710
 2159DOPG   C1B47769  19.520  20.090  16.600
 2159DOPG   D2B47770  19.470  19.620  16.710
 2159DOPG   C3B47771  19.280  19.350  16.330
 2159DOPG   C4B47772  19.350  18.890  16.220
 2160DOPG   GL047773  14.600  12.640  16.420
 2160DOPG   PO447774  14.510  12.850  16.820
 2160DOPG   GL147775  14.760  13.130  16.530
 2160DOPG   GL247776  15.090  13.150  16.770
 2160DOPG   C1A47777  14.810  13.050  16.080
 2160DOPG   D2A47778  15.150  13.220  15.690
 2160DOPG   C3A47779  15.420  13.350  15.450
 2160DOPG   C4A47780  15.600  13.300  14.960
 2160DOPG   C1B47781  15.500  13.280  16.810
 2160DOPG   D2B47782  15.660  13.700  16.900
 2160DOPG   C3B47783  16.120  13.780  17.100
 2160DOPG   C4B47784  16.390  13.900  17.410
 2161DOPG   GL047785  17.380  19.290  23.520
 2161DOPG   PO447786  16.870  19.100  23.470
 2161DOPG   GL147787  16.870  18.770  23.220
 2161DOPG   GL247788  16.690  18.740  23.010
 2161DOPG   C1A47789  17.190  18.530  22.910
 2161DOPG   D2A47790  17.350  18.490  22.530
 2161DOPG   C3A47791  17.130  18.160  22.280
 2161DOPG   C4A47792  17.110  18.080  21.910
 2161DOPG   C1B47793  16.710  19.000  22.620
 2161DOPG   D2B47794  16.550  19.050  22.210
 2161DOPG   C3B47795  16.530  18.970  21.760
 2161DOPG   C4B47796  16.680  18.860  21.470
 2162DOPG   GL047797  30.620  12.570  20.590
 2162DOPG   PO447798  30.200  12.780  20.510
 2162DOPG   GL147799  29.850  12.580  20.400
 2162DOPG   GL247800  29.650  12.780  20.430
 2162DOPG   C1A47801  29.770  12.330  20.020
 2162DOPG   D2A47802  29.640  12.230  19.630
 2162DOPG   C3A47803  29.070  12.200  19.540
 2162DOPG   C4A47804  28.890  12.430  19.300
 2162DOPG   C1B47805  29.460  13.040  20.030
 2162DOPG   D2B47806  29.270  13.410  19.720
 2162DOPG   C3B47807  28.810  13.540  19.580
 2162DOPG   C4B47808  28.530  13.370  19.260
 2163DOPG   GL047809  20.690  14.660   8.120
 2163DOPG   PO447810  20.680  14.150   8.100
 2163DOPG   GL147811  20.930  14.280   8.510
 2163DOPG   GL247812  20.910  14.510   8.590
 2163DOPG   C1A47813  21.330  14.180   8.870
 2163DOPG   D2A47814  21.480  13.890   9.200
 2163DOPG   C3A47815  21.860  13.850   9.510
 2163DOPG   C4A47816  22.210  13.700   9.660
 2163DOPG   C1B47817  21.100  14.710   9.010
 2163DOPG   D2B47818  21.250  14.570   9.410
 2163DOPG   C3B47819  21.040  14.450   9.780
 2163DOPG   C4B47820  21.180  14.680  10.090
 2164DOPG   GL047821  21.270  23.460  12.710
 2164DOPG   PO447822  21.600  23.170  12.610
 2164DOPG   GL147823  21.800  23.560  12.750
 2164DOPG   GL247824  22.030  23.720  12.600
 2164DOPG   C1A47825  21.950  23.950  13.040
 2164DOPG   D2A47826  22.000  24.320  13.180
 2164DOPG   C3A47827  22.320  24.500  13.500
 2164DOPG   C4A47828  22.500  24.790  13.730
 2164DOPG   C1B47829  22.080  24.100  12.300
 2164DOPG   D2B47830  21.900  24.490  12.310
 2164DOPG   C3B47831  22.230  24.760  12.430
 2164DOPG   C4B47832  22.620  24.810  12.700
 2165DOPG   GL047833  25.070  16.640   9.020
 2165DOPG   PO447834  25.380  16.930   9.030
 2165DOPG   GL147835  25.740  16.950   8.620
 2165DOPG   GL247836  25.940  17.110   8.810
 2165DOPG   C1A47837  26.020  16.890   8.250
 2165DOPG   D2A47838  26.190  17.030   7.880
 2165DOPG   C3A47839  25.810  16.790   7.680
 2165DOPG   C4A47840  25.620  16.410   7.760
 2165DOPG   C1B47841  26.330  17.100   8.600
 2165DOPG   D2B47842  26.570  17.500   8.430
 2165DOPG   C3B47843  26.790  17.570   7.980
 2165DOPG   C4B47844  26.790  17.720   7.610
 2166DOPG   GL047845  18.870  16.860  18.780
 2166DOPG   PO447846  18.920  16.420  18.840
 2166DOPG   GL147847  18.730  16.390  18.430
 2166DOPG   GL247848  18.390  16.540  18.390
 2166DOPG   C1A47849  18.590  16.420  17.990
 2166DOPG   D2A47850  18.580  16.640  17.610
 2166DOPG   C3A47851  18.450  16.300  17.440
 2166DOPG   C4A47852  18.180  15.950  17.520
 2166DOPG   C1B47853  18.290  16.840  17.990
 2166DOPG   D2B47854  18.040  16.980  17.700
 2166DOPG   C3B47855  18.250  16.930  17.300
 2166DOPG   C4B47856  18.510  16.590  17.000
 2167DOPG   GL047857  18.790  13.670   8.120
 2167DOPG   PO447858  18.820  13.420   8.490
 2167DOPG   GL147859  18.920  13.910   8.580
 2167DOPG   GL247860  19.220  13.840   8.780
 2167DOPG   C1A47861  18.800  14.290   8.980
 2167DOPG   D2A47862  18.800  14.490   9.400
 2167DOPG   C3A47863  18.940  14.860   9.360
 2167DOPG   C4A47864  18.780  15.320   9.350
 2167DOPG   C1B47865  19.300  14.110   9.150
 2167DOPG   D2B47866  19.300  14.350   9.470
 2167DOPG   C3B47867  19.480  14.270   9.810
 2167DOPG   C4B47868  19.310  14.460  10.110
 2168DOPG   GL047869   9.230  22.930  17.330
 2168DOPG   PO447870   9.690  22.820  17.540
 2168DOPG   GL147871   9.850  22.550  17.320
 2168DOPG   GL247872  10.150  22.360  17.320
 2168DOPG   C1A47873  10.040  22.630  16.920
 2168DOPG   D2A47874  10.410  22.820  16.680
 2168DOPG   C3A47875  10.680  22.470  16.690
 2168DOPG   C4A47876  11.050  22.200  16.610
 2168DOPG   C1B47877   9.790  22.200  16.950
 2168DOPG   D2B47878   9.750  21.730  16.770
 2168DOPG   C3B47879  10.080  21.540  16.700
 2168DOPG   C4B47880  10.430  21.280  16.620
 2169DOPG   GL047881  14.560   7.580   5.200
 2169DOPG   PO447882  14.770   8.000   5.160
 2169DOPG   GL147883  14.820   8.480   5.330
 2169DOPG   GL247884  15.040   8.740   5.280
 2169DOPG   C1A47885  14.720   8.730   5.780
 2169DOPG   D2A47886  14.320   8.840   6.020
 2169DOPG   C3A47887  14.560   9.160   6.410
 2169DOPG   C4A47888  14.850   9.470   6.630
 2169DOPG   C1B47889  15.310   8.580   5.620
 2169DOPG   D2B47890  15.520   8.810   5.970
 2169DOPG   C3B47891  15.480   9.200   6.130
 2169DOPG   C4B47892  15.320   9.580   6.520
 2170DOPG   GL047893   8.300  21.880  15.050
 2170DOPG   PO447894   8.610  22.070  15.330
 2170DOPG   GL147895   9.030  22.000  15.370
 2170DOPG   GL247896   9.110  22.290  15.390
 2170DOPG   C1A47897   9.250  21.690  15.080
 2170DOPG   D2A47898   9.190  21.260  15.110
 2170DOPG   C3A47899   9.600  21.320  15.310
 2170DOPG   C4A47900  10.030  21.380  15.200
 2170DOPG   C1B47901   9.360  22.400  15.000
 2170DOPG   D2B47902   9.730  22.280  14.820
 2170DOPG   C3B47903   9.990  22.010  14.480
 2170DOPG   C4B47904  10.180  21.970  14.090
 2171DOPG   GL047905  22.940  12.610   9.010
 2171DOPG   PO447906  23.410  12.360   9.000
 2171DOPG   GL147907  23.270  12.300   9.370
 2171DOPG   GL247908  23.420  12.460   9.680
 2171DOPG   C1A47909  22.990  12.420   9.890
 2171DOPG   D2A47910  22.750  12.590  10.200
 2171DOPG   C3A47911  22.790  12.430  10.540
 2171DOPG   C4A47912  22.640  12.150  10.810
 2171DOPG   C1B47913  23.270  12.850   9.940
 2171DOPG   D2B47914  23.160  12.820  10.400
 2171DOPG   C3B47915  22.760  13.030  10.510
 2171DOPG   C4B47916  22.440  13.030  10.940
 2172DOPG   GL047917  20.830  12.390   8.610
 2172DOPG   PO447918  20.530  12.630   8.660
 2172DOPG   GL147919  20.430  12.550   9.040
 2172DOPG   GL247920  20.140  12.480   9.080
 2172DOPG   C1A47921  20.610  12.430   9.390
 2172DOPG   D2A47922  20.560  12.690   9.760
 2172DOPG   C3A47923  20.660  13.080   9.850
 2172DOPG   C4A47924  21.040  13.290   9.870
 2172DOPG   C1B47925  19.990  12.590   9.440
 2172DOPG   D2B47926  19.960  12.830   9.890
 2172DOPG   C3B47927  20.250  13.000  10.240
 2172DOPG   C4B47928  20.550  12.900  10.650
 2173DOPG   GL047929  27.620  21.330  19.480
 2173DOPG   PO447930  27.350  21.350  19.820
 2173DOPG   GL147931  27.200  21.070  19.620
 2173DOPG   GL247932  27.000  21.160  19.320
 2173DOPG   C1A47933  27.130  20.690  19.410
 2173DOPG   D2A47934  27.010  20.390  19.120
 2173DOPG   C3A47935  27.160  20.390  18.710
 2173DOPG   C4A47936  27.450  20.550  18.480
 2173DOPG   C1B47937  26.710  20.870  19.210
 2173DOPG   D2B47938  26.500  20.520  18.920
 2173DOPG   C3B47939  26.730  20.200  18.700
 2173DOPG   C4B47940  26.710  19.900  18.370
 2174DOPG   GL047941  21.570   1.120  12.630
 2174DOPG   PO447942  21.300   0.930  12.980
 2174DOPG   GL147943  21.160   1.340  12.790
 2174DOPG   GL247944  21.340   1.550  12.860
 2174DOPG   C1A47945  20.860   1.650  12.740
 2174DOPG   D2A47946  20.470   1.850  12.780
 2174DOPG   C3A47947  20.460   2.270  13.060
 2174DOPG   C4A47948  20.170   2.610  12.980
 2174DOPG   C1B47949  21.200   1.950  12.810
 2174DOPG   D2B47950  21.480   2.340  12.900
 2174DOPG   C3B47951  21.220   2.710  12.840
 2174DOPG   C4B47952  20.950   3.060  12.780
 2175DOPG   GL047953  21.490   2.020   9.330
 2175DOPG   PO447954  21.230   1.800   9.590
 2175DOPG   GL147955  21.360   2.120   9.950
 2175DOPG   GL247956  21.710   1.990  10.020
 2175DOPG   C1A47957  21.160   2.350  10.240
 2175DOPG   D2A47958  21.170   2.780  10.540
 2175DOPG   C3A47959  21.170   3.200  10.420
 2175DOPG   C4A47960  20.900   3.420  10.620
 2175DOPG   C1B47961  21.910   2.330  10.060
 2175DOPG   D2B47962  21.630   2.670  10.120
 2175DOPG   C3B47963  21.870   2.950   9.850
 2175DOPG   C4B47964  22.280   3.010   9.750
 2176DOPG   GL047965  10.710   4.310  14.470
 2176DOPG   PO447966  10.920   4.270  14.120
 2176DOPG   GL147967  11.310   4.380  14.260
 2176DOPG   GL247968  11.410   4.480  13.980
 2176DOPG   C1A47969  11.310   4.690  14.550
 2176DOPG   D2A47970  11.200   4.960  15.000
 2176DOPG   C3A47971  11.380   4.860  15.440
 2176DOPG   C4A47972  11.720   4.860  15.730
 2176DOPG   C1B47973  11.650   4.810  14.250
 2176DOPG   D2B47974  11.760   5.350  14.270
 2176DOPG   C3B47975  11.940   5.350  14.660
 2176DOPG   C4B47976  11.930   5.680  15.050
 2177DOPG   GL047977  10.890   6.440   9.070
 2177DOPG   PO447978  10.740   6.910   8.890
 2177DOPG   GL147979  11.010   6.880   9.210
 2177DOPG   GL247980  11.340   6.730   9.080
 2177DOPG   C1A47981  11.300   7.180   9.390
 2177DOPG   D2A47982  11.370   7.530   9.580
 2177DOPG   C3A47983  11.850   7.640   9.690
 2177DOPG   C4A47984  12.110   7.340   9.930
 2177DOPG   C1B47985  11.690   6.950   9.190
 2177DOPG   D2B47986  11.770   7.270   9.320
 2177DOPG   C3B47987  12.240   7.380   9.450
 2177DOPG   C4B47988  12.460   7.740   9.200
 2178DOPG   GL047989   8.680   6.500  17.600
 2178DOPG   PO447990   8.910   6.850  17.560
 2178DOPG   GL147991   9.270   7.030  17.570
 2178DOPG   GL247992   9.590   6.910  17.480
 2178DOPG   C1A47993   9.390   7.460  17.490
 2178DOPG   D2A47994   9.740   7.700  17.420
 2178DOPG   C3A47995   9.960   7.530  17.110
 2178DOPG   C4A47996  10.090   7.760  16.790
 2178DOPG   C1B47997   9.620   7.020  17.060
 2178DOPG   D2B47998   9.730   7.330  16.750
 2178DOPG   C3B47999   9.600   7.740  16.520
 2178DOPG   C4B48000   9.450   8.120  16.330
 2179DOPG   GL048001  10.200  18.880  20.320
 2179DOPG   PO448002   9.770  18.650  20.330
 2179DOPG   GL148003  10.220  18.400  20.210
 2179DOPG   GL248004  10.410  18.510  20.020
 2179DOPG   C1A48005  10.510  17.960  20.330
 2179DOPG   D2A48006  10.770  17.520  20.440
 2179DOPG   C3A48007  10.850  17.130  20.120
 2179DOPG   C4A48008  11.210  16.840  20.270
 2179DOPG   C1B48009  10.420  18.420  19.480
 2179DOPG   D2B48010  10.660  18.440  19.050
 2179DOPG   C3B48011  11.180  18.280  18.960
 2179DOPG   C4B48012  11.430  18.000  18.910
 2180DOPG   GL048013  23.180  10.590   9.320
 2180DOPG   PO448014  23.140  10.240   9.600
 2180DOPG   GL148015  22.780  10.260   9.900
 2180DOPG   GL248016  22.900  10.310  10.240
 2180DOPG   C1A48017  22.400  10.250  10.050
 2180DOPG   D2A48018  22.030  10.060  10.290
 2180DOPG   C3A48019  22.030  10.220  10.690
 2180DOPG   C4A48020  22.020  10.350  11.160
 2180DOPG   C1B48021  22.470  10.480  10.460
 2180DOPG   D2B48022  22.350  10.760  10.800
 2180DOPG   C3B48023  22.000  10.880  10.940
 2180DOPG   C4B48024  21.630  11.020  10.970
 2181DOPG   GL048025  20.820   3.860   7.470
 2181DOPG   PO448026  21.280   3.920   7.340
 2181DOPG   GL148027  21.060   4.220   7.760
 2181DOPG   GL248028  21.100   4.070   7.980
 2181DOPG   C1A48029  20.800   4.580   7.870
 2181DOPG   D2A48030  20.410   4.720   7.960
 2181DOPG   C3A48031  20.240   4.890   7.710
 2181DOPG   C4A48032  20.270   5.240   7.450
 2181DOPG   C1B48033  21.060   4.000   8.380
 2181DOPG   D2B48034  20.940   3.880   8.770
 2181DOPG   C3B48035  20.700   3.720   8.980
 2181DOPG   C4B48036  20.600   3.830   9.440
 2182DOPG   GL048037  15.300  19.600   8.610
 2182DOPG   PO448038  15.650  19.510   8.370
 2182DOPG   GL148039  15.500  20.000   8.170
 2182DOPG   GL248040  15.710  20.240   7.950
 2182DOPG   C1A48041  15.210  20.300   8.020
 2182DOPG   D2A48042  15.130  20.680   8.070
 2182DOPG   C3A48043  14.770  20.880   8.190
 2182DOPG   C4A48044  14.710  21.260   7.970
 2182DOPG   C1B48045  15.450  20.630   7.680
 2182DOPG   D2B48046  15.100  21.020   7.680
 2182DOPG   C3B48047  14.930  21.280   7.410
 2182DOPG   C4B48048  14.990  21.710   7.340
 2183DOPG   GL048049  30.000  19.240   8.300
 2183DOPG   PO448050  29.760  19.350   8.520
 2183DOPG   GL148051  29.610  18.980   8.780
 2183DOPG   GL248052  29.750  19.050   9.080
 2183DOPG   C1A48053  29.460  18.650   9.010
 2183DOPG   D2A48054  29.130  18.730   9.350
 2183DOPG   C3A48055  28.770  19.020   9.580
 2183DOPG   C4A48056  28.590  19.380   9.710
 2183DOPG   C1B48057  29.300  19.140   9.090
 2183DOPG   D2B48058  28.850  19.370   9.230
 2183DOPG   C3B48059  28.580  19.110   9.060
 2183DOPG   C4B48060  28.240  18.720   9.120
 2184DOPG   GL048061  26.990  13.310  11.200
 2184DOPG   PO448062  27.030  13.360  11.680
 2184DOPG   GL148063  26.730  13.680  11.780
 2184DOPG   GL248064  26.460  13.570  11.850
 2184DOPG   C1A48065  26.660  14.060  11.980
 2184DOPG   D2A48066  26.610  14.480  12.000
 2184DOPG   C3A48067  26.320  14.700  12.120
 2184DOPG   C4A48068  26.210  14.970  11.760
 2184DOPG   C1B48069  26.240  13.390  12.240
 2184DOPG   D2B48070  25.840  13.480  12.490
 2184DOPG   C3B48071  25.790  13.550  12.840
 2184DOPG   C4B48072  25.660  13.410  13.280
 2185DOPG   GL048073  11.640   4.700  10.690
 2185DOPG   PO448074  11.740   4.840  11.070
 2185DOPG   GL148075  11.690   5.310  11.250
 2185DOPG   GL248076  11.940   5.410  11.050
 2185DOPG   C1A48077  11.810   5.580  11.590
 2185DOPG   D2A48078  11.780   5.930  11.440
 2185DOPG   C3A48079  11.900   6.320  11.600
 2185DOPG   C4A48080  12.100   6.640  11.830
 2185DOPG   C1B48081  12.150   5.740  11.240
 2185DOPG   D2B48082  12.170   6.220  11.200
 2185DOPG   C3B48083  12.450   6.540  11.040
 2185DOPG   C4B48084  12.930   6.650  10.890
 2186DOPG   GL048085  17.200  22.610  14.680
 2186DOPG   PO448086  17.400  22.350  14.430
 2186DOPG   GL148087  17.880  22.190  14.500
 2186DOPG   GL248088  18.030  21.930  14.790
 2186DOPG   C1A48089  18.220  22.050  14.320
 2186DOPG   D2A48090  18.480  21.700  14.260
 2186DOPG   C3A48091  18.330  21.290  13.980
 2186DOPG   C4A48092  18.350  20.960  13.640
 2186DOPG   C1B48093  18.140  21.460  14.970
 2186DOPG   D2B48094  18.390  21.120  15.100
 2186DOPG   C3B48095  18.230  20.740  14.840
 2186DOPG   C4B48096  18.010  20.370  14.860
 2187DOPG   GL048097  26.680  13.130  10.900
 2187DOPG   PO448098  26.260  13.070  10.990
 2187DOPG   GL148099  26.040  13.300  11.270
 2187DOPG   GL248100  25.750  13.100  11.270
 2187DOPG   C1A48101  25.790  13.570  11.100
 2187DOPG   D2A48102  25.550  13.970  11.170
 2187DOPG   C3A48103  25.520  13.690  11.570
 2187DOPG   C4A48104  25.190  13.740  11.840
 2187DOPG   C1B48105  25.560  12.940  11.450
 2187DOPG   D2B48106  25.390  13.220  11.770
 2187DOPG   C3B48107  24.940  13.070  11.870
 2187DOPG   C4B48108  24.610  12.940  12.160
 2188DOPG   GL048109  12.930  20.460   5.260
 2188DOPG   PO448110  13.180  20.180   5.250
 2188DOPG   GL148111  13.520  20.300   5.490
 2188DOPG   GL248112  13.640  20.500   5.240
 2188DOPG   C1A48113  13.950  20.290   5.670
 2188DOPG   D2A48114  14.150  20.070   5.960
 2188DOPG   C3A48115  13.960  20.000   6.350
 2188DOPG   C4A48116  13.800  20.200   6.770
 2188DOPG   C1B48117  13.910  20.660   5.340
 2188DOPG   D2B48118  14.350  20.600   5.260
 2188DOPG   C3B48119  14.700  20.600   5.480
 2188DOPG   C4B48120  15.160  20.710   5.670
 2189DOPG   GL048121  24.500   7.520  23.470
 2189DOPG   PO448122  24.600   7.730  23.180
 2189DOPG   GL148123  24.340   8.030  23.060
 2189DOPG   GL248124  23.970   8.060  23.060
 2189DOPG   C1A48125  24.260   8.120  22.630
 2189DOPG   D2A48126  24.290   8.350  22.350
 2189DOPG   C3A48127  24.420   8.700  22.460
 2189DOPG   C4A48128  24.830   9.010  22.380
 2189DOPG   C1B48129  24.060   7.650  22.730
 2189DOPG   D2B48130  24.170   7.560  22.290
 2189DOPG   C3B48131  24.470   7.370  22.250
 2189DOPG   C4B48132  24.890   7.280  22.070
 2190DOPG   GL048133  27.250  15.730  14.120
 2190DOPG   PO448134  27.190  15.330  14.220
 2190DOPG   GL148135  26.750  15.130  14.270
 2190DOPG   GL248136  26.490  15.280  14.270
 2190DOPG   C1A48137  26.530  14.740  14.600
 2190DOPG   D2A48138  26.550  14.350  14.400
 2190DOPG   C3A48139  26.350  14.080  14.340
 2190DOPG   C4A48140  26.220  13.720  14.150
 2190DOPG   C1B48141  26.140  15.320  14.220
 2190DOPG   D2B48142  25.830  15.010  14.260
 2190DOPG   C3B48143  25.690  14.900  14.580
 2190DOPG   C4B48144  26.010  14.700  14.790
 2191DOPG   GL048145  22.320  10.210   8.940
 2191DOPG   PO448146  22.170  10.260   9.360
 2191DOPG   GL148147  22.250  10.570   9.630
 2191DOPG   GL248148  22.620  10.610   9.530
 2191DOPG   C1A48149  21.880  10.710   9.950
 2191DOPG   D2A48150  21.740  11.020  10.150
 2191DOPG   C3A48151  21.980  11.220  10.570
 2191DOPG   C4A48152  21.800  11.470  10.870
 2191DOPG   C1B48153  22.550  10.800   9.950
 2191DOPG   D2B48154  22.340  11.000  10.250
 2191DOPG   C3B48155  21.950  10.670  10.450
 2191DOPG   C4B48156  21.610  10.540  10.780
 2192DOPG   GL048157  26.840  15.540  15.160
 2192DOPG   PO448158  26.990  15.210  15.260
 2192DOPG   GL148159  26.840  14.750  15.120
 2192DOPG   GL248160  26.670  14.690  15.420
 2192DOPG   C1A48161  26.540  14.370  14.970
 2192DOPG   D2A48162  26.180  14.250  14.910
 2192DOPG   C3A48163  26.150  13.900  15.050
 2192DOPG   C4A48164  26.250  13.460  15.010
 2192DOPG   C1B48165  26.370  14.910  15.100
 2192DOPG   D2B48166  26.180  15.120  15.290
 2192DOPG   C3B48167  26.170  15.560  15.110
 2192DOPG   C4B48168  26.470  15.740  14.850
 2193DOPG   GL048169  15.230  20.320   9.970
 2193DOPG   PO448170  15.500  20.000   9.880
 2193DOPG   GL148171  15.640  19.830  10.160
 2193DOPG   GL248172  15.960  19.950  10.180
 2193DOPG   C1A48173  15.800  19.580  10.440
 2193DOPG   D2A48174  16.050  19.600  10.800
 2193DOPG   C3A48175  16.310  19.210  10.990
 2193DOPG   C4A48176  16.280  18.760  11.110
 2193DOPG   C1B48177  16.090  20.070  10.530
 2193DOPG   D2B48178  15.910  20.050  10.940
 2193DOPG   C3B48179  16.170  20.230  11.280
 2193DOPG   C4B48180  16.450  20.600  11.280
 2194DOPG   GL048181  14.490  11.830   4.100
 2194DOPG   PO448182  14.850  11.730   3.820
 2194DOPG   GL148183  15.260  11.700   4.170
 2194DOPG   GL248184  15.640  11.640   4.200
 2194DOPG   C1A48185  15.330  12.040   4.530
 2194DOPG   D2A48186  15.410  12.200   4.970
 2194DOPG   C3A48187  15.150  12.210   5.400
 2194DOPG   C4A48188  14.870  12.480   5.720
 2194DOPG   C1B48189  15.550  11.620   4.670
 2194DOPG   D2B48190  15.530  11.560   5.070
 2194DOPG   C3B48191  15.700  11.920   5.280
 2194DOPG   C4B48192  15.910  11.900   5.670
 2195DOPG   GL048193  19.280  15.530   2.950
 2195DOPG   PO448194  19.710  15.620   3.010
 2195DOPG   GL148195  19.960  15.650   3.350
 2195DOPG   GL248196  19.990  15.930   3.460
 2195DOPG   C1A48197  20.060  15.460   3.750
 2195DOPG   D2A48198  20.040  15.410   4.220
 2195DOPG   C3A48199  19.730  15.670   4.300
 2195DOPG   C4A48200  19.840  16.030   4.380
 2195DOPG   C1B48201  20.210  16.250   3.630
 2195DOPG   D2B48202  20.510  16.330   4.020
 2195DOPG   C3B48203  20.370  16.350   4.440
 2195DOPG   C4B48204  19.940  16.330   4.720
 2196DOPG   GL048205  23.880  26.820  12.180
 2196DOPG   PO448206  23.540  26.510  12.140
 2196DOPG   GL148207  23.520  26.100  11.980
 2196DOPG   GL248208  23.150  26.230  12.080
 2196DOPG   C1A48209  23.510  25.520  12.080
 2196DOPG   D2A48210  23.300  25.120  12.140
 2196DOPG   C3A48211  23.030  24.890  12.400
 2196DOPG   C4A48212  22.820  24.530  12.190
 2196DOPG   C1B48213  23.250  25.830  12.350
 2196DOPG   D2B48214  23.120  25.380  12.500
 2196DOPG   C3B48215  22.750  25.280  12.530
 2196DOPG   C4B48216  22.290  25.180  12.640
 2197DOPG   GL048217  27.780   9.850  22.470
 2197DOPG   PO448218  27.930  10.230  22.360
 2197DOPG   GL148219  27.670  10.420  22.100
 2197DOPG   GL248220  27.720  10.720  21.960
 2197DOPG   C1A48221  27.690  10.340  21.670
 2197DOPG   D2A48222  27.410  10.330  21.260
 2197DOPG   C3A48223  27.230  10.460  20.840
 2197DOPG   C4A48224  27.220  10.320  20.410
 2197DOPG   C1B48225  27.800  10.740  21.540
 2197DOPG   D2B48226  27.940  10.930  21.230
 2197DOPG   C3B48227  27.740  11.220  20.890
 2197DOPG   C4B48228  27.720  11.220  20.540
 2198DOPG   GL048229  23.340  14.160  20.300
 2198DOPG   PO448230  22.930  13.860  20.250
 2198DOPG   GL148231  22.940  13.970  20.710
 2198DOPG   GL248232  23.120  14.140  20.770
 2198DOPG   C1A48233  22.930  14.010  21.190
 2198DOPG   D2A48234  22.950  14.110  21.650
 2198DOPG   C3A48235  22.650  14.430  21.900
 2198DOPG   C4A48236  22.350  14.570  22.000
 2198DOPG   C1B48237  23.430  14.160  21.130
 2198DOPG   D2B48238  23.550  14.230  21.580
 2198DOPG   C3B48239  23.470  14.450  22.000
 2198DOPG   C4B48240  23.070  14.220  22.150
 2199DOPG   GL048241  18.600  27.900  12.570
 2199DOPG   PO448242  18.750  27.520  12.440
 2199DOPG   GL148243  18.800  27.170  12.250
 2199DOPG   GL248244  18.550  27.140  12.020
 2199DOPG   C1A48245  18.640  26.690  12.380
 2199DOPG   D2A48246  18.640  26.330  12.020
 2199DOPG   C3A48247  18.550  26.200  11.630
 2199DOPG   C4A48248  18.770  25.860  11.460
 2199DOPG   C1B48249  18.220  26.830  12.160
 2199DOPG   D2B48250  17.940  26.830  12.440
 2199DOPG   C3B48251  17.820  26.480  12.630
 2199DOPG   C4B48252  17.670  26.200  13.010
 2200DOPG   GL048253  12.450  19.130  14.840
 2200DOPG   PO448254  12.470  19.580  14.650
 2200DOPG   GL148255  12.920  19.480  14.540
 2200DOPG   GL248256  13.020  19.220  14.580
 2200DOPG   C1A48257  13.390  19.630  14.580
 2200DOPG   D2A48258  13.890  19.560  14.370
 2200DOPG   C3A48259  13.980  19.160  14.230
 2200DOPG   C4A48260  14.350  19.000  14.050
 2200DOPG   C1B48261  13.300  19.120  14.740
 2200DOPG   D2B48262  13.650  19.210  14.730
 2200DOPG   C3B48263  13.940  18.880  14.590
 2200DOPG   C4B48264  14.330  18.650  14.430
 2201DOPG   GL048265  19.680   4.330  22.220
 2201DOPG   PO448266  19.160   4.160  22.370
 2201DOPG   GL148267  19.230   4.490  22.080
 2201DOPG   GL248268  19.440   4.720  22.110
 2201DOPG   C1A48269  19.140   4.730  21.740
 2201DOPG   D2A48270  18.850   4.520  21.530
 2201DOPG   C3A48271  18.850   4.620  21.070
 2201DOPG   C4A48272  18.490   4.550  20.910
 2201DOPG   C1B48273  19.480   5.170  22.160
 2201DOPG   D2B48274  19.430   5.650  21.950
 2201DOPG   C3B48275  19.070   5.690  21.590
 2201DOPG   C4B48276  19.050   5.610  21.170
 2202DOPG   GL048277  25.660  13.440  18.120
 2202DOPG   PO448278  25.330  13.320  17.880
 2202DOPG   GL148279  25.190  13.310  17.390
 2202DOPG   GL248280  25.130  12.970  17.210
 2202DOPG   C1A48281  25.410  13.400  17.040
 2202DOPG   D2A48282  25.350  13.260  16.580
 2202DOPG   C3A48283  25.000  13.380  16.180
 2202DOPG   C4A48284  24.840  13.620  15.970
 2202DOPG   C1B48285  24.930  13.050  16.810
 2202DOPG   D2B48286  24.670  13.150  16.430
 2202DOPG   C3B48287  24.440  13.530  16.340
 2202DOPG   C4B48288  24.030  13.550  16.160
 2203DOPG   GL048289  21.330   4.370  22.410
 2203DOPG   PO448290  21.230   4.340  21.970
 2203DOPG   GL148291  21.080   4.540  21.570
 2203DOPG   GL248292  21.300   4.780  21.520
 2203DOPG   C1A48293  20.730   4.720  21.320
 2203DOPG   D2A48294  20.440   5.100  21.210
 2203DOPG   C3A48295  20.750   5.420  20.970
 2203DOPG   C4A48296  20.860   5.770  20.640
 2203DOPG   C1B48297  21.580   4.730  21.270
 2203DOPG   D2B48298  21.550   5.010  21.020
 2203DOPG   C3B48299  21.270   5.290  21.270
 2203DOPG   C4B48300  20.920   5.170  21.520
 2204DOPG   GL048301  17.860  24.300  20.440
 2204DOPG   PO448302  17.500  24.400  20.340
 2204DOPG   GL148303  17.350  23.980  20.230
 2204DOPG   GL248304  17.340  23.720  20.430
 2204DOPG   C1A48305  17.070  23.570  20.070
 2204DOPG   D2A48306  16.770  23.340  19.950
 2204DOPG   C3A48307  16.760  23.170  19.520
 2204DOPG   C4A48308  16.750  23.300  19.030
 2204DOPG   C1B48309  17.680  23.530  20.120
 2204DOPG   D2B48310  18.080  23.320  20.170
 2204DOPG   C3B48311  18.240  22.980  19.950
 2204DOPG   C4B48312  18.430  22.550  19.810
 2205DOPG   GL048313  12.570   2.990  17.440
 2205DOPG   PO448314  12.560   3.340  17.160
 2205DOPG   GL148315  12.770   3.500  16.890
 2205DOPG   GL248316  12.740   3.730  16.770
 2205DOPG   C1A48317  12.990   3.810  17.150
 2205DOPG   D2A48318  13.150   4.270  17.170
 2205DOPG   C3A48319  12.900   4.420  17.000
 2205DOPG   C4A48320  12.620   4.690  17.020
 2205DOPG   C1B48321  12.720   4.090  16.610
 2205DOPG   D2B48322  12.620   4.500  16.520
 2205DOPG   C3B48323  12.270   4.500  16.260
 2205DOPG   C4B48324  11.990   4.450  15.970
 2206DOPG   GL048325  11.630   6.980  21.980
 2206DOPG   PO448326  11.820   7.440  21.980
 2206DOPG   GL148327  12.060   7.510  21.590
 2206DOPG   GL248328  12.360   7.250  21.550
 2206DOPG   C1A48329  12.120   7.720  21.240
 2206DOPG   D2A48330  12.420   7.880  20.910
 2206DOPG   C3A48331  12.380   7.850  20.470
 2206DOPG   C4A48332  12.780   8.010  20.290
 2206DOPG   C1B48333  12.680   7.510  21.410
 2206DOPG   D2B48334  13.010   7.720  21.050
 2206DOPG   C3B48335  12.890   7.600  20.640
 2206DOPG   C4B48336  12.990   7.380  20.220
 2207DOPG   GL048337  16.820  18.160   3.550
 2207DOPG   PO448338  16.490  18.050   3.330
 2207DOPG   GL148339  16.450  17.960   3.800
 2207DOPG   GL248340  16.240  18.140   4.030
 2207DOPG   C1A48341  16.550  17.940   4.330
 2207DOPG   D2A48342  16.470  17.770   4.860
 2207DOPG   C3A48343  16.840  17.660   5.140
 2207DOPG   C4A48344  17.180  17.380   5.300
 2207DOPG   C1B48345  16.160  18.500   4.280
 2207DOPG   D2B48346  16.310  18.690   4.670
 2207DOPG   C3B48347  16.390  18.390   5.070
 2207DOPG   C4B48348  16.340  18.420   5.510
 2208DOPG   GL048349  25.400  19.410  13.590
 2208DOPG   PO448350  25.140  19.070  13.600
 2208DOPG   GL148351  25.150  18.730  13.480
 2208DOPG   GL248352  25.040  18.700  13.170
 2208DOPG   C1A48353  25.130  18.290  13.680
 2208DOPG   D2A48354  25.180  17.970  13.780
 2208DOPG   C3A48355  25.030  17.570  13.680
 2208DOPG   C4A48356  24.590  17.290  13.640
 2208DOPG   C1B48357  24.550  18.800  13.220
 2208DOPG   D2B48358  24.190  18.930  13.350
 2208DOPG   C3B48359  23.900  18.610  13.350
 2208DOPG   C4B48360  23.740  18.310  13.660
 2209DOPG   GL048361  17.160  19.800  17.820
 2209DOPG   PO448362  17.270  19.380  17.760
 2209DOPG   GL148363  17.110  19.170  17.380
 2209DOPG   GL248364  16.860  19.290  17.240
 2209DOPG   C1A48365  17.290  19.220  16.900
 2209DOPG   D2A48366  17.540  19.200  16.540
 2209DOPG   C3A48367  17.380  19.120  16.090
 2209DOPG   C4A48368  17.010  19.200  15.850
 2209DOPG   C1B48369  16.840  18.970  16.980
 2209DOPG   D2B48370  17.110  18.660  16.710
 2209DOPG   C3B48371  17.210  18.850  16.460
 2209DOPG   C4B48372  17.430  18.620  16.070
 2210DOPG   GL048373  25.960  18.770  13.660
 2210DOPG   PO448374  25.660  18.880  13.460
 2210DOPG   GL148375  25.470  18.450  13.150
 2210DOPG   GL248376  25.660  18.090  13.100
 2210DOPG   C1A48377  25.190  18.150  13.120
 2210DOPG   D2A48378  24.830  17.870  13.140
 2210DOPG   C3A48379  24.670  17.840  13.570
 2210DOPG   C4A48380  24.620  18.130  13.910
 2210DOPG   C1B48381  25.780  17.700  13.120
 2210DOPG   D2B48382  25.940  17.280  13.260
 2210DOPG   C3B48383  26.000  16.800  13.410
 2210DOPG   C4B48384  26.390  16.690  13.570
 2211DOPG   GL048385  13.890  13.050  18.550
 2211DOPG   PO448386  13.590  13.260  18.610
 2211DOPG   GL148387  13.420  13.040  19.000
 2211DOPG   GL248388  13.040  13.010  19.030
 2211DOPG   C1A48389  13.310  13.070  19.490
 2211DOPG   D2A48390  13.270  12.990  19.890
 2211DOPG   C3A48391  12.880  12.740  20.110
 2211DOPG   C4A48392  12.630  12.450  20.350
 2211DOPG   C1B48393  12.830  13.070  19.360
 2211DOPG   D2B48394  12.800  13.320  19.770
 2211DOPG   C3B48395  12.490  13.060  20.080
 2211DOPG   C4B48396  12.390  12.960  20.400
 2212DOPG   GL048397  22.590  22.960  12.620
 2212DOPG   PO448398  22.570  23.140  13.020
 2212DOPG   GL148399  22.930  23.280  12.840
 2212DOPG   GL248400  22.740  23.470  12.560
 2212DOPG   C1A48401  23.330  23.470  13.070
 2212DOPG   D2A48402  23.490  23.660  13.480
 2212DOPG   C3A48403  23.320  23.840  13.920
 2212DOPG   C4A48404  23.090  24.200  14.220
 2212DOPG   C1B48405  23.210  23.690  12.430
 2212DOPG   D2B48406  23.540  23.720  12.620
 2212DOPG   C3B48407  23.770  24.080  12.500
 2212DOPG   C4B48408  24.000  24.120  12.180
 2213DOPG   GL048409  22.910  11.080  24.570
 2213DOPG   PO448410  22.540  11.030  24.330
 2213DOPG   GL148411  22.560  11.050  23.890
 2213DOPG   GL248412  22.510  10.860  23.620
 2213DOPG   C1A48413  22.850  11.320  23.600
 2213DOPG   D2A48414  23.090  11.510  23.270
 2213DOPG   C3A48415  22.830  11.600  22.990
 2213DOPG   C4A48416  22.800  11.590  22.590
 2213DOPG   C1B48417  22.400  10.630  23.260
 2213DOPG   D2B48418  22.450  10.710  22.810
 2213DOPG   C3B48419  22.610  10.960  22.730
 2213DOPG   C4B48420  22.790  11.140  22.450
 2214DOPG   GL048421  23.970  13.920  18.690
 2214DOPG   PO448422  24.140  13.550  18.500
 2214DOPG   GL148423  24.030  13.470  18.100
 2214DOPG   GL248424  24.150  13.560  17.870
 2214DOPG   C1A48425  23.690  13.470  17.830
 2214DOPG   D2A48426  23.510  13.660  17.470
 2214DOPG   C3A48427  23.330  14.020  17.330
 2214DOPG   C4A48428  22.930  14.250  17.090
 2214DOPG   C1B48429  24.050  13.480  17.510
 2214DOPG   D2B48430  23.730  13.320  17.230
 2214DOPG   C3B48431  23.560  13.480  16.880
 2214DOPG   C4B48432  23.240  13.390  16.510
 2215DOPG   GL048433  20.050   9.090   9.320
 2215DOPG   PO448434  20.230   9.540   9.370
 2215DOPG   GL148435  20.180   9.830   9.700
 2215DOPG   GL248436  20.300  10.070   9.570
 2215DOPG   C1A48437  20.010  10.160  10.020
 2215DOPG   D2A48438  19.870  10.400  10.320
 2215DOPG   C3A48439  19.800  10.220  10.730
 2215DOPG   C4A48440  19.440   9.950  10.740
 2215DOPG   C1B48441  20.590  10.050   9.910
 2215DOPG   D2B48442  20.740   9.910  10.330
 2215DOPG   C3B48443  20.840  10.030  10.710
 2215DOPG   C4B48444  21.110   9.950  11.020
 2216DOPG   GL048445  16.510  17.180   7.190
 2216DOPG   PO448446  16.840  17.380   7.080
 2216DOPG   GL148447  16.540  17.610   6.870
 2216DOPG   GL248448  16.580  17.950   6.860
 2216DOPG   C1A48449  16.440  17.680   6.460
 2216DOPG   D2A48450  16.410  18.040   6.330
 2216DOPG   C3A48451  16.530  18.140   5.860
 2216DOPG   C4A48452  16.530  17.830   5.510
 2216DOPG   C1B48453  16.120  17.950   6.790
 2216DOPG   D2B48454  15.850  17.760   6.450
 2216DOPG   C3B48455  15.550  17.450   6.260
 2216DOPG   C4B48456  15.340  17.250   5.960
 2217DOPG   GL048457  24.950   7.060  22.720
 2217DOPG   PO448458  25.070   6.680  22.550
 2217DOPG   GL148459  24.840   6.780  22.200
 2217DOPG   GL248460  24.560   6.830  22.260
 2217DOPG   C1A48461  24.860   6.690  21.760
 2217DOPG   D2A48462  24.650   6.990  21.590
 2217DOPG   C3A48463  24.550   7.390  21.670
 2217DOPG   C4A48464  24.640   7.860  21.530
 2217DOPG   C1B48465  24.310   6.650  21.870
 2217DOPG   D2B48466  24.220   6.600  21.440
 2217DOPG   C3B48467  24.190   7.020  21.210
 2217DOPG   C4B48468  24.350   7.450  21.110
 2218DOPG   GL048469   8.170   9.160  17.620
 2218DOPG   PO448470   8.440   9.240  17.930
 2218DOPG   GL148471   8.680   9.400  17.600
 2218DOPG   GL248472   8.630   9.720  17.640
 2218DOPG   C1A48473   9.190   9.570  17.510
 2218DOPG   D2A48474   9.580   9.650  17.840
 2218DOPG   C3A48475   9.600   9.760  18.360
 2218DOPG   C4A48476   9.530   9.500  18.590
 2218DOPG   C1B48477   8.810   9.690  17.220
 2218DOPG   D2B48478   8.900   9.740  16.780
 2218DOPG   C3B48479   9.170   9.590  16.430
 2218DOPG   C4B48480   9.640   9.360  16.240
 2219DOPG   GL048481  22.060  13.400   7.970
 2219DOPG   PO448482  21.770  13.180   8.200
 2219DOPG   GL148483  21.450  13.390   8.450
 2219DOPG   GL248484  21.420  13.060   8.550
 2219DOPG   C1A48485  21.310  13.380   8.870
 2219DOPG   D2A48486  21.170  13.120   9.120
 2219DOPG   C3A48487  20.760  13.170   9.400
 2219DOPG   C4A48488  20.680  13.550   9.590
 2219DOPG   C1B48489  21.720  13.020   8.880
 2219DOPG   D2B48490  22.140  13.090   9.000
 2219DOPG   C3B48491  22.260  13.510   9.190
 2219DOPG   C4B48492  22.140  13.840   9.140
 2220DOPG   GL048493  24.580  13.420  24.410
 2220DOPG   PO448494  24.750  13.160  24.000
 2220DOPG   GL148495  24.520  13.290  23.740
 2220DOPG   GL248496  24.300  13.100  23.610
 2220DOPG   C1A48497  24.370  13.560  23.430
 2220DOPG   D2A48498  24.020  13.760  23.240
 2220DOPG   C3A48499  23.970  13.900  22.820
 2220DOPG   C4A48500  24.140  13.910  22.430
 2220DOPG   C1B48501  24.410  12.890  23.250
 2220DOPG   D2B48502  24.550  12.730  22.740
 2220DOPG   C3B48503  24.560  12.300  22.600
 2220DOPG   C4B48504  24.340  11.870  22.730
 2221DOPG   GL048505  20.210   6.110  13.430
 2221DOPG   PO448506  20.170   6.200  13.850
 2221DOPG   GL148507  20.410   6.550  14.010
 2221DOPG   GL248508  20.690   6.470  14.260
 2221DOPG   C1A48509  20.450   7.030  14.080
 2221DOPG   D2A48510  20.170   7.470  14.000
 2221DOPG   C3A48511  19.770   7.690  14.170
 2221DOPG   C4A48512  19.460   7.950  14.040
 2221DOPG   C1B48513  20.710   6.880  14.470
 2221DOPG   D2B48514  20.780   7.340  14.510
 2221DOPG   C3B48515  20.610   7.540  14.180
 2221DOPG   C4B48516  20.460   7.900  14.120
 2222DOPG   GL048517  22.480  19.940   9.710
 2222DOPG   PO448518  22.800  20.090   9.990
 2222DOPG   GL148519  22.660  19.620  10.080
 2222DOPG   GL248520  22.780  19.320  10.090
 2222DOPG   C1A48521  22.660  19.490  10.580
 2222DOPG   D2A48522  22.660  19.500  11.050
 2222DOPG   C3A48523  22.670  19.010  11.110
 2222DOPG   C4A48524  22.580  18.610  11.330
 2222DOPG   C1B48525  22.370  19.120  10.360
 2222DOPG   D2B48526  22.310  19.200  10.730
 2222DOPG   C3B48527  22.130  18.960  11.030
 2222DOPG   C4B48528  21.950  18.550  11.000
 2223DOPG   GL048529  15.370  14.250  17.320
 2223DOPG   PO448530  15.070  14.330  17.660
 2223DOPG   GL148531  15.240  14.760  17.470
 2223DOPG   GL248532  15.190  14.830  17.140
 2223DOPG   C1A48533  15.140  15.160  17.460
 2223DOPG   D2A48534  15.020  15.580  17.250
 2223DOPG   C3A48535  15.240  15.770  16.860
 2223DOPG   C4A48536  15.540  16.140  16.680
 2223DOPG   C1B48537  15.510  14.960  16.880
 2223DOPG   D2B48538  15.620  15.060  16.520
 2223DOPG   C3B48539  16.100  14.930  16.360
 2223DOPG   C4B48540  16.250  14.560  16.200
 2224DOPG   GL048541   7.060   9.920  14.690
 2224DOPG   PO448542   7.380   9.580  14.820
 2224DOPG   GL148543   7.770   9.670  14.650
 2224DOPG   GL248544   7.820   9.630  14.320
 2224DOPG   C1A48545   8.170   9.760  14.650
 2224DOPG   D2A48546   8.540   9.650  14.750
 2224DOPG   C3A48547   8.950   9.460  14.700
 2224DOPG   C4A48548   9.290   9.550  14.440
 2224DOPG   C1B48549   8.310   9.460  14.330
 2224DOPG   D2B48550   8.450   9.120  14.230
 2224DOPG   C3B48551   8.340   8.640  14.320
 2224DOPG   C4B48552   8.460   8.440  14.580
 2225DOPG   GL048553  20.500  20.060   8.270
 2225DOPG   PO448554  20.220  19.870   8.560
 2225DOPG   GL148555  20.130  19.490   8.850
 2225DOPG   GL248556  19.870  19.560   9.020
 2225DOPG   C1A48557  20.090  19.160   9.230
 2225DOPG   D2A48558  20.310  18.760   9.260
 2225DOPG   C3A48559  20.350  18.590   9.700
 2225DOPG   C4A48560  20.180  18.230   9.870
 2225DOPG   C1B48561  19.590  19.290   9.180
 2225DOPG   D2B48562  19.370  19.270   9.490
 2225DOPG   C3B48563  19.430  18.850   9.690
 2225DOPG   C4B48564  19.360  18.440   9.550
 2226DOPG   GL048565  24.440   8.560  18.860
 2226DOPG   PO448566  24.410   8.270  18.950
 2226DOPG   GL148567  24.470   8.130  19.360
 2226DOPG   GL248568  24.310   7.920  19.440
 2226DOPG   C1A48569  24.760   8.000  19.610
 2226DOPG   D2A48570  24.940   7.610  19.830
 2226DOPG   C3A48571  24.980   7.190  19.560
 2226DOPG   C4A48572  25.240   7.160  19.110
 2226DOPG   C1B48573  24.420   7.690  19.870
 2226DOPG   D2B48574  24.560   7.700  20.240
 2226DOPG   C3B48575  24.550   8.010  20.520
 2226DOPG   C4B48576  24.840   8.430  20.750
 2227DOPG   GL048577  29.050  10.330  21.010
 2227DOPG   PO448578  29.240   9.930  21.030
 2227DOPG   GL148579  29.210   9.830  20.580
 2227DOPG   GL248580  28.950  10.070  20.520
 2227DOPG   C1A48581  29.070   9.700  20.170
 2227DOPG   D2A48582  29.120   9.680  19.720
 2227DOPG   C3A48583  29.480   9.550  19.620
 2227DOPG   C4A48584  29.900   9.590  19.570
 2227DOPG   C1B48585  28.670  10.440  20.510
 2227DOPG   D2B48586  28.430  10.580  20.170
 2227DOPG   C3B48587  28.360  10.310  19.780
 2227DOPG   C4B48588  28.370   9.950  19.470
 2228DOPG   GL048589  14.510  11.530  15.260
 2228DOPG   PO448590  14.740  11.220  15.530
 2228DOPG   GL148591  15.020  11.610  15.460
 2228DOPG   GL248592  14.820  11.890  15.410
 2228DOPG   C1A48593  15.310  12.030  15.320
 2228DOPG   D2A48594  15.280  12.470  15.300
 2228DOPG   C3A48595  15.380  12.710  14.940
 2228DOPG   C4A48596  15.860  12.850  14.990
 2228DOPG   C1B48597  14.870  12.300  15.580
 2228DOPG   D2B48598  15.090  12.730  15.650
 2228DOPG   C3B48599  15.570  12.900  15.480
 2228DOPG   C4B48600  15.910  13.210  15.430
 2229DOPG   GL048601  17.410  15.150   7.790
 2229DOPG   PO448602  17.270  15.240   8.190
 2229DOPG   GL148603  17.170  15.230   8.600
 2229DOPG   GL248604  16.810  15.260   8.840
 2229DOPG   C1A48605  17.310  15.350   9.020
 2229DOPG   D2A48606  17.210  15.300   9.450
 2229DOPG   C3A48607  17.130  15.720   9.760
 2229DOPG   C4A48608  17.020  16.060  10.010
 2229DOPG   C1B48609  16.760  15.320   9.300
 2229DOPG   D2B48610  16.650  15.290   9.750
 2229DOPG   C3B48611  16.820  15.070   9.900
 2229DOPG   C4B48612  16.880  14.630  10.000
 2230DOPG   GL048613  24.950   7.580  15.840
 2230DOPG   PO448614  24.620   7.710  15.790
 2230DOPG   GL148615  24.530   8.050  15.540
 2230DOPG   GL248616  24.780   8.270  15.460
 2230DOPG   C1A48617  24.150   8.280  15.380
 2230DOPG   D2A48618  23.860   8.220  15.160
 2230DOPG   C3A48619  23.440   8.430  15.050
 2230DOPG   C4A48620  23.040   8.570  15.100
 2230DOPG   C1B48621  24.560   8.170  15.090
 2230DOPG   D2B48622  24.240   8.220  14.810
 2230DOPG   C3B48623  24.260   7.960  14.470
 2230DOPG   C4B48624  23.940   7.870  14.160
 2231DOPG   GL048625  23.390  15.570  18.820
 2231DOPG   PO448626  23.370  16.090  18.870
 2231DOPG   GL148627  23.250  16.000  18.470
 2231DOPG   GL248628  23.450  16.110  18.160
 2231DOPG   C1A48629  23.010  15.920  18.090
 2231DOPG   D2A48630  23.020  15.610  17.790
 2231DOPG   C3A48631  22.820  15.620  17.410
 2231DOPG   C4A48632  22.610  15.870  17.060
 2231DOPG   C1B48633  23.600  16.250  17.750
 2231DOPG   D2B48634  23.870  16.520  17.730
 2231DOPG   C3B48635  23.680  16.640  17.360
 2231DOPG   C4B48636  23.440  16.420  17.240
 2232DOPG   GL048637  25.580   8.610  11.870
 2232DOPG   PO448638  25.810   8.210  11.980
 2232DOPG   GL148639  25.850   7.940  11.640
 2232DOPG   GL248640  25.940   8.270  11.410
 2232DOPG   C1A48641  26.020   7.580  11.520
 2232DOPG   D2A48642  25.960   7.140  11.600
 2232DOPG   C3A48643  26.050   6.830  11.220
 2232DOPG   C4A48644  25.740   6.550  11.080
 2232DOPG   C1B48645  26.230   8.030  11.250
 2232DOPG   D2B48646  26.490   7.880  10.870
 2232DOPG   C3B48647  26.830   7.730  10.960
 2232DOPG   C4B48648  27.170   7.400  10.800
 2233DOPG   GL048649  15.710  20.590  16.820
 2233DOPG   PO448650  15.650  20.820  16.540
 2233DOPG   GL148651  15.910  20.600  16.170
 2233DOPG   GL248652  16.030  20.360  16.380
 2233DOPG   C1A48653  16.170  20.760  15.910
 2233DOPG   D2A48654  16.410  20.890  15.620
 2233DOPG   C3A48655  16.380  20.670  15.280
 2233DOPG   C4A48656  16.300  20.710  14.900
 2233DOPG   C1B48657  16.310  20.290  16.020
 2233DOPG   D2B48658  16.550  20.100  15.690
 2233DOPG   C3B48659  16.450  19.870  15.450
 2233DOPG   C4B48660  16.250  19.480  15.310
 2234DOPG   GL048661  23.540   1.320  13.390
 2234DOPG   PO448662  23.120   1.200  13.660
 2234DOPG   GL148663  23.070   1.610  13.740
 2234DOPG   GL248664  23.370   1.830  13.780
 2234DOPG   C1A48665  22.710   1.990  13.870
 2234DOPG   D2A48666  22.620   2.400  13.910
 2234DOPG   C3A48667  22.530   2.860  13.630
 2234DOPG   C4A48668  22.730   3.160  13.490
 2234DOPG   C1B48669  23.210   2.280  13.870
 2234DOPG   D2B48670  23.030   2.700  14.180
 2234DOPG   C3B48671  22.680   2.850  14.210
 2234DOPG   C4B48672  22.420   3.040  14.050
 2235DOPG   GL048673  21.850  11.910   8.250
 2235DOPG   PO448674  21.660  11.620   8.510
 2235DOPG   GL148675  21.730  11.930   8.760
 2235DOPG   GL248676  21.510  11.820   9.020
 2235DOPG   C1A48677  21.660  12.350   8.990
 2235DOPG   D2A48678  21.970  12.640   9.200
 2235DOPG   C3A48679  22.170  12.540   9.590
 2235DOPG   C4A48680  22.390  12.290   9.930
 2235DOPG   C1B48681  21.300  11.910   9.530
 2235DOPG   D2B48682  21.360  11.920   9.890
 2235DOPG   C3B48683  21.290  12.360  10.140
 2235DOPG   C4B48684  21.540  12.700  10.360
 2236DOPG   GL048685  24.560   6.990  11.940
 2236DOPG   PO448686  24.940   6.830  11.850
 2236DOPG   GL148687  25.000   6.460  11.810
 2236DOPG   GL248688  24.950   6.460  11.390
 2236DOPG   C1A48689  25.080   6.040  11.620
 2236DOPG   D2A48690  25.260   5.600  11.510
 2236DOPG   C3A48691  25.100   5.240  11.540
 2236DOPG   C4A48692  24.760   4.840  11.670
 2236DOPG   C1B48693  24.830   6.080  11.160
 2236DOPG   D2B48694  24.840   5.680  11.080
 2236DOPG   C3B48695  25.140   5.480  11.030
 2236DOPG   C4B48696  25.430   5.100  11.120
 2237DOPG   GL048697  20.060  21.250  10.480
 2237DOPG   PO448698  19.710  21.390  10.150
 2237DOPG   GL148699  19.680  20.970  10.240
 2237DOPG   GL248700  19.990  20.930  10.080
 2237DOPG   C1A48701  19.530  20.460  10.250
 2237DOPG   D2A48702  19.560  20.100  10.510
 2237DOPG   C3A48703  19.740  19.880  10.900
 2237DOPG   C4A48704  19.810  19.640  11.240
 2237DOPG   C1B48705  19.980  20.640  10.450
 2237DOPG   D2B48706  20.020  20.310  10.770
 2237DOPG   C3B48707  19.720  20.360  10.950
 2237DOPG   C4B48708  19.430  20.280  11.230
 2238DOPG   GL048709  10.490  17.610  14.460
 2238DOPG   PO448710  10.750  17.980  14.580
 2238DOPG   GL148711  10.480  18.130  14.460
 2238DOPG   GL248712  10.390  18.460  14.250
 2238DOPG   C1A48713  10.160  18.300  14.690
 2238DOPG   D2A48714  10.040  18.700  14.650
 2238DOPG   C3A48715   9.620  18.670  14.620
 2238DOPG   C4A48716   9.220  18.870  14.900
 2238DOPG   C1B48717   9.940  18.360  14.270
 2238DOPG   D2B48718   9.490  18.390  14.240
 2238DOPG   C3B48719   9.150  18.570  14.500
 2238DOPG   C4B48720   8.770  18.800  14.690
 2239DOPG   GL048721  26.670  13.890  16.200
 2239DOPG   PO448722  27.040  14.030  15.960
 2239DOPG   GL148723  26.720  14.010  15.700
 2239DOPG   GL248724  26.680  14.320  15.820
 2239DOPG   C1A48725  26.340  14.150  15.420
 2239DOPG   D2A48726  26.110  14.500  15.360
 2239DOPG   C3A48727  25.740  14.450  15.140
 2239DOPG   C4A48728  25.650  14.020  15.000
 2239DOPG   C1B48729  26.160  14.390  15.810
 2239DOPG   D2B48730  25.850  14.070  15.460
 2239DOPG   C3B48731  25.570  13.830  15.520
 2239DOPG   C4B48732  25.170  13.680  15.450
 2240DOPG   GL048733  21.270   6.550  11.230
 2240DOPG   PO448734  21.350   6.670  11.620
 2240DOPG   GL148735  21.420   7.080  11.910
 2240DOPG   GL248736  21.210   7.150  11.930
 2240DOPG   C1A48737  21.550   7.470  11.660
 2240DOPG   D2A48738  21.550   7.890  11.630
 2240DOPG   C3A48739  21.510   8.040  11.210
 2240DOPG   C4A48740  21.370   8.220  10.810
 2240DOPG   C1B48741  21.180   7.570  12.060
 2240DOPG   D2B48742  21.300   8.060  12.190
 2240DOPG   C3B48743  21.140   8.190  12.560
 2240DOPG   C4B48744  20.840   8.130  12.830
 2241DOPG   GL048745  25.140   9.430  10.380
 2241DOPG   PO448746  25.500   9.230  10.120
 2241DOPG   GL148747  25.910   9.080   9.820
 2241DOPG   GL248748  26.270   9.030  10.000
 2241DOPG   C1A48749  26.050   8.740   9.510
 2241DOPG   D2A48750  26.270   8.460   9.270
 2241DOPG   C3A48751  26.230   8.520   8.840
 2241DOPG   C4A48752  26.200   8.010   8.750
 2241DOPG   C1B48753  26.600   8.780  10.250
 2241DOPG   D2B48754  26.810   8.400  10.360
 2241DOPG   C3B48755  27.230   8.410  10.250
 2241DOPG   C4B48756  27.620   8.590  10.440
 2242DOPG   GL048757  24.540  18.320  17.600
 2242DOPG   PO448758  24.420  17.920  17.430
 2242DOPG   GL148759  24.300  17.810  17.010
 2242DOPG   GL248760  24.570  18.030  16.700
 2242DOPG   C1A48761  24.190  17.640  16.440
 2242DOPG   D2A48762  23.880  17.770  16.180
 2242DOPG   C3A48763  23.620  17.680  16.300
 2242DOPG   C4A48764  23.510  17.900  16.700
 2242DOPG   C1B48765  24.230  18.110  16.380
 2242DOPG   D2B48766  24.250  18.250  15.990
 2242DOPG   C3B48767  24.580  18.120  15.670
 2242DOPG   C4B48768  24.980  17.910  15.420
 2243DOPG   GL048769  28.270  13.210  14.480
 2243DOPG   PO448770  27.890  13.320  14.180
 2243DOPG   GL148771  27.500  13.080  14.030
 2243DOPG   GL248772  27.510  12.710  14.010
 2243DOPG   C1A48773  27.120  12.970  13.780
 2243DOPG   D2A48774  26.750  12.770  13.810
 2243DOPG   C3A48775  26.560  12.720  14.260
 2243DOPG   C4A48776  26.090  12.770  14.320
 2243DOPG   C1B48777  27.060  12.680  14.210
 2243DOPG   D2B48778  26.850  12.660  14.670
 2243DOPG   C3B48779  26.350  12.430  14.590
 2243DOPG   C4B48780  26.150  12.130  14.570
 2244DOPG   GL048781  22.100  22.260  13.300
 2244DOPG   PO448782  22.300  21.960  13.080
 2244DOPG   GL148783  22.150  21.650  13.310
 2244DOPG   GL248784  21.890  21.640  13.140
 2244DOPG   C1A48785  21.940  21.450  13.750
 2244DOPG   D2A48786  21.870  21.650  14.170
 2244DOPG   C3A48787  22.050  21.310  14.470
 2244DOPG   C4A48788  22.010  20.860  14.670
 2244DOPG   C1B48789  21.900  21.260  12.890
 2244DOPG   D2B48790  21.830  20.990  12.620
 2244DOPG   C3B48791  21.430  20.800  12.880
 2244DOPG   C4B48792  21.150  20.450  13.020
 2245DOPG   GL048793  15.560  16.020   8.690
 2245DOPG   PO448794  15.140  16.190   8.590
 2245DOPG   GL148795  15.030  16.150   9.050
 2245DOPG   GL248796  14.810  15.890   9.130
 2245DOPG   C1A48797  15.280  15.840   9.290
 2245DOPG   D2A48798  15.360  15.740   9.760
 2245DOPG   C3A48799  15.890  15.920   9.930
 2245DOPG   C4A48800  16.130  16.080  10.340
 2245DOPG   C1B48801  14.870  15.780   9.590
 2245DOPG   D2B48802  14.840  15.730   9.920
 2245DOPG   C3B48803  14.660  15.640  10.370
 2245DOPG   C4B48804  14.500  15.280  10.580
 2246DOPG   GL048805  27.510  13.380  11.540
 2246DOPG   PO448806  27.870  13.130  11.350
 2246DOPG   GL148807  28.220  13.260  11.180
 2246DOPG   GL248808  28.220  13.060  10.860
 2246DOPG   C1A48809  28.630  13.380  11.140
 2246DOPG   D2A48810  28.790  13.660  10.930
 2246DOPG   C3A48811  28.930  13.680  10.440
 2246DOPG   C4A48812  29.160  13.710  10.040
 2246DOPG   C1B48813  28.600  12.920  10.980
 2246DOPG   D2B48814  29.000  13.050  11.090
 2246DOPG   C3B48815  29.340  12.880  10.930
 2246DOPG   C4B48816  29.640  13.150  10.810
 2247DOPG   GL048817  17.730   7.590  14.240
 2247DOPG   PO448818  17.840   7.260  13.990
 2247DOPG   GL148819  17.980   7.700  13.790
 2247DOPG   GL248820  18.450   7.740  13.670
 2247DOPG   C1A48821  18.090   8.140  13.670
 2247DOPG   D2A48822  18.300   8.420  13.470
 2247DOPG   C3A48823  18.580   8.730  13.380
 2247DOPG   C4A48824  18.580   9.180  13.330
 2247DOPG   C1B48825  18.830   7.810  13.880
 2247DOPG   D2B48826  18.990   8.150  14.220
 2247DOPG   C3B48827  19.300   8.440  14.150
 2247DOPG   C4B48828  19.490   8.730  13.800
 2248DOPG   GL048829  26.480  16.380  10.170
 2248DOPG   PO448830  26.850  16.250   9.980
 2248DOPG   GL148831  27.350  16.390   9.890
 2248DOPG   GL248832  27.530  16.470  10.230
 2248DOPG   C1A48833  27.730  16.560   9.740
 2248DOPG   D2A48834  27.910  16.650   9.270
 2248DOPG   C3A48835  28.140  17.060   9.120
 2248DOPG   C4A48836  28.490  17.490   8.920
 2248DOPG   C1B48837  27.960  16.540  10.250
 2248DOPG   D2B48838  28.330  16.630  10.270
 2248DOPG   C3B48839  28.520  17.040  10.190
 2248DOPG   C4B48840  28.910  17.160   9.970
 2249DOPG   GL048841  23.650   3.880   7.390
 2249DOPG   PO448842  23.350   4.160   7.550
 2249DOPG   GL148843  23.040   4.430   7.790
 2249DOPG   GL248844  23.120   4.730   7.780
 2249DOPG   C1A48845  22.940   4.480   8.250
 2249DOPG   D2A48846  22.690   4.580   8.530
 2249DOPG   C3A48847  22.500   5.020   8.480
 2249DOPG   C4A48848  22.080   5.190   8.650
 2249DOPG   C1B48849  22.980   5.010   8.210
 2249DOPG   D2B48850  23.310   5.170   8.470
 2249DOPG   C3B48851  23.130   5.660   8.680
 2249DOPG   C4B48852  22.880   5.920   8.630
 2250DOPG   GL048853  21.620  21.490  23.200
 2250DOPG   PO448854  21.740  21.280  22.820
 2250DOPG   GL148855  21.440  21.170  22.470
 2250DOPG   GL248856  21.130  21.140  22.420
 2250DOPG   C1A48857  21.490  20.920  22.060
 2250DOPG   D2A48858  21.480  20.710  21.690
 2250DOPG   C3A48859  21.440  20.230  21.630
 2250DOPG   C4A48860  21.310  19.910  21.560
 2250DOPG   C1B48861  20.890  20.860  22.120
 2250DOPG   D2B48862  20.760  20.760  21.700
 2250DOPG   C3B48863  21.040  20.620  21.500
 2250DOPG   C4B48864  21.280  20.340  21.240
 2251DOPG   GL048865  13.830  12.710  15.530
 2251DOPG   PO448866  13.780  12.410  15.270
 2251DOPG   GL148867  14.230  12.530  15.260
 2251DOPG   GL248868  14.480  12.300  15.300
 2251DOPG   C1A48869  14.580  12.630  14.940
 2251DOPG   D2A48870  14.900  12.650  14.810
 2251DOPG   C3A48871  14.980  12.920  15.100
 2251DOPG   C4A48872  15.040  13.240  15.010
 2251DOPG   C1B48873  14.870  12.200  15.030
 2251DOPG   D2B48874  15.180  12.260  14.730
 2251DOPG   C3B48875  15.380  12.570  14.430
 2251DOPG   C4B48876  15.730  12.690  14.230
 2252DOPG   GL048877  21.690   7.000   5.210
 2252DOPG   PO448878  21.280   6.940   5.080
 2252DOPG   GL148879  21.270   7.230   5.510
 2252DOPG   GL248880  21.520   7.180   5.660
 2252DOPG   C1A48881  21.070   7.250   6.010
 2252DOPG   D2A48882  20.880   7.420   6.150
 2252DOPG   C3A48883  20.930   7.860   6.140
 2252DOPG   C4A48884  21.140   8.050   6.420
 2252DOPG   C1B48885  21.840   7.380   5.850
 2252DOPG   D2B48886  22.200   7.290   5.870
 2252DOPG   C3B48887  22.160   7.310   6.270
 2252DOPG   C4B48888  21.990   7.610   6.450
 2253DOPG   GL048889  11.640  16.660  22.080
 2253DOPG   PO448890  11.170  16.500  21.960
 2253DOPG   GL148891  11.480  16.660  21.550
 2253DOPG   GL248892  11.290  16.640  21.300
 2253DOPG   C1A48893  11.880  16.730  21.350
 2253DOPG   D2A48894  12.050  16.830  20.970
 2253DOPG   C3A48895  12.290  16.650  20.670
 2253DOPG   C4A48896  12.360  16.380  20.360
 2253DOPG   C1B48897  11.570  16.390  21.070
 2253DOPG   D2B48898  11.600  16.040  20.800
 2253DOPG   C3B48899  11.630  15.870  20.310
 2253DOPG   C4B48900  11.470  15.900  19.920
 2254DOPG   GL048901  26.250  17.950  12.470
 2254DOPG   PO448902  26.070  18.150  12.820
 2254DOPG   GL148903  25.730  17.960  12.540
 2254DOPG   GL248904  25.760  17.700  12.320
 2254DOPG   C1A48905  25.340  17.720  12.760
 2254DOPG   D2A48906  24.950  17.500  12.800
 2254DOPG   C3A48907  24.990  17.180  13.230
 2254DOPG   C4A48908  24.650  16.840  13.290
 2254DOPG   C1B48909  25.640  17.310  12.070
 2254DOPG   D2B48910  25.560  16.860  12.070
 2254DOPG   C3B48911  25.740  16.750  12.460
 2254DOPG   C4B48912  25.780  16.380  12.710
 2255DOPG   GL048913  16.270  19.280  17.860
 2255DOPG   PO448914  15.950  19.410  17.640
 2255DOPG   GL148915  16.240  19.350  17.350
 2255DOPG   GL248916  16.060  19.050  17.250
 2255DOPG   C1A48917  16.440  19.380  16.970
 2255DOPG   D2A48918  16.340  19.410  16.480
 2255DOPG   C3A48919  16.730  19.520  16.210
 2255DOPG   C4A48920  17.100  19.470  16.280
 2255DOPG   C1B48921  16.050  18.920  16.840
 2255DOPG   D2B48922  16.070  18.890  16.380
 2255DOPG   C3B48923  16.060  19.140  16.000
 2255DOPG   C4B48924  15.930  19.190  15.580
 2256DOPG   GL048925  18.770   6.500  12.380
 2256DOPG   PO448926  18.890   6.920  12.300
 2256DOPG   GL148927  18.870   7.150  12.680
 2256DOPG   GL248928  19.150   7.090  12.820
 2256DOPG   C1A48929  18.970   7.610  12.720
 2256DOPG   D2A48930  19.260   8.000  12.790
 2256DOPG   C3A48931  19.240   8.320  12.460
 2256DOPG   C4A48932  19.100   8.710  12.410
 2256DOPG   C1B48933  19.210   7.330  13.160
 2256DOPG   D2B48934  19.020   7.830  13.190
 2256DOPG   C3B48935  19.280   8.110  13.240
 2256DOPG   C4B48936  19.620   8.300  13.380
 2257DOPG   GL048937  25.890  10.360   9.480
 2257DOPG   PO448938  25.480  10.430   9.190
 2257DOPG   GL148939  25.580  10.150   8.900
 2257DOPG   GL248940  25.870  10.160   8.930
 2257DOPG   C1A48941  25.620  10.000   8.510
 2257DOPG   D2A48942  25.750   9.670   8.340
 2257DOPG   C3A48943  26.140   9.420   8.260
 2257DOPG   C4A48944  26.460   9.230   7.940
 2257DOPG   C1B48945  26.090   9.930   8.650
 2257DOPG   D2B48946  26.270   9.890   8.270
 2257DOPG   C3B48947  26.640   9.640   8.070
 2257DOPG   C4B48948  26.900   9.410   7.920
 2258DOPG   GL048949  13.340  13.690  16.350
 2258DOPG   PO448950  13.650  13.970  16.420
 2258DOPG   GL148951  14.150  14.100  16.470
 2258DOPG   GL248952  14.060  14.290  16.250
 2258DOPG   C1A48953  14.570  14.260  16.720
 2258DOPG   D2A48954  14.970  14.260  16.580
 2258DOPG   C3A48955  15.390  14.100  16.530
 2258DOPG   C4A48956  15.750  14.150  16.810
 2258DOPG   C1B48957  14.210  14.310  15.880
 2258DOPG   D2B48958  14.320  14.140  15.490
 2258DOPG   C3B48959  14.620  14.330  15.210
 2258DOPG   C4B48960  14.820  14.770  15.320
 2259DOPG   GL048961  10.220  17.550   6.060
 2259DOPG   PO448962  10.020  18.020   5.940
 2259DOPG   GL148963  10.350  17.940   6.330
 2259DOPG   GL248964  10.410  18.200   6.480
 2259DOPG   C1A48965  10.620  17.640   6.590
 2259DOPG   D2A48966  10.660  17.300   6.830
 2259DOPG   C3A48967  10.780  17.320   7.260
 2259DOPG   C4A48968  10.600  17.610   7.590
 2259DOPG   C1B48969  10.820  18.090   6.510
 2259DOPG   D2B48970  11.150  18.370   6.630
 2259DOPG   C3B48971  11.030  18.770   6.820
 2259DOPG   C4B48972  11.060  19.180   6.830
 2260DOPG   GL048973  16.900  10.620   9.420
 2260DOPG   PO448974  16.880  10.120   9.510
 2260DOPG   GL148975  17.110  10.310   9.860
 2260DOPG   GL248976  17.180  10.690   9.770
 2260DOPG   C1A48977  17.490  10.290  10.130
 2260DOPG   D2A48978  17.680  10.310  10.540
 2260DOPG   C3A48979  17.940  10.470  10.830
 2260DOPG   C4A48980  18.280  10.830  10.880
 2260DOPG   C1B48981  17.020  11.020  10.010
 2260DOPG   D2B48982  16.990  10.990  10.430
 2260DOPG   C3B48983  16.930  11.350  10.680
 2260DOPG   C4B48984  17.160  11.720  10.890
 2261DOPG   GL048985   6.510  11.590  14.320
 2261DOPG   PO448986   6.880  11.250  14.290
 2261DOPG   GL148987   7.110  11.540  14.520
 2261DOPG   GL248988   7.330  11.470  14.240
 2261DOPG   C1A48989   7.450  11.870  14.600
 2261DOPG   D2A48990   7.800  12.120  14.450
 2261DOPG   C3A48991   8.030  12.120  14.090
 2261DOPG   C4A48992   7.760  12.250  13.660
 2261DOPG   C1B48993   7.710  11.290  14.010
 2261DOPG   D2B48994   8.160  11.150  13.950
 2261DOPG   C3B48995   8.450  11.210  14.250
 2261DOPG   C4B48996   8.780  11.400  14.360
 2262DOPG   GL048997  21.120   8.830  17.970
 2262DOPG   PO448998  21.120   8.980  17.610
 2262DOPG   GL148999  21.090   9.120  17.210
 2262DOPG   GL249000  21.300   8.950  17.070
 2262DOPG   C1A49001  21.120   9.400  16.970
 2262DOPG   D2A49002  21.110   9.630  16.610
 2262DOPG   C3A49003  20.740   9.610  16.250
 2262DOPG   C4A49004  20.500   9.820  15.990
 2262DOPG   C1B49005  21.400   8.990  16.550
 2262DOPG   D2B49006  21.810   8.940  16.260
 2262DOPG   C3B49007  21.950   9.320  16.010
 2262DOPG   C4B49008  22.120   9.680  15.770
 2263DOPG   GL049009  20.890   6.520  16.160
 2263DOPG   PO449010  21.190   6.850  15.910
 2263DOPG   GL149011  21.230   7.230  15.770
 2263DOPG   GL249012  21.180   7.330  15.440
 2263DOPG   C1A49013  21.300   7.620  15.900
 2263DOPG   D2A49014  21.050   7.990  15.860
 2263DOPG   C3A49015  20.910   8.290  16.020
 2263DOPG   C4A49016  20.690   8.440  16.450
 2263DOPG   C1B49017  21.360   7.750  15.390
 2263DOPG   D2B49018  21.520   7.960  15.120
 2263DOPG   C3B49019  21.750   8.340  15.250
 2263DOPG   C4B49020  21.660   8.710  15.020
 2264DOPG   GL049021  13.960  12.720  16.010
 2264DOPG   PO449022  13.650  13.060  15.960
 2264DOPG   GL149023  13.920  13.180  15.710
 2264DOPG   GL249024  13.770  13.400  15.580
 2264DOPG   C1A49025  14.150  13.080  15.500
 2264DOPG   D2A49026  14.240  13.340  15.340
 2264DOPG   C3A49027  14.570  13.210  15.050
 2264DOPG   C4A49028  14.590  13.070  14.650
 2264DOPG   C1B49029  13.920  13.820  15.580
 2264DOPG   D2B49030  13.730  14.160  15.660
 2264DOPG   C3B49031  13.890  14.410  15.450
 2264DOPG   C4B49032  14.170  14.410  15.160
 2265DOPG   GL049033  16.600  10.970  19.570
 2265DOPG   PO449034  16.120  11.010  19.630
 2265DOPG   GL149035  15.980  10.790  20.030
 2265DOPG   GL249036  15.980  10.500  20.140
 2265DOPG   C1A49037  15.880  10.860  20.620
 2265DOPG   D2A49038  15.770  10.860  21.070
 2265DOPG   C3A49039  15.770  10.860  21.550
 2265DOPG   C4A49040  15.910  10.990  21.920
 2265DOPG   C1B49041  15.680  10.460  20.430
 2265DOPG   D2B49042  15.610  10.380  20.830
 2265DOPG   C3B49043  15.320  10.630  21.040
 2265DOPG   C4B49044  14.920  10.800  20.920
 2266DOPG   GL049045  26.370  10.350  11.380
 2266DOPG   PO449046  26.270  10.390  11.680
 2266DOPG   GL149047  26.030  10.660  11.960
 2266DOPG   GL249048  26.100  10.790  12.290
 2266DOPG   C1A49049  25.630  10.630  12.200
 2266DOPG   D2A49050  25.320  10.900  12.340
 2266DOPG   C3A49051  25.290  11.340  12.280
 2266DOPG   C4A49052  25.390  11.640  12.500
 2266DOPG   C1B49053  25.860  10.750  12.670
 2266DOPG   D2B49054  25.640  11.010  12.920
 2266DOPG   C3B49055  25.460  11.310  12.910
 2266DOPG   C4B49056  25.330  11.790  12.960
 2267DOPG   GL049057  12.660  18.100  11.990
 2267DOPG   PO449058  12.980  18.430  11.980
 2267DOPG   GL149059  13.240  18.630  12.290
 2267DOPG   GL249060  13.550  18.440  12.120
 2267DOPG   C1A49061  13.640  18.510  12.590
 2267DOPG   D2A49062  14.060  18.620  12.640
 2267DOPG   C3A49063  14.350  18.790  12.660
 2267DOPG   C4A49064  14.780  18.930  12.810
 2267DOPG   C1B49065  13.650  18.040  12.010
 2267DOPG   D2B49066  14.060  17.860  12.000
 2267DOPG   C3B49067  14.420  17.950  12.240
 2267DOPG   C4B49068  14.670  18.020  12.620
 2268DOPG   GL049069  21.760  17.190  18.620
 2268DOPG   PO449070  21.610  16.860  18.820
 2268DOPG   GL149071  21.550  16.690  18.390
 2268DOPG   GL249072  21.450  16.840  18.130
 2268DOPG   C1A49073  21.390  16.310  18.150
 2268DOPG   D2A49074  21.550  16.120  17.820
 2268DOPG   C3A49075  21.230  16.020  17.500
 2268DOPG   C4A49076  21.180  15.770  17.170
 2268DOPG   C1B49077  21.460  16.620  17.750
 2268DOPG   D2B49078  21.230  16.570  17.300
 2268DOPG   C3B49079  21.320  16.240  17.060
 2268DOPG   C4B49080  21.450  16.330  16.670
 2269DOPG   GL049081  16.680  15.000  19.180
 2269DOPG   PO449082  16.660  14.950  18.690
 2269DOPG   GL149083  16.930  14.980  18.420
 2269DOPG   GL249084  16.900  15.320  18.290
 2269DOPG   C1A49085  16.610  15.070  17.960
 2269DOPG   D2A49086  16.570  15.110  17.580
 2269DOPG   C3A49087  16.870  14.930  17.380
 2269DOPG   C4A49088  16.950  14.700  16.940
 2269DOPG   C1B49089  17.180  15.470  18.070
 2269DOPG   D2B49090  17.610  15.320  17.940
 2269DOPG   C3B49091  17.760  15.610  17.580
 2269DOPG   C4B49092  17.730  16.070  17.400
 2270DOPG   GL049093  20.510   7.110  11.410
 2270DOPG   PO449094  20.390   6.860  11.800
 2270DOPG   GL149095  20.580   7.050  12.140
 2270DOPG   GL249096  20.390   6.900  12.380
 2270DOPG   C1A49097  21.000   7.230  12.400
 2270DOPG   D2A49098  21.380   7.020  12.390
 2270DOPG   C3A49099  21.740   7.360  12.250
 2270DOPG   C4A49100  21.670   7.750  12.130
 2270DOPG   C1B49101  20.250   6.880  12.770
 2270DOPG   D2B49102  20.040   6.960  13.100
 2270DOPG   C3B49103  20.000   7.380  13.360
 2270DOPG   C4B49104  20.130   7.660  13.530
 2271DOPG   GL049105  15.020  23.760  20.070
 2271DOPG   PO449106  15.280  24.160  19.900
 2271DOPG   GL149107  15.140  23.970  19.540
 2271DOPG   GL249108  14.860  23.850  19.550
 2271DOPG   C1A49109  15.200  23.920  19.010
 2271DOPG   D2A49110  15.210  23.730  18.640
 2271DOPG   C3A49111  15.070  23.410  18.840
 2271DOPG   C4A49112  14.940  23.370  19.290
 2271DOPG   C1B49113  15.210  23.510  19.630
 2271DOPG   D2B49114  15.670  23.340  19.800
 2271DOPG   C3B49115  15.890  23.040  19.570
 2271DOPG   C4B49116  16.070  22.770  19.320
 2272DOPG   GL049117  30.920   8.280  18.290
 2272DOPG   PO449118  30.950   8.070  17.960
 2272DOPG   GL149119  30.680   8.390  17.640
 2272DOPG   GL249120  30.710   8.260  17.390
 2272DOPG   C1A49121  30.420   8.760  17.610
 2272DOPG   D2A49122  30.460   9.090  17.730
 2272DOPG   C3A49123  30.340   9.290  18.110
 2272DOPG   C4A49124  30.260   9.500  18.520
 2272DOPG   C1B49125  30.390   8.440  17.200
 2272DOPG   D2B49126  30.170   8.730  17.130
 2272DOPG   C3B49127  30.290   9.070  16.950
 2272DOPG   C4B49128  29.970   9.360  16.670
 2273DOPG   GL049129  21.510  13.460   3.140
 2273DOPG   PO449130  21.230  13.450   3.430
 2273DOPG   GL149131  21.200  13.340   3.910
 2273DOPG   GL249132  21.520  13.160   4.120
 2273DOPG   C1A49133  21.030  13.680   4.110
 2273DOPG   D2A49134  21.030  14.090   4.250
 2273DOPG   C3A49135  20.620  14.130   4.090
 2273DOPG   C4A49136  20.380  13.930   3.920
 2273DOPG   C1B49137  21.920  13.290   4.190
 2273DOPG   D2B49138  21.820  13.500   4.570
 2273DOPG   C3B49139  21.350  13.380   4.480
 2273DOPG   C4B49140  21.200  12.920   4.630
 2274DOPG   GL049141  18.470  20.850   8.870
 2274DOPG   PO449142  18.540  20.490   9.190
 2274DOPG   GL149143  18.680  20.300   9.500
 2274DOPG   GL249144  18.880  20.420   9.750
 2274DOPG   C1A49145  18.590  20.040   9.890
 2274DOPG   D2A49146  18.520  19.960  10.280
 2274DOPG   C3A49147  18.420  19.550  10.420
 2274DOPG   C4A49148  18.320  19.120  10.520
 2274DOPG   C1B49149  18.710  20.520  10.030
 2274DOPG   D2B49150  18.950  20.670  10.450
 2274DOPG   C3B49151  19.400  20.800  10.630
 2274DOPG   C4B49152  19.700  20.870  10.880
 2275DOPG   GL049153  17.720  16.510   7.910
 2275DOPG   PO449154  17.430  16.640   8.150
 2275DOPG   GL149155  17.270  16.520   8.570
 2275DOPG   GL249156  17.030  16.250   8.670
 2275DOPG   C1A49157  17.540  16.150   8.830
 2275DOPG   D2A49158  17.460  15.830   9.110
 2275DOPG   C3A49159  16.960  15.770   9.150
 2275DOPG   C4A49160  16.640  15.760   9.550
 2275DOPG   C1B49161  16.910  16.490   8.910
 2275DOPG   D2B49162  16.760  16.720   9.280
 2275DOPG   C3B49163  16.470  16.560   9.600
 2275DOPG   C4B49164  16.030  16.520   9.770
 2276DOPG   GL049165  15.450  12.600  16.890
 2276DOPG   PO449166  14.990  12.660  16.790
 2276DOPG   GL149167  15.160  12.810  16.390
 2276DOPG   GL249168  15.170  12.560  16.160
 2276DOPG   C1A49169  15.380  13.140  16.180
 2276DOPG   D2A49170  15.690  13.260  15.870
 2276DOPG   C3A49171  16.110  13.480  16.060
 2276DOPG   C4A49172  16.230  13.820  15.810
 2276DOPG   C1B49173  15.560  12.720  15.960
 2276DOPG   D2B49174  16.020  12.870  15.980
 2276DOPG   C3B49175  16.320  13.190  15.700
 2276DOPG   C4B49176  16.670  13.150  15.520
 2277DOPG   GL049177  29.360   8.590   6.930
 2277DOPG   PO449178  29.240   8.900   7.260
 2277DOPG   GL149179  28.900   8.860   7.440
 2277DOPG   GL249180  28.610   9.010   7.400
 2277DOPG   C1A49181  28.610   8.810   7.820
 2277DOPG   D2A49182  28.500   8.410   7.970
 2277DOPG   C3A49183  28.460   8.530   8.330
 2277DOPG   C4A49184  28.280   8.770   8.710
 2277DOPG   C1B49185  28.150   9.230   7.600
 2277DOPG   D2B49186  27.860   9.350   7.770
 2277DOPG   C3B49187  27.690   9.760   7.590
 2277DOPG   C4B49188  27.430  10.030   7.520
 2278DOPG   GL049189  27.130   4.550   9.400
 2278DOPG   PO449190  27.260   4.960   9.130
 2278DOPG   GL149191  26.870   5.100   9.230
 2278DOPG   GL249192  26.750   4.800   9.320
 2278DOPG   C1A49193  26.830   5.550   9.360
 2278DOPG   D2A49194  26.820   5.740   9.690
 2278DOPG   C3A49195  27.100   6.110   9.570
 2278DOPG   C4A49196  27.190   6.520   9.370
 2278DOPG   C1B49197  26.390   5.010   9.440
 2278DOPG   D2B49198  26.120   5.060   9.800
 2278DOPG   C3B49199  25.870   4.810  10.060
 2278DOPG   C4B49200  25.820   4.350  10.100
 2279DOPG   GL049201  17.460  18.870  18.170
 2279DOPG   PO449202  17.880  18.790  17.950
 2279DOPG   GL149203  17.840  18.450  17.550
 2279DOPG   GL249204  18.030  18.230  17.520
 2279DOPG   C1A49205  17.680  18.290  17.140
 2279DOPG   D2A49206  17.640  17.960  16.790
 2279DOPG   C3A49207  17.410  17.640  16.530
 2279DOPG   C4A49208  17.530  17.260  16.550
 2279DOPG   C1B49209  18.420  18.270  17.270
 2279DOPG   D2B49210  18.440  18.450  16.960
 2279DOPG   C3B49211  18.060  18.620  17.050
 2279DOPG   C4B49212  17.640  18.700  16.760
 2280DOPG   GL049213  16.470  27.980  12.390
 2280DOPG   PO449214  16.790  27.760  12.600
 2280DOPG   GL149215  16.890  27.330  12.580
 2280DOPG   GL249216  17.100  27.150  12.750
 2280DOPG   C1A49217  16.720  26.950  12.460
 2280DOPG   D2A49218  16.840  26.500  12.320
 2280DOPG   C3A49219  17.140  26.290  12.130
 2280DOPG   C4A49220  17.390  25.970  12.130
 2280DOPG   C1B49221  17.110  26.930  13.180
 2280DOPG   D2B49222  17.200  26.890  13.630
 2280DOPG   C3B49223  17.020  26.530  13.740
 2280DOPG   C4B49224  16.680  26.330  13.940
 2281DOPG   GL049225  27.740  14.790  13.510
 2281DOPG   PO449226  27.400  14.760  13.580
 2281DOPG   GL149227  27.100  14.790  13.970
 2281DOPG   GL249228  27.200  14.440  14.040
 2281DOPG   C1A49229  26.670  14.700  13.980
 2281DOPG   D2A49230  26.290  14.870  14.200
 2281DOPG   C3A49231  25.980  14.530  14.340
 2281DOPG   C4A49232  25.880  14.130  14.550
 2281DOPG   C1B49233  27.120  14.010  14.180
 2281DOPG   D2B49234  26.940  13.700  14.430
 2281DOPG   C3B49235  26.450  13.570  14.570
 2281DOPG   C4B49236  26.010  13.420  14.530
 2282DOPG   GL049237  20.890  10.920   7.990
 2282DOPG   PO449238  20.630  10.580   8.060
 2282DOPG   GL149239  20.430  10.310   7.820
 2282DOPG   GL249240  20.140  10.110   7.840
 2282DOPG   C1A49241  20.540  10.110   7.550
 2282DOPG   D2A49242  20.310   9.950   7.230
 2282DOPG   C3A49243  20.450   9.760   6.840
 2282DOPG   C4A49244  20.500   9.360   6.580
 2282DOPG   C1B49245  19.850   9.770   7.650
 2282DOPG   D2B49246  19.850   9.510   7.310
 2282DOPG   C3B49247  20.150   9.400   7.020
 2282DOPG   C4B49248  20.620   9.300   7.040
 2283DOPG   GL049249  24.980  17.840  11.130
 2283DOPG   PO449250  24.910  18.240  11.160
 2283DOPG   GL149251  24.710  18.000  11.530
 2283DOPG   GL249252  24.530  18.080  11.780
 2283DOPG   C1A49253  24.410  17.670  11.350
 2283DOPG   D2A49254  24.000  17.510  11.570
 2283DOPG   C3A49255  23.960  17.060  11.690
 2283DOPG   C4A49256  24.000  16.670  11.800
 2283DOPG   C1B49257  24.130  17.900  11.850
 2283DOPG   D2B49258  23.750  18.130  11.980
 2283DOPG   C3B49259  23.690  18.280  12.500
 2283DOPG   C4B49260  23.760  18.360  12.900
 2284DOPG   GL049261  21.070   9.860   9.150
 2284DOPG   PO449262  20.700   9.530   9.130
 2284DOPG   GL149263  20.750   9.670   9.590
 2284DOPG   GL249264  20.570   9.520   9.780
 2284DOPG   C1A49265  21.090   9.860   9.930
 2284DOPG   D2A49266  21.460  10.150   9.970
 2284DOPG   C3A49267  21.480  10.540  10.170
 2284DOPG   C4A49268  21.260  10.850  10.400
 2284DOPG   C1B49269  20.400   9.580  10.080
 2284DOPG   D2B49270  20.220   9.770  10.270
 2284DOPG   C3B49271  20.280  10.000  10.640
 2284DOPG   C4B49272  20.210  10.480  10.800
 2285DOPG   GL049273  18.060  22.000  10.180
 2285DOPG   PO449274  18.220  21.820  10.470
 2285DOPG   GL149275  18.180  21.490  10.830
 2285DOPG   GL249276  18.360  21.720  10.950
 2285DOPG   C1A49277  18.280  21.150  11.090
 2285DOPG   D2A49278  18.220  20.840  11.330
 2285DOPG   C3A49279  18.300  20.650  11.800
 2285DOPG   C4A49280  18.540  20.330  12.040
 2285DOPG   C1B49281  18.750  21.840  11.140
 2285DOPG   D2B49282  19.210  21.680  11.090
 2285DOPG   C3B49283  19.370  21.550  11.560
 2285DOPG   C4B49284  19.240  21.850  11.790
 2286DOPG   GL049285   8.450  15.520  19.960
 2286DOPG   PO449286   8.420  15.090  19.770
 2286DOPG   GL149287   8.620  14.940  19.400
 2286DOPG   GL249288   8.420  14.970  19.080
 2286DOPG   C1A49289   8.700  14.590  19.090
 2286DOPG   D2A49290   8.950  14.440  18.790
 2286DOPG   C3A49291   8.990  14.170  18.490
 2286DOPG   C4A49292   8.960  13.960  18.190
 2286DOPG   C1B49293   8.770  15.280  18.980
 2286DOPG   D2B49294   8.930  15.520  18.780
 2286DOPG   C3B49295   9.270  15.360  18.660
 2286DOPG   C4B49296   9.630  15.500  18.800
 2287DOPG   GL049297  23.260  18.720   9.100
 2287DOPG   PO449298  23.280  18.250   8.930
 2287DOPG   GL149299  23.180  17.950   9.300
 2287DOPG   GL249300  23.060  18.080   9.560
 2287DOPG   C1A49301  23.210  17.570   9.440
 2287DOPG   D2A49302  23.380  17.330   9.790
 2287DOPG   C3A49303  23.330  16.950   9.930
 2287DOPG   C4A49304  23.120  16.940   9.560
 2287DOPG   C1B49305  22.930  18.240   9.930
 2287DOPG   D2B49306  23.060  18.190  10.290
 2287DOPG   C3B49307  22.700  18.430  10.490
 2287DOPG   C4B49308  22.640  18.800  10.660
 2288DOPG   GL049309  17.140   7.970  12.960
 2288DOPG   PO449310  17.380   7.620  12.760
 2288DOPG   GL149311  17.850   7.600  12.830
 2288DOPG   GL249312  18.050   7.600  12.520
 2288DOPG   C1A49313  18.070   7.990  12.830
 2288DOPG   D2A49314  18.370   8.330  12.990
 2288DOPG   C3A49315  18.320   8.640  12.920
 2288DOPG   C4A49316  18.360   9.170  12.910
 2288DOPG   C1B49317  18.490   7.490  12.800
 2288DOPG   D2B49318  18.650   7.410  13.130
 2288DOPG   C3B49319  18.900   7.340  13.570
 2288DOPG   C4B49320  19.090   7.230  14.030
 2289DOPG   GL049321  19.420  22.200  17.280
 2289DOPG   PO449322  19.820  22.160  17.400
 2289DOPG   GL149323  19.930  22.590  17.500
 2289DOPG   GL249324  20.270  22.480  17.700
 2289DOPG   C1A49325  20.000  22.720  17.970
 2289DOPG   D2A49326  19.910  22.670  18.330
 2289DOPG   C3A49327  19.820  22.720  18.830
 2289DOPG   C4A49328  19.680  22.370  19.150
 2289DOPG   C1B49329  20.550  22.440  17.950
 2289DOPG   D2B49330  20.790  22.580  18.360
 2289DOPG   C3B49331  20.810  22.550  18.820
 2289DOPG   C4B49332  21.000  22.800  19.210
 2290DOPG   GL049333  14.440   3.900   8.290
 2290DOPG   PO449334  14.580   4.320   8.240
 2290DOPG   GL149335  14.560   4.780   8.460
 2290DOPG   GL249336  14.880   4.710   8.440
 2290DOPG   C1A49337  14.690   5.180   8.560
 2290DOPG   D2A49338  14.880   5.600   8.750
 2290DOPG   C3A49339  15.000   5.790   9.090
 2290DOPG   C4A49340  15.290   6.090   9.480
 2290DOPG   C1B49341  15.060   4.950   8.800
 2290DOPG   D2B49342  15.310   4.870   9.150
 2290DOPG   C3B49343  15.260   4.510   9.300
 2290DOPG   C4B49344  15.240   4.190   9.580
 2291DOPG   GL049345  25.620  16.680  17.580
 2291DOPG   PO449346  25.570  16.280  17.200
 2291DOPG   GL149347  25.330  16.070  16.920
 2291DOPG   GL249348  25.570  15.800  16.890
 2291DOPG   C1A49349  25.100  16.000  16.480
 2291DOPG   D2A49350  24.730  16.340  16.460
 2291DOPG   C3A49351  24.280  16.310  16.300
 2291DOPG   C4A49352  24.020  16.590  16.310
 2291DOPG   C1B49353  25.330  15.570  16.650
 2291DOPG   D2B49354  25.050  15.510  16.290
 2291DOPG   C3B49355  24.690  15.280  16.410
 2291DOPG   C4B49356  24.380  14.950  16.470
 2292DOPG   GL049357  15.910  19.520   8.840
 2292DOPG   PO449358  15.960  19.180   9.100
 2292DOPG   GL149359  16.120  18.870   9.450
 2292DOPG   GL249360  16.360  18.710   9.300
 2292DOPG   C1A49361  16.160  18.430   9.730
 2292DOPG   D2A49362  16.240  18.380  10.150
 2292DOPG   C3A49363  16.050  18.220  10.560
 2292DOPG   C4A49364  15.750  18.260  10.930
 2292DOPG   C1B49365  16.620  18.420   9.460
 2292DOPG   D2B49366  16.490  17.970   9.650
 2292DOPG   C3B49367  16.710  17.640   9.520
 2292DOPG   C4B49368  17.050  17.450   9.570
 2293DOPG   GL049369  15.660  17.090   8.730
 2293DOPG   PO449370  16.060  17.290   8.670
 2293DOPG   GL149371  16.130  17.330   9.140
 2293DOPG   GL249372  15.850  17.180   9.220
 2293DOPG   C1A49373  16.230  17.520   9.500
 2293DOPG   D2A49374  16.210  17.560   9.910
 2293DOPG   C3A49375  16.560  17.750  10.150
 2293DOPG   C4A49376  16.800  17.580  10.560
 2293DOPG   C1B49377  16.000  17.130   9.650
 2293DOPG   D2B49378  16.400  16.970   9.940
 2293DOPG   C3B49379  16.720  17.320   9.930
 2293DOPG   C4B49380  16.990  17.640  10.010
 2294DOPG   GL049381   8.470   7.510  16.380
 2294DOPG   PO449382   8.670   7.460  16.790
 2294DOPG   GL149383   8.830   7.750  16.560
 2294DOPG   GL249384   9.150   7.850  16.740
 2294DOPG   C1A49385   8.970   8.160  16.280
 2294DOPG   D2A49386   9.110   8.070  15.890
 2294DOPG   C3A49387   9.010   7.890  15.490
 2294DOPG   C4A49388   8.750   7.780  15.140
 2294DOPG   C1B49389   9.490   7.710  17.010
 2294DOPG   D2B49390   9.770   8.090  16.910
 2294DOPG   C3B49391   9.900   8.160  16.540
 2294DOPG   C4B49392   9.950   8.360  16.160
 2295DOPG   GL049393  25.550   1.910  13.800
 2295DOPG   PO449394  25.830   2.250  13.930
 2295DOPG   GL149395  25.670   2.600  14.200
 2295DOPG   GL249396  25.750   2.740  14.450
 2295DOPG   C1A49397  25.400   2.970  14.120
 2295DOPG   D2A49398  25.090   3.220  14.170
 2295DOPG   C3A49399  24.860   3.600  14.000
 2295DOPG   C4A49400  24.950   3.960  13.730
 2295DOPG   C1B49401  25.400   3.010  14.630
 2295DOPG   D2B49402  25.120   3.260  14.630
 2295DOPG   C3B49403  24.960   3.590  14.800
 2295DOPG   C4B49404  24.810   4.030  14.620
 2296DOPG   GL049405  23.520  20.130   3.560
 2296DOPG   PO449406  23.150  20.170   3.780
 2296DOPG   GL149407  23.080  19.960   4.170
 2296DOPG   GL249408  23.180  19.680   4.160
 2296DOPG   C1A49409  22.970  19.750   4.600
 2296DOPG   D2A49410  22.860  19.370   4.920
 2296DOPG   C3A49411  22.980  19.350   5.310
 2296DOPG   C4A49412  22.810  19.000   5.540
 2296DOPG   C1B49413  22.870  19.320   4.350
 2296DOPG   D2B49414  22.890  18.900   4.350
 2296DOPG   C3B49415  22.490  18.710   4.380
 2296DOPG   C4B49416  22.170  18.920   4.280
 2297DOPG   GL049417  16.260  23.380  21.780
 2297DOPG   PO449418  16.020  23.120  21.530
 2297DOPG   GL149419  16.220  23.010  21.180
 2297DOPG   GL249420  16.520  22.990  21.000
 2297DOPG   C1A49421  15.950  22.830  20.840
 2297DOPG   D2A49422  15.720  22.910  20.350
 2297DOPG   C3A49423  15.950  22.840  20.010
 2297DOPG   C4A49424  16.360  22.790  19.720
 2297DOPG   C1B49425  16.470  22.650  20.750
 2297DOPG   D2B49426  16.470  22.450  20.380
 2297DOPG   C3B49427  16.240  22.370  20.000
 2297DOPG   C4B49428  15.890  22.420  19.710
 2298DOPG   GL049429  15.290  16.740   3.540
 2298DOPG   PO449430  15.600  16.980   3.500
 2298DOPG   GL149431  15.930  17.200   3.850
 2298DOPG   GL249432  16.210  16.980   3.810
 2298DOPG   C1A49433  15.950  17.160   4.300
 2298DOPG   D2A49434  16.130  17.440   4.590
 2298DOPG   C3A49435  16.080  17.430   4.980
 2298DOPG   C4A49436  16.120  17.480   5.410
 2298DOPG   C1B49437  16.140  16.710   4.210
 2298DOPG   D2B49438  16.120  16.420   4.620
 2298DOPG   C3B49439  16.380  16.480   5.030
 2298DOPG   C4B49440  16.560  16.800   5.310
 2299DOPG   GL049441  10.690   7.490   8.150
 2299DOPG   PO449442  11.010   7.170   8.220
 2299DOPG   GL149443  11.150   7.420   8.620
 2299DOPG   GL249444  11.200   7.240   8.900
 2299DOPG   C1A49445  11.610   7.430   8.870
 2299DOPG   D2A49446  12.070   7.410   8.990
 2299DOPG   C3A49447  12.430   7.360   8.770
 2299DOPG   C4A49448  12.700   7.640   8.560
 2299DOPG   C1B49449  11.070   7.570   9.140
 2299DOPG   D2B49450  11.350   7.850   9.210
 2299DOPG   C3B49451  11.310   8.010   8.790
 2299DOPG   C4B49452  11.580   8.160   8.400
 2300DOPG   GL049453  20.140  11.080   8.810
 2300DOPG   PO449454  20.530  11.130   8.630
 2300DOPG   GL149455  20.570  11.200   9.110
 2300DOPG   GL249456  20.550  11.600   9.120
 2300DOPG   C1A49457  20.810  11.180   9.460
 2300DOPG   D2A49458  21.030  11.010   9.840
 2300DOPG   C3A49459  21.180  11.270  10.250
 2300DOPG   C4A49460  21.280  11.400  10.680
 2300DOPG   C1B49461  20.490  11.650   9.530
 2300DOPG   D2B49462  20.380  11.690   9.980
 2300DOPG   C3B49463  20.400  12.030  10.360
 2300DOPG   C4B49464  20.170  12.160  10.600
 2301DOPG   GL049465  16.640  13.380   8.790
 2301DOPG   PO449466  16.560  13.750   8.460
 2301DOPG   GL149467  16.750  13.900   8.860
 2301DOPG   GL249468  17.020  14.150   8.610
 2301DOPG   C1A49469  16.930  13.940   9.290
 2301DOPG   D2A49470  16.960  13.760   9.630
 2301DOPG   C3A49471  17.060  13.990  10.000
 2301DOPG   C4A49472  16.980  14.050  10.320
 2301DOPG   C1B49473  17.050  14.350   9.000
 2301DOPG   D2B49474  16.770  14.500   9.310
 2301DOPG   C3B49475  17.020  14.810   9.510
 2301DOPG   C4B49476  17.360  14.900   9.890
 2302DOPG   GL049477  21.460   6.430  23.610
 2302DOPG   PO449478  21.850   6.350  23.350
 2302DOPG   GL149479  21.860   6.490  22.960
 2302DOPG   GL249480  21.860   6.250  22.790
 2302DOPG   C1A49481  21.880   6.760  22.600
 2302DOPG   D2A49482  21.850   7.080  22.250
 2302DOPG   C3A49483  21.650   7.560  22.270
 2302DOPG   C4A49484  21.720   7.840  22.590
 2302DOPG   C1B49485  22.140   6.340  22.500
 2302DOPG   D2B49486  22.600   6.340  22.430
 2302DOPG   C3B49487  22.810   6.240  22.020
 2302DOPG   C4B49488  22.840   6.210  21.500
 2303DOPG   GL049489  20.430  27.080  16.050
 2303DOPG   PO449490  20.760  27.180  16.430
 2303DOPG   GL149491  20.900  26.950  16.070
 2303DOPG   GL249492  21.040  27.170  15.870
 2303DOPG   C1A49493  20.790  26.720  15.760
 2303DOPG   D2A49494  20.980  26.520  15.490
 2303DOPG   C3A49495  21.250  26.170  15.440
 2303DOPG   C4A49496  21.420  25.780  15.310
 2303DOPG   C1B49497  21.310  26.880  15.700
 2303DOPG   D2B49498  21.400  26.700  15.250
 2303DOPG   C3B49499  21.120  26.370  14.940
 2303DOPG   C4B49500  21.230  26.110  14.730
 2304DOPG   GL049501   8.430  16.950  19.940
 2304DOPG   PO449502   8.550  16.920  19.420
 2304DOPG   GL149503   8.700  16.980  19.060
 2304DOPG   GL249504   8.930  16.800  19.060
 2304DOPG   C1A49505   8.890  17.300  18.830
 2304DOPG   D2A49506   9.020  17.430  18.390
 2304DOPG   C3A49507   9.340  17.290  18.090
 2304DOPG   C4A49508   9.720  17.470  17.850
 2304DOPG   C1B49509   9.180  16.510  18.820
 2304DOPG   D2B49510   9.250  16.420  18.450
 2304DOPG   C3B49511   9.090  16.220  18.130
 2304DOPG   C4B49512   8.780  16.050  17.860
 2305DOPG   GL049513  12.990  14.910   4.520
 2305DOPG   PO449514  12.950  14.570   4.290
 2305DOPG   GL149515  13.310  14.300   4.530
 2305DOPG   GL249516  13.410  14.540   4.660
 2305DOPG   C1A49517  13.620  14.060   4.780
 2305DOPG   D2A49518  13.850  14.040   5.090
 2305DOPG   C3A49519  14.030  14.370   5.000
 2305DOPG   C4A49520  14.070  14.700   4.730
 2305DOPG   C1B49521  13.550  14.570   4.990
 2305DOPG   D2B49522  13.620  14.360   5.350
 2305DOPG   C3B49523  14.020  14.370   5.610
 2305DOPG   C4B49524  14.170  14.480   5.970
 2306DOPG   GL049525  20.820   0.920  15.660
 2306DOPG   PO449526  20.720   1.190  15.950
 2306DOPG   GL149527  20.540   1.690  15.970
 2306DOPG   GL249528  20.830   1.910  15.970
 2306DOPG   C1A49529  20.520   2.130  15.750
 2306DOPG   D2A49530  20.570   2.450  15.570
 2306DOPG   C3A49531  20.860   2.360  15.200
 2306DOPG   C4A49532  21.290   2.320  14.900
 2306DOPG   C1B49533  21.010   2.280  15.630
 2306DOPG   D2B49534  21.320   2.580  15.500
 2306DOPG   C3B49535  21.300   3.050  15.470
 2306DOPG   C4B49536  21.400   3.370  15.260
 2307DOPG   GL049537  22.480  13.400   3.250
 2307DOPG   PO449538  22.480  13.670   3.520
 2307DOPG   GL149539  22.720  13.460   3.860
 2307DOPG   GL249540  23.100  13.550   3.850
 2307DOPG   C1A49541  22.820  13.390   4.300
 2307DOPG   D2A49542  22.790  13.150   4.680
 2307DOPG   C3A49543  22.960  13.310   5.110
 2307DOPG   C4A49544  23.350  13.490   5.220
 2307DOPG   C1B49545  22.980  13.810   4.240
 2307DOPG   D2B49546  22.910  14.180   4.540
 2307DOPG   C3B49547  22.830  14.470   4.770
 2307DOPG   C4B49548  22.810  14.320   5.200
 2308DOPG   GL049549  10.350   5.560  18.150
 2308DOPG   PO449550  10.650   5.300  17.940
 2308DOPG   GL149551  10.820   5.710  17.860
 2308DOPG   GL249552  11.170   5.920  18.200
 2308DOPG   C1A49553  10.950   5.840  17.540
 2308DOPG   D2A49554  11.260   6.210  17.360
 2308DOPG   C3A49555  11.610   6.360  17.520
 2308DOPG   C4A49556  11.860   6.650  17.740
 2308DOPG   C1B49557  11.230   6.340  18.400
 2308DOPG   D2B49558  11.630   6.520  18.480
 2308DOPG   C3B49559  11.940   6.660  18.310
 2308DOPG   C4B49560  12.420   6.650  18.190
 2309DOPG   GL049561  23.240  16.560  18.610
 2309DOPG   PO449562  23.130  16.870  18.350
 2309DOPG   GL149563  23.040  16.960  17.830
 2309DOPG   GL249564  23.290  16.800  17.810
 2309DOPG   C1A49565  22.910  16.770  17.380
 2309DOPG   D2A49566  23.010  16.920  17.030
 2309DOPG   C3A49567  22.720  16.920  16.740
 2309DOPG   C4A49568  22.450  16.920  16.380
 2309DOPG   C1B49569  23.100  16.430  17.660
 2309DOPG   D2B49570  22.970  16.240  17.220
 2309DOPG   C3B49571  23.090  16.290  16.770
 2309DOPG   C4B49572  23.440  16.340  16.470
 2310DOPG   GL049573  18.980   4.640  16.800
 2310DOPG   PO449574  18.650   4.970  16.860
 2310DOPG   GL149575  18.510   4.540  16.940
 2310DOPG   GL249576  18.250   4.690  17.180
 2310DOPG   C1A49577  18.360   4.090  16.800
 2310DOPG   D2A49578  18.470   3.660  16.960
 2310DOPG   C3A49579  18.910   3.590  16.800
 2310DOPG   C4A49580  19.410   3.600  16.450
 2310DOPG   C1B49581  18.090   4.350  17.220
 2310DOPG   D2B49582  17.890   4.120  17.620
 2310DOPG   C3B49583  17.710   3.970  18.050
 2310DOPG   C4B49584  17.620   3.540  18.170
 2311DOPG   GL049585  18.230   5.280  12.800
 2311DOPG   PO449586  18.240   5.100  12.390
 2311DOPG   GL149587  17.970   4.800  12.310
 2311DOPG   GL249588  18.200   4.520  12.220
 2311DOPG   C1A49589  17.810   4.620  11.840
 2311DOPG   D2A49590  17.840   4.730  11.440
 2311DOPG   C3A49591  17.880   4.480  11.060
 2311DOPG   C4A49592  17.480   4.240  11.140
 2311DOPG   C1B49593  17.750   4.300  12.190
 2311DOPG   D2B49594  17.380   4.120  12.280
 2311DOPG   C3B49595  17.370   3.930  12.650
 2311DOPG   C4B49596  17.430   4.020  13.090
 2312DOPG   GL049597  22.140   8.140  10.530
 2312DOPG   PO449598  22.230   8.290  10.050
 2312DOPG   GL149599  22.310   8.660  10.280
 2312DOPG   GL249600  22.160   8.920  10.050
 2312DOPG   C1A49601  22.350   8.730  10.660
 2312DOPG   D2A49602  22.210   8.900  11.020
 2312DOPG   C3A49603  21.920   8.850  11.340
 2312DOPG   C4A49604  21.630   8.920  11.600
 2312DOPG   C1B49605  21.800   8.710  10.340
 2312DOPG   D2B49606  21.810   8.440  10.750
 2312DOPG   C3B49607  21.530   8.590  11.120
 2312DOPG   C4B49608  21.230   8.610  11.410
 2313DOPG   GL049609  25.170  15.260  17.970
 2313DOPG   PO449610  25.430  15.430  17.700
 2313DOPG   GL149611  25.060  15.310  17.470
 2313DOPG   GL249612  25.040  14.920  17.470
 2313DOPG   C1A49613  24.960  15.430  17.130
 2313DOPG   D2A49614  24.880  15.700  16.800
 2313DOPG   C3A49615  24.590  15.780  16.480
 2313DOPG   C4A49616  24.650  15.970  15.990
 2313DOPG   C1B49617  24.580  15.120  17.290
 2313DOPG   D2B49618  24.140  15.090  17.110
 2313DOPG   C3B49619  23.830  15.340  16.970
 2313DOPG   C4B49620  23.370  15.360  16.940
 2314DOPG   GL049621  12.450  11.560  17.070
 2314DOPG   PO449622  12.020  11.340  17.170
 2314DOPG   GL149623  11.500  11.240  17.320
 2314DOPG   GL249624  11.240  11.510  17.320
 2314DOPG   C1A49625  11.140  10.980  17.400
 2314DOPG   D2A49626  10.830  10.890  17.740
 2314DOPG   C3A49627  10.430  10.820  17.740
 2314DOPG   C4A49628  10.000  10.650  17.820
 2314DOPG   C1B49629  10.850  11.350  17.620
 2314DOPG   D2B49630  10.540  11.460  17.790
 2314DOPG   C3B49631  10.130  11.220  17.950
 2314DOPG   C4B49632   9.700  11.050  18.180
 2315DOPG   GL049633  19.330  20.780   9.790
 2315DOPG   PO449634  19.770  20.770   9.580
 2315DOPG   GL149635  19.900  20.500   9.900
 2315DOPG   GL249636  20.140  20.220   9.780
 2315DOPG   C1A49637  20.010  20.120  10.270
 2315DOPG   D2A49638  20.080  19.790  10.500
 2315DOPG   C3A49639  19.730  19.500  10.490
 2315DOPG   C4A49640  19.270  19.220  10.190
 2315DOPG   C1B49641  19.910  19.930   9.810
 2315DOPG   D2B49642  19.610  19.620   9.950
 2315DOPG   C3B49643  19.370  19.710  10.290
 2315DOPG   C4B49644  18.920  19.610  10.300
 2316DOPG   GL049645  21.780  10.660  13.270
 2316DOPG   PO449646  22.160  10.410  13.520
 2316DOPG   GL149647  22.450  10.250  13.190
 2316DOPG   GL249648  22.440  10.160  12.820
 2316DOPG   C1A49649  22.750  10.060  13.310
 2316DOPG   D2A49650  23.010   9.910  13.620
 2316DOPG   C3A49651  23.210   9.700  13.870
 2316DOPG   C4A49652  23.160   9.260  14.060
 2316DOPG   C1B49653  22.110  10.100  12.550
 2316DOPG   D2B49654  22.120  10.070  12.190
 2316DOPG   C3B49655  22.000   9.790  11.910
 2316DOPG   C4B49656  21.820   9.420  11.930
 2317DOPG   GL049657  12.320  18.670  14.500
 2317DOPG   PO449658  12.200  18.240  14.420
 2317DOPG   GL149659  12.460  17.960  14.300
 2317DOPG   GL249660  12.820  18.040  14.290
 2317DOPG   C1A49661  12.630  17.570  14.370
 2317DOPG   D2A49662  12.780  17.250  13.990
 2317DOPG   C3A49663  13.260  17.160  14.000
 2317DOPG   C4A49664  13.640  17.350  13.890
 2317DOPG   C1B49665  13.220  18.040  14.230
 2317DOPG   D2B49666  13.420  17.970  13.820
 2317DOPG   C3B49667  13.790  17.790  13.840
 2317DOPG   C4B49668  14.210  17.570  13.920
 2318DOPG   GL049669  22.370  16.460  18.610
 2318DOPG   PO449670  22.400  16.500  18.250
 2318DOPG   GL149671  22.430  16.450  17.820
 2318DOPG   GL249672  22.610  16.500  17.720
 2318DOPG   C1A49673  22.070  16.390  17.570
 2318DOPG   D2A49674  21.800  16.430  17.240
 2318DOPG   C3A49675  22.000  16.270  16.940
 2318DOPG   C4A49676  22.140  15.910  17.040
 2318DOPG   C1B49677  22.500  16.520  17.280
 2318DOPG   D2B49678  22.560  16.380  16.950
 2318DOPG   C3B49679  22.730  16.530  16.460
 2318DOPG   C4B49680  22.960  16.350  16.120
 2319DOPG   GL049681  17.720  26.320  17.750
 2319DOPG   PO449682  17.930  26.590  17.630
 2319DOPG   GL149683  18.180  26.250  17.580
 2319DOPG   GL249684  18.490  26.190  17.620
 2319DOPG   C1A49685  18.230  25.750  17.500
 2319DOPG   D2A49686  18.520  25.360  17.500
 2319DOPG   C3A49687  18.430  24.790  17.640
 2319DOPG   C4A49688  18.650  24.420  17.720
 2319DOPG   C1B49689  18.750  25.840  17.330
 2319DOPG   D2B49690  18.960  25.460  17.170
 2319DOPG   C3B49691  18.750  24.970  17.170
 2319DOPG   C4B49692  18.530  24.730  16.880
 2320DOPG   GL049693  14.840   7.950  18.560
 2320DOPG   PO449694  15.040   7.500  18.780
 2320DOPG   GL149695  14.820   7.070  18.820
 2320DOPG   GL249696  15.000   6.880  18.990
 2320DOPG   C1A49697  14.600   6.610  18.750
 2320DOPG   D2A49698  14.410   6.300  18.480
 2320DOPG   C3A49699  14.130   6.130  18.590
 2320DOPG   C4A49700  13.770   6.010  18.910
 2320DOPG   C1B49701  14.700   6.590  19.220
 2320DOPG   D2B49702  14.560   6.240  19.540
 2320DOPG   C3B49703  14.190   6.000  19.480
 2320DOPG   C4B49704  13.750   5.860  19.400
 2321DOPG   GL049705  13.960   7.670  17.000
 2321DOPG   PO449706  13.830   7.480  17.400
 2321DOPG   GL149707  13.880   7.070  17.590
 2321DOPG   GL249708  13.670   7.210  17.750
 2321DOPG   C1A49709  13.900   6.590  17.890
 2321DOPG   D2A49710  13.930   6.190  18.080
 2321DOPG   C3A49711  13.620   6.160  18.390
 2321DOPG   C4A49712  13.440   6.400  18.730
 2321DOPG   C1B49713  13.290   7.270  17.820
 2321DOPG   D2B49714  12.950   7.390  18.140
 2321DOPG   C3B49715  12.750   7.080  18.530
 2321DOPG   C4B49716  12.600   6.980  18.990
 2322DOPG   GL049717  10.660  14.490  16.720
 2322DOPG   PO449718  10.580  14.100  16.980
 2322DOPG   GL149719  10.130  14.090  16.790
 2322DOPG   GL249720   9.870  13.870  16.490
 2322DOPG   C1A49721   9.750  14.220  16.830
 2322DOPG   D2A49722   9.250  14.210  16.750
 2322DOPG   C3A49723   9.030  14.640  16.530
 2322DOPG   C4A49724   8.530  14.680  16.320
 2322DOPG   C1B49725   9.650  13.410  16.550
 2322DOPG   D2B49726   9.490  13.080  16.870
 2322DOPG   C3B49727   9.110  13.120  17.140
 2322DOPG   C4B49728   9.080  13.160  17.680
 2323DOPG   GL049729  14.890   7.140  17.730
 2323DOPG   PO449730  14.920   6.810  17.420
 2323DOPG   GL149731  14.990   6.450  17.680
 2323DOPG   GL249732  15.100   6.160  17.860
 2323DOPG   C1A49733  14.760   6.040  17.540
 2323DOPG   D2A49734  14.450   5.770  17.600
 2323DOPG   C3A49735  14.230   5.360  17.540
 2323DOPG   C4A49736  14.380   4.980  17.250
 2323DOPG   C1B49737  14.820   5.750  17.940
 2323DOPG   D2B49738  14.670   5.300  17.890
 2323DOPG   C3B49739  14.630   5.070  18.240
 2323DOPG   C4B49740  14.750   5.010  18.610
 2324DOPG   GL049741  20.910   7.950   9.050
 2324DOPG   PO449742  20.480   7.910   9.020
 2324DOPG   GL149743  20.190   7.850   8.750
 2324DOPG   GL249744  20.290   8.080   8.540
 2324DOPG   C1A49745  19.850   7.630   8.560
 2324DOPG   D2A49746  19.580   7.370   8.310
 2324DOPG   C3A49747  19.590   6.990   8.210
 2324DOPG   C4A49748  19.330   6.640   8.060
 2324DOPG   C1B49749  20.360   7.740   8.350
 2324DOPG   D2B49750  20.590   7.240   8.280
 2324DOPG   C3B49751  20.440   7.090   7.980
 2324DOPG   C4B49752  20.190   7.190   7.650
 2325DOPG   GL049753  18.960  16.240  12.140
 2325DOPG   PO449754  19.260  16.010  11.800
 2325DOPG   GL149755  19.330  15.890  11.320
 2325DOPG   GL249756  19.320  15.620  11.290
 2325DOPG   C1A49757  19.340  16.130  10.940
 2325DOPG   D2A49758  19.520  16.080  10.500
 2325DOPG   C3A49759  19.840  15.780  10.390
 2325DOPG   C4A49760  19.940  15.250  10.350
 2325DOPG   C1B49761  19.260  15.620  10.910
 2325DOPG   D2B49762  19.180  15.740  10.450
 2325DOPG   C3B49763  19.150  15.640  10.000
 2325DOPG   C4B49764  19.000  15.760   9.580
 2326DOPG   GL049765  17.730  10.180  18.690
 2326DOPG   PO449766  17.950  10.410  18.380
 2326DOPG   GL149767  18.150  10.520  17.890
 2326DOPG   GL249768  18.050  10.370  17.540
 2326DOPG   C1A49769  18.160  10.750  17.320
 2326DOPG   D2A49770  18.170  11.060  17.040
 2326DOPG   C3A49771  18.320  11.230  16.620
 2326DOPG   C4A49772  18.560  11.240  16.220
 2326DOPG   C1B49773  17.800  10.780  17.630
 2326DOPG   D2B49774  17.590  10.850  17.230
 2326DOPG   C3B49775  17.660  11.150  17.070
 2326DOPG   C4B49776  17.600  11.450  16.690
 2327DOPG   GL049777  13.060  20.560  15.590
 2327DOPG   PO449778  12.920  20.580  15.970
 2327DOPG   GL149779  12.840  20.990  15.940
 2327DOPG   GL249780  12.750  21.120  15.680
 2327DOPG   C1A49781  12.660  21.250  16.370
 2327DOPG   D2A49782  12.560  21.600  16.640
 2327DOPG   C3A49783  12.330  21.960  16.630
 2327DOPG   C4A49784  12.180  22.320  16.550
 2327DOPG   C1B49785  12.380  21.360  15.970
 2327DOPG   D2B49786  12.090  21.400  16.170
 2327DOPG   C3B49787  12.020  21.070  16.330
 2327DOPG   C4B49788  11.850  20.790  16.600
 2328DOPG   GL049789  19.350  13.370  12.620
 2328DOPG   PO449790  19.630  13.050  12.490
 2328DOPG   GL149791  19.560  13.130  12.020
 2328DOPG   GL249792  19.370  13.210  11.770
 2328DOPG   C1A49793  19.680  12.790  11.730
 2328DOPG   D2A49794  19.930  12.360  11.730
 2328DOPG   C3A49795  19.670  11.980  11.640
 2328DOPG   C4A49796  19.770  11.690  11.370
 2328DOPG   C1B49797  19.310  12.910  11.400
 2328DOPG   D2B49798  19.300  12.650  11.100
 2328DOPG   C3B49799  19.230  12.250  10.980
 2328DOPG   C4B49800  19.230  11.960  10.790
 2329DOPG   GL049801  22.580  22.560  12.340
 2329DOPG   PO449802  22.280  22.840  12.190
 2329DOPG   GL149803  22.550  23.080  12.000
 2329DOPG   GL249804  22.620  23.210  11.710
 2329DOPG   C1A49805  22.840  23.470  12.060
 2329DOPG   D2A49806  23.200  23.720  11.840
 2329DOPG   C3A49807  23.220  24.180  11.660
 2329DOPG   C4A49808  23.000  24.300  11.280
 2329DOPG   C1B49809  22.240  23.460  11.720
 2329DOPG   D2B49810  21.840  23.470  11.740
 2329DOPG   C3B49811  21.600  23.750  11.480
 2329DOPG   C4B49812  21.630  24.240  11.350
 2330DOPG   GL049813  20.970   5.250  13.080
 2330DOPG   PO449814  21.190   4.870  13.220
 2330DOPG   GL149815  21.320   4.510  13.070
 2330DOPG   GL249816  21.530   4.600  12.800
 2330DOPG   C1A49817  21.510   4.090  12.960
 2330DOPG   D2A49818  21.590   3.670  12.850
 2330DOPG   C3A49819  21.920   3.560  12.590
 2330DOPG   C4A49820  21.830   3.560  12.210
 2330DOPG   C1B49821  21.650   4.200  12.520
 2330DOPG   D2B49822  21.980   4.060  12.220
 2330DOPG   C3B49823  22.400   4.120  12.250
 2330DOPG   C4B49824  22.730   4.430  12.130
 2331DOPG   GL049825  27.090  10.820   5.070
 2331DOPG   PO449826  27.010  10.360   5.100
 2331DOPG   GL149827  26.680  10.620   5.290
 2331DOPG   GL249828  26.340  10.640   5.270
 2331DOPG   C1A49829  26.480  10.260   5.630
 2331DOPG   D2A49830  26.320   9.870   5.920
 2331DOPG   C3A49831  26.050   9.560   5.780
 2331DOPG   C4A49832  25.770   9.370   5.520
 2331DOPG   C1B49833  26.290  10.800   5.650
 2331DOPG   D2B49834  26.170  10.750   6.120
 2331DOPG   C3B49835  25.720  10.870   6.260
 2331DOPG   C4B49836  25.610  11.110   6.590
 2332DOPG   GL049837  12.760  19.680  13.000
 2332DOPG   PO449838  12.860  19.950  13.370
 2332DOPG   GL149839  13.310  19.960  13.340
 2332DOPG   GL249840  13.560  20.130  13.500
 2332DOPG   C1A49841  13.570  19.670  13.560
 2332DOPG   D2A49842  13.480  19.580  14.030
 2332DOPG   C3A49843  13.410  19.230  14.210
 2332DOPG   C4A49844  13.510  18.920  14.300
 2332DOPG   C1B49845  13.720  20.000  13.080
 2332DOPG   D2B49846  13.940  19.890  12.740
 2332DOPG   C3B49847  13.980  19.470  12.760
 2332DOPG   C4B49848  14.310  19.270  12.990
 2333DOPG   GL049849  19.450  10.780  14.530
 2333DOPG   PO449850  19.510  11.150  14.210
 2333DOPG   GL149851  19.230  11.230  14.560
 2333DOPG   GL249852  18.940  11.360  14.490
 2333DOPG   C1A49853  19.030  10.870  14.850
 2333DOPG   D2A49854  18.970  10.420  15.080
 2333DOPG   C3A49855  19.120  10.010  14.900
 2333DOPG   C4A49856  19.480   9.750  14.840
 2333DOPG   C1B49857  18.730  11.280  14.890
 2333DOPG   D2B49858  18.790  11.110  15.240
 2333DOPG   C3B49859  18.480  11.150  15.540
 2333DOPG   C4B49860  18.370  11.000  15.840
 2334DOPG   GL049861  16.980  22.440  15.600
 2334DOPG   PO449862  17.090  22.300  15.140
 2334DOPG   GL149863  17.290  22.000  14.820
 2334DOPG   GL249864  17.090  21.970  14.530
 2334DOPG   C1A49865  17.600  21.690  14.640
 2334DOPG   D2A49866  17.580  21.300  14.450
 2334DOPG   C3A49867  17.260  21.060  14.370
 2334DOPG   C4A49868  16.830  20.970  14.220
 2334DOPG   C1B49869  17.020  21.580  14.450
 2334DOPG   D2B49870  16.830  21.270  14.650
 2334DOPG   C3B49871  16.420  21.090  14.660
 2334DOPG   C4B49872  16.010  20.830  14.430
 2335DOPG   GL049873  14.680  13.800  18.940
 2335DOPG   PO449874  14.830  13.770  19.280
 2335DOPG   GL149875  14.620  13.790  19.610
 2335DOPG   GL249876  14.420  13.920  19.620
 2335DOPG   C1A49877  14.710  14.070  19.990
 2335DOPG   D2A49878  14.520  14.370  20.360
 2335DOPG   C3A49879  14.240  14.380  20.720
 2335DOPG   C4A49880  14.260  14.390  21.130
 2335DOPG   C1B49881  14.190  14.070  19.920
 2335DOPG   D2B49882  14.060  14.230  20.270
 2335DOPG   C3B49883  13.860  14.030  20.590
 2335DOPG   C4B49884  13.430  14.160  20.710
 2336DOPG   GL049885  22.820   5.190  15.200
 2336DOPG   PO449886  22.510   5.140  15.430
 2336DOPG   GL149887  22.650   4.760  15.300
 2336DOPG   GL249888  22.410   4.540  15.140
 2336DOPG   C1A49889  22.640   4.250  15.540
 2336DOPG   D2A49890  22.650   3.850  15.690
 2336DOPG   C3A49891  22.630   3.620  15.290
 2336DOPG   C4A49892  22.410   3.340  14.980
 2336DOPG   C1B49893  22.560   4.060  15.070
 2336DOPG   D2B49894  23.050   3.860  14.900
 2336DOPG   C3B49895  23.190   3.730  14.600
 2336DOPG   C4B49896  23.610   3.650  14.370
 2337DOPG   GL049897  19.140  17.480   2.650
 2337DOPG   PO449898  18.890  17.560   3.100
 2337DOPG   GL149899  18.920  17.850   3.390
 2337DOPG   GL249900  19.220  17.750   3.440
 2337DOPG   C1A49901  18.930  18.120   3.700
 2337DOPG   D2A49902  18.900  18.000   4.220
 2337DOPG   C3A49903  19.150  17.860   4.590
 2337DOPG   C4A49904  19.140  17.780   5.020
 2337DOPG   C1B49905  19.300  17.730   3.900
 2337DOPG   D2B49906  19.520  17.460   4.170
 2337DOPG   C3B49907  19.570  17.470   4.540
 2337DOPG   C4B49908  19.350  17.360   4.940
 2338DOPG   GL049909  22.630  16.660  14.690
 2338DOPG   PO449910  22.380  17.020  14.650
 2338DOPG   GL149911  22.850  17.190  14.700
 2338DOPG   GL249912  23.070  17.250  14.380
 2338DOPG   C1A49913  23.080  17.520  14.980
 2338DOPG   D2A49914  23.030  17.390  15.430
 2338DOPG   C3A49915  22.680  17.420  15.660
 2338DOPG   C4A49916  22.350  17.680  15.820
 2338DOPG   C1B49917  23.170  17.660  14.510
 2338DOPG   D2B49918  23.450  17.990  14.480
 2338DOPG   C3B49919  23.560  18.020  14.070
 2338DOPG   C4B49920  23.700  17.810  13.750
 2339DOPG   GL049921  24.860   8.590  13.110
 2339DOPG   PO449922  24.920   8.160  13.120
 2339DOPG   GL149923  24.520   8.090  13.130
 2339DOPG   GL249924  24.570   7.920  12.900
 2339DOPG   C1A49925  24.090   8.220  13.240
 2339DOPG   D2A49926  23.740   8.160  13.350
 2339DOPG   C3A49927  23.320   8.270  13.070
 2339DOPG   C4A49928  23.040   8.490  12.780
 2339DOPG   C1B49929  24.220   8.060  12.790
 2339DOPG   D2B49930  23.770   7.930  12.880
 2339DOPG   C3B49931  23.520   7.710  13.210
 2339DOPG   C4B49932  23.070   7.570  13.280
 2340DOPG   GL049933   8.470  16.390   7.510
 2340DOPG   PO449934   8.530  16.050   7.650
 2340DOPG   GL149935   8.850  16.310   7.840
 2340DOPG   GL249936   9.080  16.380   7.680
 2340DOPG   C1A49937   8.830  16.490   8.180
 2340DOPG   D2A49938   8.920  16.920   8.320
 2340DOPG   C3A49939   9.140  17.110   8.750
 2340DOPG   C4A49940   9.380  17.280   8.930
 2340DOPG   C1B49941   9.430  16.230   7.990
 2340DOPG   D2B49942   9.680  15.900   8.150
 2340DOPG   C3B49943   9.980  15.920   8.530
 2340DOPG   C4B49944  10.120  15.580   8.750
 2341DOPG   GL049945  21.130   6.990  24.290
 2341DOPG   PO449946  20.740   7.370  24.290
 2341DOPG   GL149947  20.710   7.480  23.880
 2341DOPG   GL249948  20.930   7.690  23.830
 2341DOPG   C1A49949  20.500   7.620  23.500
 2341DOPG   D2A49950  20.390   7.720  23.060
 2341DOPG   C3A49951  20.320   7.430  22.730
 2341DOPG   C4A49952  20.470   6.970  22.590
 2341DOPG   C1B49953  20.710   8.090  23.600
 2341DOPG   D2B49954  20.430   8.220  23.310
 2341DOPG   C3B49955  20.480   8.190  22.850
 2341DOPG   C4B49956  20.300   7.890  22.510
 2342DOPG   GL049957  11.290  16.910  10.050
 2342DOPG   PO449958  11.690  17.100  10.050
 2342DOPG   GL149959  11.460  17.470  10.070
 2342DOPG   GL249960  11.100  17.360   9.940
 2342DOPG   C1A49961  11.180  17.750   9.710
 2342DOPG   D2A49962  10.960  18.000   9.470
 2342DOPG   C3A49963  10.900  17.890   9.010
 2342DOPG   C4A49964  10.600  18.040   8.860
 2342DOPG   C1B49965  10.760  17.480   9.580
 2342DOPG   D2B49966  10.510  17.760   9.320
 2342DOPG   C3B49967  10.120  17.690   9.460
 2342DOPG   C4B49968   9.840  17.910   9.500
 2343DOPG   GL049969  24.720  20.450  12.050
 2343DOPG   PO449970  24.390  20.180  11.960
 2343DOPG   GL149971  24.220  19.730  11.870
 2343DOPG   GL249972  24.060  19.760  12.120
 2343DOPG   C1A49973  24.040  19.260  11.930
 2343DOPG   D2A49974  24.080  18.800  12.110
 2343DOPG   C3A49975  24.190  18.680  12.520
 2343DOPG   C4A49976  24.220  18.550  12.950
 2343DOPG   C1B49977  23.700  19.620  11.920
 2343DOPG   D2B49978  23.430  19.340  11.870
 2343DOPG   C3B49979  23.190  18.960  11.930
 2343DOPG   C4B49980  23.010  18.760  12.160
 2344DOPG   GL049981  13.080   2.670  12.330
 2344DOPG   PO449982  13.040   2.980  11.980
 2344DOPG   GL149983  13.420   3.130  11.830
 2344DOPG   GL249984  13.350   3.370  11.610
 2344DOPG   C1A49985  13.860   3.320  11.710
 2344DOPG   D2A49986  14.310   3.500  11.740
 2344DOPG   C3A49987  14.600   3.780  11.810
 2344DOPG   C4A49988  14.910   3.960  11.700
 2344DOPG   C1B49989  13.370   3.610  11.980
 2344DOPG   D2B49990  13.720   3.790  12.100
 2344DOPG   C3B49991  13.760   4.230  11.980
 2344DOPG   C4B49992  14.040   4.530  11.760
 2345DOPG   GL049993  19.850  17.860  12.170
 2345DOPG   PO449994  19.910  17.670  11.810
 2345DOPG   GL149995  19.810  17.710  11.410
 2345DOPG   GL249996  19.900  17.470  11.230
 2345DOPG   C1A49997  19.930  17.950  11.020
 2345DOPG   D2A49998  19.650  17.950  10.680
 2345DOPG   C3A49999  19.530  17.630  10.460
 2345DOPG   C4A50000  19.380  17.460  10.070
 2345DOPG   C1B50001  19.940  17.500  10.760
 2345DOPG   D2B50002  20.270  17.340  10.540
 2345DOPG   C3B50003  20.640  17.070  10.690
 2345DOPG   C4B50004  20.910  16.680  10.940
 2346DOPG   GL050005  16.730   5.040  22.010
 2346DOPG   PO450006  16.370   5.120  22.270
 2346DOPG   GL150007  16.300   5.410  21.900
 2346DOPG   GL250008  16.100   5.510  21.720
 2346DOPG   C1A50009  16.610   5.530  21.710
 2346DOPG   D2A50010  16.960   5.750  21.370
 2346DOPG   C3A50011  17.240   6.160  21.350
 2346DOPG   C4A50012  17.580   6.560  21.400
 2346DOPG   C1B50013  15.890   5.630  21.370
 2346DOPG   D2B50014  15.840   6.070  21.140
 2346DOPG   C3B50015  16.160   6.370  21.290
 2346DOPG   C4B50016  16.270   6.690  21.430
 2347DOPG   GL050017  14.790   6.390   6.360
 2347DOPG   PO450018  14.710   6.390   6.800
 2347DOPG   GL150019  15.030   6.630   7.070
 2347DOPG   GL250020  15.310   6.610   7.060
 2347DOPG   C1A50021  15.000   7.090   7.170
 2347DOPG   D2A50022  15.240   7.530   7.100
 2347DOPG   C3A50023  15.160   7.910   7.430
 2347DOPG   C4A50024  15.250   8.320   7.290
 2347DOPG   C1B50025  15.390   6.840   7.470
 2347DOPG   D2B50026  15.640   6.630   7.780
 2347DOPG   C3B50027  15.770   6.230   7.740
 2347DOPG   C4B50028  15.860   5.910   7.710
 2348DOPG   GL050029  12.060  15.320  17.330
 2348DOPG   PO450030  11.910  15.660  17.520
 2348DOPG   GL150031  11.530  15.720  17.740
 2348DOPG   GL250032  11.400  15.500  17.800
 2348DOPG   C1A50033  11.330  16.130  17.780
 2348DOPG   D2A50034  11.110  16.400  18.150
 2348DOPG   C3A50035  10.760  16.340  18.540
 2348DOPG   C4A50036  10.590  16.370  18.930
 2348DOPG   C1B50037  11.010  15.540  17.940
 2348DOPG   D2B50038  10.840  15.560  18.340
 2348DOPG   C3B50039  10.510  15.260  18.430
 2348DOPG   C4B50040  10.090  15.350  18.610
 2349DOPG   GL050041  21.410  16.660  14.520
 2349DOPG   PO450042  21.650  16.770  14.930
 2349DOPG   GL150043  21.570  16.780  15.330
 2349DOPG   GL250044  21.510  16.460  15.530
 2349DOPG   C1A50045  21.760  17.060  15.590
 2349DOPG   D2A50046  21.650  17.260  16.010
 2349DOPG   C3A50047  22.020  17.410  16.210
 2349DOPG   C4A50048  22.130  17.770  16.450
 2349DOPG   C1B50049  21.410  16.840  15.810
 2349DOPG   D2B50050  21.580  16.760  16.220
 2349DOPG   C3B50051  21.560  17.050  16.480
 2349DOPG   C4B50052  21.300  17.340  16.660
 2350DOPG   GL050053  24.630  13.580  18.220
 2350DOPG   PO450054  24.500  13.220  17.940
 2350DOPG   GL150055  24.550  13.230  17.490
 2350DOPG   GL250056  24.710  13.150  17.250
 2350DOPG   C1A50057  24.290  13.340  17.090
 2350DOPG   D2A50058  24.160  13.170  16.620
 2350DOPG   C3A50059  24.360  12.730  16.520
 2350DOPG   C4A50060  24.580  12.380  16.850
 2350DOPG   C1B50061  24.820  13.530  17.000
 2350DOPG   D2B50062  24.890  13.660  16.560
 2350DOPG   C3B50063  24.910  14.120  16.360
 2350DOPG   C4B50064  24.760  14.560  16.290
 2351DOPG   GL050065  16.630   8.960  14.260
 2351DOPG   PO450066  16.430   9.000  13.850
 2351DOPG   GL150067  16.610   9.350  13.700
 2351DOPG   GL250068  16.690   9.660  13.910
 2351DOPG   C1A50069  16.810   9.670  13.430
 2351DOPG   D2A50070  17.190   9.790  13.260
 2351DOPG   C3A50071  17.260  10.190  13.110
 2351DOPG   C4A50072  17.050  10.520  13.020
 2351DOPG   C1B50073  17.020   9.880  13.940
 2351DOPG   D2B50074  17.400  10.080  13.910
 2351DOPG   C3B50075  17.540  10.120  13.520
 2351DOPG   C4B50076  17.730   9.710  13.200
 2352DOPG   GL050077   9.150  18.940   7.880
 2352DOPG   PO450078   8.770  18.550   8.000
 2352DOPG   GL150079   9.120  18.430   8.260
 2352DOPG   GL250080   9.170  18.380   8.520
 2352DOPG   C1A50081   9.390  18.090   8.080
 2352DOPG   D2A50082   9.580  17.780   7.960
 2352DOPG   C3A50083   9.820  17.490   8.190
 2352DOPG   C4A50084  10.100  17.200   8.440
 2352DOPG   C1B50085   9.130  18.150   8.930
 2352DOPG   D2B50086   9.380  17.780   9.050
 2352DOPG   C3B50087   9.780  17.890   9.060
 2352DOPG   C4B50088  10.180  17.830   8.980
 2353DOPG   GL050089  16.030  15.230  13.310
 2353DOPG   PO450090  15.670  14.940  13.050
 2353DOPG   GL150091  15.680  14.530  12.950
 2353DOPG   GL250092  15.820  14.300  13.180
 2353DOPG   C1A50093  15.470  14.210  12.810
 2353DOPG   D2A50094  15.400  13.880  12.550
 2353DOPG   C3A50095  15.090  13.910  12.260
 2353DOPG   C4A50096  14.680  14.030  12.130
 2353DOPG   C1B50097  15.390  14.180  13.310
 2353DOPG   D2B50098  14.920  14.250  13.340
 2353DOPG   C3B50099  14.650  14.110  13.160
 2353DOPG   C4B50100  14.240  14.120  12.960
 2354DOPG   GL050101  18.160   5.010  13.400
 2354DOPG   PO450102  17.950   4.860  12.990
 2354DOPG   GL150103  17.930   4.450  12.790
 2354DOPG   GL250104  18.170   4.270  12.660
 2354DOPG   C1A50105  17.980   4.070  13.050
 2354DOPG   D2A50106  17.970   3.670  13.020
 2354DOPG   C3A50107  18.210   3.310  12.870
 2354DOPG   C4A50108  18.570   3.040  12.810
 2354DOPG   C1B50109  17.900   3.960  12.580
 2354DOPG   D2B50110  17.950   3.600  12.390
 2354DOPG   C3B50111  17.480   3.550  12.320
 2354DOPG   C4B50112  17.110   3.500  12.530
 2355DOPG   GL050113  12.640  19.990  15.140
 2355DOPG   PO450114  12.990  20.080  15.390
 2355DOPG   GL150115  13.260  19.710  15.220
 2355DOPG   GL250116  13.520  19.860  15.070
 2355DOPG   C1A50117  13.500  19.350  15.180
 2355DOPG   D2A50118  13.740  18.870  15.090
 2355DOPG   C3A50119  14.180  18.640  14.930
 2355DOPG   C4A50120  14.660  18.660  14.780
 2355DOPG   C1B50121  13.930  19.570  14.880
 2355DOPG   D2B50122  14.300  19.570  14.620
 2355DOPG   C3B50123  14.660  19.480  14.790
 2355DOPG   C4B50124  15.040  19.130  14.670
 2356DOPG   GL050125  12.200  15.110  12.100
 2356DOPG   PO450126  12.180  14.670  11.900
 2356DOPG   GL150127  12.520  14.440  12.170
 2356DOPG   GL250128  12.940  14.340  12.150
 2356DOPG   C1A50129  12.720  14.490  12.590
 2356DOPG   D2A50130  12.740  14.470  13.050
 2356DOPG   C3A50131  13.040  14.140  13.090
 2356DOPG   C4A50132  12.780  13.800  13.430
 2356DOPG   C1B50133  13.390  14.300  11.980
 2356DOPG   D2B50134  13.730  14.230  11.790
 2356DOPG   C3B50135  14.150  14.360  11.920
 2356DOPG   C4B50136  14.510  14.690  11.780
 2357DOPG   GL050137  12.640  25.400  17.490
 2357DOPG   PO450138  12.870  25.130  17.260
 2357DOPG   GL150139  12.950  24.760  17.030
 2357DOPG   GL250140  13.250  24.730  17.080
 2357DOPG   C1A50141  12.840  24.280  16.970
 2357DOPG   D2A50142  12.480  24.150  16.730
 2357DOPG   C3A50143  12.510  23.910  16.420
 2357DOPG   C4A50144  12.500  23.560  16.170
 2357DOPG   C1B50145  13.360  24.340  17.030
 2357DOPG   D2B50146  13.200  23.900  16.870
 2357DOPG   C3B50147  13.430  23.660  16.500
 2357DOPG   C4B50148  13.720  23.340  16.510
 2358DOPG   GL050149  15.080   2.000  12.570
 2358DOPG   PO450150  14.830   2.160  12.930
 2358DOPG   GL150151  15.170   2.200  13.060
 2358DOPG   GL250152  15.350   2.290  12.880
 2358DOPG   C1A50153  15.600   2.330  13.320
 2358DOPG   D2A50154  15.740   2.750  13.450
 2358DOPG   C3A50155  15.540   3.090  13.580
 2358DOPG   C4A50156  15.140   3.070  13.840
 2358DOPG   C1B50157  15.440   2.720  13.020
 2358DOPG   D2B50158  15.530   3.140  13.080
 2358DOPG   C3B50159  15.230   3.520  12.930
 2358DOPG   C4B50160  15.310   3.780  12.540
 2359DOPG   GL050161  22.510  10.900   8.680
 2359DOPG   PO450162  22.610  11.070   9.100
 2359DOPG   GL150163  22.170  11.150   9.300
 2359DOPG   GL250164  21.880  10.860   9.330
 2359DOPG   C1A50165  22.120  11.150   9.690
 2359DOPG   D2A50166  22.040  11.440  10.150
 2359DOPG   C3A50167  21.610  11.520  10.300
 2359DOPG   C4A50168  21.320  11.840  10.350
 2359DOPG   C1B50169  21.640  11.120   9.660
 2359DOPG   D2B50170  21.690  11.510   9.750
 2359DOPG   C3B50171  21.800  11.550   9.360
 2359DOPG   C4B50172  21.970  11.940   9.180
 2360DOPG   GL050173  19.790  22.870  15.600
 2360DOPG   PO450174  19.520  23.060  15.900
 2360DOPG   GL150175  19.440  23.500  16.030
 2360DOPG   GL250176  19.320  23.630  16.330
 2360DOPG   C1A50177  19.300  23.950  15.990
 2360DOPG   D2A50178  19.130  24.400  15.900
 2360DOPG   C3A50179  19.050  24.820  16.100
 2360DOPG   C4A50180  18.860  25.170  16.110
 2360DOPG   C1B50181  19.360  23.900  16.540
 2360DOPG   D2B50182  19.250  24.110  16.810
 2360DOPG   C3B50183  18.850  24.210  16.900
 2360DOPG   C4B50184  18.670  24.370  17.150
 2361DOPG   GL050185  24.500  13.910   7.400
 2361DOPG   PO450186  24.270  13.780   7.680
 2361DOPG   GL150187  24.370  13.440   7.380
 2361DOPG   GL250188  24.610  13.280   7.490
 2361DOPG   C1A50189  24.540  13.600   6.960
 2361DOPG   D2A50190  24.730  13.590   6.510
 2361DOPG   C3A50191  25.000  13.270   6.490
 2361DOPG   C4A50192  25.380  13.120   6.670
 2361DOPG   C1B50193  24.770  12.920   7.390
 2361DOPG   D2B50194  25.020  12.750   7.190
 2361DOPG   C3B50195  24.970  12.620   6.710
 2361DOPG   C4B50196  25.260  12.440   6.340
 2362DOPG   GL050197  23.590  21.850  10.740
 2362DOPG   PO450198  23.840  21.600  10.460
 2362DOPG   GL150199  23.970  21.940  10.390
 2362DOPG   GL250200  23.830  22.300  10.530
 2362DOPG   C1A50201  23.830  22.190  10.070
 2362DOPG   D2A50202  23.720  22.210   9.630
 2362DOPG   C3A50203  24.090  22.060   9.510
 2362DOPG   C4A50204  24.450  22.110   9.310
 2362DOPG   C1B50205  23.980  22.790  10.440
 2362DOPG   D2B50206  24.170  23.110  10.160
 2362DOPG   C3B50207  24.120  23.550  10.000
 2362DOPG   C4B50208  24.290  23.780   9.920
 2363DOPG   GL050209  24.660  12.790  18.080
 2363DOPG   PO450210  25.060  12.560  17.950
 2363DOPG   GL150211  25.050  12.570  17.540
 2363DOPG   GL250212  25.350  12.380  17.360
 2363DOPG   C1A50213  24.860  12.220  17.280
 2363DOPG   D2A50214  24.680  11.940  16.980
 2363DOPG   C3A50215  24.300  11.900  16.760
 2363DOPG   C4A50216  23.950  11.850  16.460
 2363DOPG   C1B50217  25.170  12.560  16.930
 2363DOPG   D2B50218  24.910  12.640  16.450
 2363DOPG   C3B50219  24.720  12.210  16.320
 2363DOPG   C4B50220  25.150  11.900  16.270
 2364DOPG   GL050221  16.720   9.850  17.120
 2364DOPG   PO450222  16.500  10.270  17.110
 2364DOPG   GL150223  16.920  10.430  16.940
 2364DOPG   GL250224  16.870  10.380  16.550
 2364DOPG   C1A50225  17.310  10.700  16.830
 2364DOPG   D2A50226  17.830  10.820  16.750
 2364DOPG   C3A50227  17.920  11.020  16.380
 2364DOPG   C4A50228  18.080  11.410  16.170
 2364DOPG   C1B50229  17.180  10.640  16.330
 2364DOPG   D2B50230  17.540  10.790  16.090
 2364DOPG   C3B50231  17.730  10.880  15.750
 2364DOPG   C4B50232  17.970  11.250  15.650
 2365DOPG   GL050233  16.400   9.670  16.320
 2365DOPG   PO450234  16.010   9.860  16.090
 2365DOPG   GL150235  16.440   9.990  15.980
 2365DOPG   GL250236  16.830   9.990  16.100
 2365DOPG   C1A50237  16.760  10.380  15.850
 2365DOPG   D2A50238  17.160  10.570  15.750
 2365DOPG   C3A50239  17.290  10.990  15.550
 2365DOPG   C4A50240  17.650  11.140  15.330
 2365DOPG   C1B50241  17.270  10.110  15.980
 2365DOPG   D2B50242  17.590  10.370  15.870
 2365DOPG   C3B50243  18.020  10.500  16.120
 2365DOPG   C4B50244  18.490  10.520  15.990
 2366DOPG   GL050245  18.970   6.670  13.610
 2366DOPG   PO450246  19.390   6.610  13.630
 2366DOPG   GL150247  19.490   6.960  13.800
 2366DOPG   GL250248  19.360   7.150  13.540
 2366DOPG   C1A50249  19.660   7.450  13.740
 2366DOPG   D2A50250  19.710   7.930  13.660
 2366DOPG   C3A50251  19.890   8.150  14.020
 2366DOPG   C4A50252  19.820   8.560  14.240
 2366DOPG   C1B50253  19.250   7.690  13.670
 2366DOPG   D2B50254  19.120   8.130  13.700
 2366DOPG   C3B50255  19.240   8.590  13.390
 2366DOPG   C4B50256  19.490   8.930  13.340
 2367DOPG   GL050257  21.020  21.700  16.070
 2367DOPG   PO450258  20.620  21.540  16.140
 2367DOPG   GL150259  20.390  21.250  16.100
 2367DOPG   GL250260  20.400  21.210  15.720
 2367DOPG   C1A50261  20.140  20.900  16.070
 2367DOPG   D2A50262  19.650  20.800  16.000
 2367DOPG   C3A50263  19.560  20.760  15.600
 2367DOPG   C4A50264  19.640  20.590  15.190
 2367DOPG   C1B50265  20.630  20.890  15.500
 2367DOPG   D2B50266  20.680  20.570  15.180
 2367DOPG   C3B50267  20.290  20.320  15.180
 2367DOPG   C4B50268  20.000  20.060  15.040
 2368DOPG   GL050269  13.440  10.170  10.940
 2368DOPG   PO450270  13.280   9.760  10.810
 2368DOPG   GL150271  13.060   9.670  10.400
 2368DOPG   GL250272  12.790   9.800  10.280
 2368DOPG   C1A50273  13.050   9.400  10.010
 2368DOPG   D2A50274  13.000   9.410   9.470
 2368DOPG   C3A50275  12.720   9.310   9.140
 2368DOPG   C4A50276  12.830   8.950   8.750
 2368DOPG   C1B50277  12.670   9.700   9.880
 2368DOPG   D2B50278  12.590   9.630   9.570
 2368DOPG   C3B50279  12.220   9.620   9.430
 2368DOPG   C4B50280  11.900   9.370   9.200
 2369DOPG   GL050281  11.770  19.420  12.270
 2369DOPG   PO450282  11.610  19.450  12.590
 2369DOPG   GL150283  11.450  19.780  12.410
 2369DOPG   GL250284  11.370  19.740  12.070
 2369DOPG   C1A50285  11.100  20.090  12.280
 2369DOPG   D2A50286  10.920  20.510  12.440
 2369DOPG   C3A50287  10.860  20.640  12.890
 2369DOPG   C4A50288  10.920  20.540  13.290
 2369DOPG   C1B50289  11.320  20.010  11.760
 2369DOPG   D2B50290  10.870  20.050  11.830
 2369DOPG   C3B50291  10.590  20.310  12.160
 2369DOPG   C4B50292  10.280  20.520  12.020
 2370DOPG   GL050293  15.270  22.000  11.670
 2370DOPG   PO450294  15.300  22.450  11.330
 2370DOPG   GL150295  15.090  22.820  11.360
 2370DOPG   GL250296  14.750  22.830  11.550
 2370DOPG   C1A50297  14.600  22.860  11.110
 2370DOPG   D2A50298  14.450  23.190  11.020
 2370DOPG   C3A50299  14.460  23.290  10.570
 2370DOPG   C4A50300  14.250  23.540  10.220
 2370DOPG   C1B50301  14.390  23.190  11.600
 2370DOPG   D2B50302  14.030  23.470  11.450
 2370DOPG   C3B50303  13.850  23.730  11.210
 2370DOPG   C4B50304  13.560  24.030  11.030
 2371DOPG   GL050305  11.400   7.720   6.600
 2371DOPG   PO450306  11.630   7.680   6.980
 2371DOPG   GL150307  11.850   8.010   7.130
 2371DOPG   GL250308  11.950   7.950   7.500
 2371DOPG   C1A50309  11.850   8.450   7.410
 2371DOPG   D2A50310  11.550   8.740   7.410
 2371DOPG   C3A50311  11.540   8.960   7.740
 2371DOPG   C4A50312  11.830   8.870   8.050
 2371DOPG   C1B50313  12.360   8.020   7.840
 2371DOPG   D2B50314  12.350   8.020   8.250
 2371DOPG   C3B50315  12.240   7.590   8.370
 2371DOPG   C4B50316  11.970   7.330   8.440
 2372DOPG   GL050317   6.600  16.500  16.280
 2372DOPG   PO450318   6.370  16.920  16.450
 2372DOPG   GL150319   6.760  17.010  16.640
 2372DOPG   GL250320   6.900  16.600  16.670
 2372DOPG   C1A50321   7.210  16.920  16.530
 2372DOPG   D2A50322   7.520  17.310  16.610
 2372DOPG   C3A50323   7.960  17.210  16.610
 2372DOPG   C4A50324   8.280  17.010  16.850
 2372DOPG   C1B50325   7.310  16.390  16.680
 2372DOPG   D2B50326   7.680  16.320  16.340
 2372DOPG   C3B50327   8.050  16.480  16.510
 2372DOPG   C4B50328   8.460  16.640  16.640
 2373DOPG   GL050329  24.600  16.540   8.800
 2373DOPG   PO450330  24.520  16.320   9.050
 2373DOPG   GL150331  24.460  16.180   9.480
 2373DOPG   GL250332  24.370  16.280   9.800
 2373DOPG   C1A50333  24.120  15.890   9.730
 2373DOPG   D2A50334  23.910  15.720  10.030
 2373DOPG   C3A50335  23.990  15.360  10.270
 2373DOPG   C4A50336  23.750  15.020  10.430
 2373DOPG   C1B50337  24.110  16.400   9.760
 2373DOPG   D2B50338  23.700  16.330   9.660
 2373DOPG   C3B50339  23.540  16.060  10.140
 2373DOPG   C4B50340  23.300  15.960  10.390
 2374DOPG   GL050341  13.990   7.050  12.820
 2374DOPG   PO450342  13.780   7.390  12.910
 2374DOPG   GL150343  13.490   7.040  12.710
 2374DOPG   GL250344  13.380   6.760  12.860
 2374DOPG   C1A50345  13.100   6.950  12.410
 2374DOPG   D2A50346  12.780   6.900  12.120
 2374DOPG   C3A50347  12.720   6.610  11.930
 2374DOPG   C4A50348  12.480   6.460  11.550
 2374DOPG   C1B50349  13.170   6.440  12.650
 2374DOPG   D2B50350  13.050   5.920  12.390
 2374DOPG   C3B50351  13.100   5.460  12.500
 2374DOPG   C4B50352  12.650   5.300  12.400
 2375DOPG   GL050353  15.910  17.110  12.670
 2375DOPG   PO450354  15.620  16.820  12.560
 2375DOPG   GL150355  15.500  17.200  12.320
 2375DOPG   GL250356  15.820  17.200  12.150
 2375DOPG   C1A50357  15.390  17.640  12.150
 2375DOPG   D2A50358  15.450  18.040  11.930
 2375DOPG   C3A50359  15.250  18.370  11.800
 2375DOPG   C4A50360  15.030  18.370  11.470
 2375DOPG   C1B50361  15.650  17.390  11.760
 2375DOPG   D2B50362  15.330  17.680  11.560
 2375DOPG   C3B50363  15.000  17.840  11.760
 2375DOPG   C4B50364  14.650  18.000  11.630
 2376DOPG   GL050365  17.720  19.320  17.920
 2376DOPG   PO450366  18.030  19.580  17.720
 2376DOPG   GL150367  18.230  19.460  17.310
 2376DOPG   GL250368  18.010  19.520  17.080
 2376DOPG   C1A50369  18.560  19.190  17.090
 2376DOPG   D2A50370  18.750  18.950  16.620
 2376DOPG   C3A50371  18.850  18.960  16.180
 2376DOPG   C4A50372  19.000  19.060  15.920
 2376DOPG   C1B50373  18.020  19.220  16.910
 2376DOPG   D2B50374  18.290  18.910  16.710
 2376DOPG   C3B50375  18.100  18.570  16.530
 2376DOPG   C4B50376  17.750  18.330  16.350
 2377DOPG   GL050377  17.870  23.290  13.090
 2377DOPG   PO450378  18.080  23.640  13.310
 2377DOPG   GL150379  17.970  24.010  13.290
 2377DOPG   GL250380  17.630  24.170  13.140
 2377DOPG   C1A50381  18.180  24.460  13.310
 2377DOPG   D2A50382  18.230  24.890  13.340
 2377DOPG   C3A50383  18.640  25.170  13.310
 2377DOPG   C4A50384  18.770  25.510  13.220
 2377DOPG   C1B50385  17.450  24.700  13.170
 2377DOPG   D2B50386  17.300  25.180  13.200
 2377DOPG   C3B50387  17.520  25.360  13.600
 2377DOPG   C4B50388  17.480  25.620  13.940
 2378DOPG   GL050389  24.470  19.470  11.490
 2378DOPG   PO450390  24.090  19.660  11.330
 2378DOPG   GL150391  23.950  19.340  11.440
 2378DOPG   GL250392  23.590  19.440  11.330
 2378DOPG   C1A50393  23.780  18.960  11.500
 2378DOPG   D2A50394  23.710  18.620  11.790
 2378DOPG   C3A50395  23.540  18.670  12.240
 2378DOPG   C4A50396  23.270  18.640  12.610
 2378DOPG   C1B50397  23.300  19.060  11.420
 2378DOPG   D2B50398  23.020  18.690  11.630
 2378DOPG   C3B50399  22.650  18.510  11.800
 2378DOPG   C4B50400  22.420  18.420  12.140
 2379DOPG   GL050401  21.510  17.390  19.100
 2379DOPG   PO450402  21.280  17.490  18.740
 2379DOPG   GL150403  21.320  17.770  18.490
 2379DOPG   GL250404  20.960  17.850  18.420
 2379DOPG   C1A50405  21.470  17.900  18.020
 2379DOPG   D2A50406  21.300  17.910  17.550
 2379DOPG   C3A50407  20.820  17.940  17.420
 2379DOPG   C4A50408  20.580  17.720  17.180
 2379DOPG   C1B50409  20.500  17.830  18.340
 2379DOPG   D2B50410  20.180  17.870  18.010
 2379DOPG   C3B50411  20.380  17.820  17.600
 2379DOPG   C4B50412  20.070  17.730  17.180
 2380DOPG   GL050413  23.520  20.440  15.600
 2380DOPG   PO450414  23.590  20.140  15.810
 2380DOPG   GL150415  23.300  19.820  15.930
 2380DOPG   GL250416  23.410  19.560  15.970
 2380DOPG   C1A50417  22.970  19.740  15.690
 2380DOPG   D2A50418  22.960  19.380  15.370
 2380DOPG   C3A50419  22.980  18.970  15.420
 2380DOPG   C4A50420  22.830  18.660  15.530
 2380DOPG   C1B50421  23.070  19.250  15.810
 2380DOPG   D2B50422  22.630  19.300  15.810
 2380DOPG   C3B50423  22.410  19.020  15.620
 2380DOPG   C4B50424  22.100  18.670  15.540
 2381DOPG   GL050425  11.430  10.700  15.680
 2381DOPG   PO450426  11.470  10.550  15.310
 2381DOPG   GL150427  11.120  10.250  15.420
 2381DOPG   GL250428  10.920  10.330  15.160
 2381DOPG   C1A50429  10.830   9.930  15.680
 2381DOPG   D2A50430  10.430   9.930  15.540
 2381DOPG   C3A50431  10.240   9.610  15.240
 2381DOPG   C4A50432   9.930   9.500  15.300
 2381DOPG   C1B50433  10.460  10.370  15.140
 2381DOPG   D2B50434  10.100  10.220  15.350
 2381DOPG   C3B50435   9.740  10.110  15.100
 2381DOPG   C4B50436   9.640   9.700  14.890
 2382DOPG   GL050437  15.750  17.240  13.590
 2382DOPG   PO450438  15.470  17.400  13.400
 2382DOPG   GL150439  15.120  17.520  13.670
 2382DOPG   GL250440  15.180  17.260  13.860
 2382DOPG   C1A50441  14.660  17.420  13.590
 2382DOPG   D2A50442  14.310  17.420  13.360
 2382DOPG   C3A50443  13.970  17.040  13.400
 2382DOPG   C4A50444  13.960  16.610  13.700
 2382DOPG   C1B50445  14.840  17.030  13.820
 2382DOPG   D2B50446  14.470  16.860  13.600
 2382DOPG   C3B50447  14.220  16.610  13.250
 2382DOPG   C4B50448  13.950  16.210  13.310
 2383DOPG   GL050449  17.050  20.970   9.500
 2383DOPG   PO450450  17.040  20.520   9.690
 2383DOPG   GL150451  17.320  20.220   9.870
 2383DOPG   GL250452  17.500  20.230   9.580
 2383DOPG   C1A50453  17.610  19.990  10.060
 2383DOPG   D2A50454  17.910  19.820  10.440
 2383DOPG   C3A50455  17.960  19.470  10.700
 2383DOPG   C4A50456  18.200  19.530  11.020
 2383DOPG   C1B50457  17.310  19.760   9.710
 2383DOPG   D2B50458  17.030  19.620  10.160
 2383DOPG   C3B50459  17.100  19.390  10.420
 2383DOPG   C4B50460  17.080  19.040  10.610
 2384DOPG   GL050461  22.720   6.870  11.380
 2384DOPG   PO450462  22.730   6.870  11.780
 2384DOPG   GL150463  22.520   7.220  11.980
 2384DOPG   GL250464  22.270   7.230  12.250
 2384DOPG   C1A50465  22.630   7.570  12.140
 2384DOPG   D2A50466  22.470   7.730  12.510
 2384DOPG   C3A50467  22.100   8.110  12.630
 2384DOPG   C4A50468  22.060   8.600  12.570
 2384DOPG   C1B50469  22.150   7.720  12.170
 2384DOPG   D2B50470  22.200   8.130  12.100
 2384DOPG   C3B50471  21.890   8.320  12.110
 2384DOPG   C4B50472  21.540   8.420  12.420
 2385DOPG   GL050473  14.630  21.500  14.070
 2385DOPG   PO450474  15.050  21.530  14.050
 2385DOPG   GL150475  14.860  21.020  14.020
 2385DOPG   GL250476  15.120  20.980  13.940
 2385DOPG   C1A50477  14.810  20.640  13.860
 2385DOPG   D2A50478  14.700  20.260  13.540
 2385DOPG   C3A50479  14.850  20.110  13.140
 2385DOPG   C4A50480  15.090  19.900  12.760
 2385DOPG   C1B50481  15.290  20.550  13.990
 2385DOPG   D2B50482  15.570  20.250  13.920
 2385DOPG   C3B50483  15.820  20.230  14.290
 2385DOPG   C4B50484  15.930  20.350  14.560
 2386DOPG   GL050485  14.910  11.140  15.090
 2386DOPG   PO450486  14.590  11.310  14.790
 2386DOPG   GL150487  14.870  11.730  14.670
 2386DOPG   GL250488  14.930  11.700  14.960
 2386DOPG   C1A50489  14.680  12.160  14.530
 2386DOPG   D2A50490  14.670  12.680  14.350
 2386DOPG   C3A50491  15.010  12.990  14.390
 2386DOPG   C4A50492  15.370  13.120  14.580
 2386DOPG   C1B50493  15.390  11.790  14.890
 2386DOPG   D2B50494  15.820  11.750  15.080
 2386DOPG   C3B50495  15.910  11.500  15.460
 2386DOPG   C4B50496  16.020  11.070  15.520
 2387DOPG   GL050497  18.440  13.060  12.510
 2387DOPG   PO450498  18.090  13.230  12.380
 2387DOPG   GL150499  17.780  13.000  12.130
 2387DOPG   GL250500  17.450  13.170  12.030
 2387DOPG   C1A50501  17.530  12.710  11.970
 2387DOPG   D2A50502  17.450  12.350  11.860
 2387DOPG   C3A50503  17.520  12.170  11.500
 2387DOPG   C4A50504  17.520  12.050  11.080
 2387DOPG   C1B50505  17.190  13.210  11.690
 2387DOPG   D2B50506  16.870  13.100  11.470
 2387DOPG   C3B50507  16.390  12.940  11.410
 2387DOPG   C4B50508  16.210  12.660  11.090
 2388DOPG   GL050509  19.340   5.610  11.610
 2388DOPG   PO450510  19.740   5.330  11.680
 2388DOPG   GL150511  19.660   5.020  11.450
 2388DOPG   GL250512  19.310   5.030  11.480
 2388DOPG   C1A50513  19.690   4.540  11.260
 2388DOPG   D2A50514  19.660   4.150  11.080
 2388DOPG   C3A50515  20.020   4.070  10.840
 2388DOPG   C4A50516  20.270   4.100  10.400
 2388DOPG   C1B50517  19.250   4.570  11.450
 2388DOPG   D2B50518  19.190   4.150  11.250
 2388DOPG   C3B50519  19.260   3.740  11.260
 2388DOPG   C4B50520  19.280   3.330  11.010
 2389DOPG   GL050521  14.480  17.490  23.000
 2389DOPG   PO450522  14.240  17.820  22.970
 2389DOPG   GL150523  14.350  17.690  22.520
 2389DOPG   GL250524  14.110  17.660  22.250
 2389DOPG   C1A50525  14.580  17.770  22.090
 2389DOPG   D2A50526  14.820  17.910  21.710
 2389DOPG   C3A50527  15.180  17.840  21.490
 2389DOPG   C4A50528  15.620  17.890  21.420
 2389DOPG   C1B50529  14.410  17.340  22.230
 2389DOPG   D2B50530  14.750  17.060  22.310
 2389DOPG   C3B50531  14.940  16.900  21.960
 2389DOPG   C4B50532  15.020  16.810  21.550
 2390DOPG   GL050533  22.750  19.890   9.290
 2390DOPG   PO450534  22.380  19.690   9.260
 2390DOPG   GL150535  22.120  19.520   9.600
 2390DOPG   GL250536  21.740  19.430   9.640
 2390DOPG   C1A50537  22.170  19.670   9.980
 2390DOPG   D2A50538  22.190  19.630  10.440
 2390DOPG   C3A50539  21.980  19.750  10.730
 2390DOPG   C4A50540  21.760  19.830  11.180
 2390DOPG   C1B50541  21.450  19.350   9.930
 2390DOPG   D2B50542  21.170  19.610  10.030
 2390DOPG   C3B50543  20.700  19.610   9.900
 2390DOPG   C4B50544  20.260  19.560  10.070
 2391DOPG   GL050545  10.920  13.330  16.100
 2391DOPG   PO450546  10.530  13.340  16.390
 2391DOPG   GL150547  10.220  13.350  16.630
 2391DOPG   GL250548  10.200  13.620  16.810
 2391DOPG   C1A50549   9.970  13.180  16.940
 2391DOPG   D2A50550   9.680  13.280  17.280
 2391DOPG   C3A50551   9.690  13.610  17.450
 2391DOPG   C4A50552   9.960  13.940  17.330
 2391DOPG   C1B50553   9.730  13.690  16.940
 2391DOPG   D2B50554   9.190  13.700  16.840
 2391DOPG   C3B50555   8.960  13.400  16.760
 2391DOPG   C4B50556   8.620  13.150  16.810
 2392DOPG   GL050557  18.230  13.120  14.340
 2392DOPG   PO450558  18.030  13.120  14.690
 2392DOPG   GL150559  17.860  12.680  14.550
 2392DOPG   GL250560  17.810  12.460  14.820
 2392DOPG   C1A50561  17.400  12.580  14.650
 2392DOPG   D2A50562  17.020  12.430  14.670
 2392DOPG   C3A50563  16.870  12.330  15.120
 2392DOPG   C4A50564  16.600  12.090  15.320
 2392DOPG   C1B50565  17.600  12.720  15.270
 2392DOPG   D2B50566  17.600  12.760  15.780
 2392DOPG   C3B50567  17.220  12.630  15.990
 2392DOPG   C4B50568  17.180  12.370  16.350
 2393DOPG   GL050569  17.820   1.470  12.880
 2393DOPG   PO450570  17.490   1.500  12.540
 2393DOPG   GL150571  17.620   1.920  12.680
 2393DOPG   GL250572  18.030   2.060  12.750
 2393DOPG   C1A50573  17.690   2.360  12.500
 2393DOPG   D2A50574  17.600   2.740  12.530
 2393DOPG   C3A50575  17.260   2.990  12.640
 2393DOPG   C4A50576  17.120   3.200  12.920
 2393DOPG   C1B50577  18.200   2.300  12.320
 2393DOPG   D2B50578  18.480   2.680  12.180
 2393DOPG   C3B50579  18.540   3.030  11.980
 2393DOPG   C4B50580  18.770   3.080  11.590
 2394DOPG   GL050581  11.160  21.880  20.310
 2394DOPG   PO450582  10.960  21.520  20.000
 2394DOPG   GL150583  10.890  21.090  19.840
 2394DOPG   GL250584  10.790  20.870  19.580
 2394DOPG   C1A50585  11.190  20.560  19.810
 2394DOPG   D2A50586  11.550  20.400  19.720
 2394DOPG   C3A50587  11.820  20.480  19.420
 2394DOPG   C4A50588  11.840  20.790  19.320
 2394DOPG   C1B50589  10.770  20.870  19.190
 2394DOPG   D2B50590  10.950  21.130  18.900
 2394DOPG   C3B50591  10.620  21.130  18.520
 2394DOPG   C4B50592  10.430  20.800  18.310
 2395DOPG   GL050593  17.850  16.160  11.300
 2395DOPG   PO450594  17.590  16.120  11.700
 2395DOPG   GL150595  17.360  16.330  11.370
 2395DOPG   GL250596  17.480  16.400  11.110
 2395DOPG   C1A50597  17.050  16.110  11.140
 2395DOPG   D2A50598  17.030  16.160  10.760
 2395DOPG   C3A50599  17.400  16.220  10.490
 2395DOPG   C4A50600  17.490  16.310  10.050
 2395DOPG   C1B50601  17.670  16.020  10.830
 2395DOPG   D2B50602  17.920  16.020  10.400
 2395DOPG   C3B50603  18.280  16.300  10.450
 2395DOPG   C4B50604  18.600  16.450  10.690
 2396DOPG   GL050605  23.420  13.090  13.400
 2396DOPG   PO450606  23.670  13.130  13.020
 2396DOPG   GL150607  23.840  13.120  12.650
 2396DOPG   GL250608  24.170  12.950  12.800
 2396DOPG   C1A50609  24.000  12.900  12.220
 2396DOPG   D2A50610  24.180  12.790  11.880
 2396DOPG   C3A50611  24.150  12.580  11.520
 2396DOPG   C4A50612  24.400  12.160  11.370
 2396DOPG   C1B50613  24.380  13.340  12.540
 2396DOPG   D2B50614  24.560  13.550  12.290
 2396DOPG   C3B50615  24.940  13.480  12.180
 2396DOPG   C4B50616  25.370  13.480  12.310
 2397DOPG   GL050617  25.720  18.440  12.710
 2397DOPG   PO450618  25.370  18.750  12.790
 2397DOPG   GL150619  25.230  18.340  12.590
 2397DOPG   GL250620  24.970  18.570  12.340
 2397DOPG   C1A50621  24.920  17.990  12.600
 2397DOPG   D2A50622  24.510  17.750  12.720
 2397DOPG   C3A50623  24.310  17.630  13.180
 2397DOPG   C4A50624  23.960  17.640  13.340
 2397DOPG   C1B50625  24.590  18.430  12.340
 2397DOPG   D2B50626  24.130  18.330  12.190
 2397DOPG   C3B50627  24.110  18.060  12.550
 2397DOPG   C4B50628  23.990  17.930  12.960
 2398DOPG   GL050629  15.850  22.020  11.360
 2398DOPG   PO450630  15.890  21.590  11.290
 2398DOPG   GL150631  15.920  21.170  11.490
 2398DOPG   GL250632  16.000  21.170  11.860
 2398DOPG   C1A50633  15.850  20.770  11.610
 2398DOPG   D2A50634  16.010  20.370  11.730
 2398DOPG   C3A50635  16.110  20.120  12.030
 2398DOPG   C4A50636  16.410  19.730  12.300
 2398DOPG   C1B50637  16.280  20.750  11.970
 2398DOPG   D2B50638  16.560  20.420  11.780
 2398DOPG   C3B50639  16.720  20.010  12.000
 2398DOPG   C4B50640  16.840  19.600  12.230
 2399DOPG   GL050641  19.260  19.910   8.710
 2399DOPG   PO450642  19.130  19.550   8.490
 2399DOPG   GL150643  18.880  19.650   8.880
 2399DOPG   GL250644  19.120  19.620   9.120
 2399DOPG   C1A50645  18.580  19.430   9.030
 2399DOPG   D2A50646  18.420  19.070   9.140
 2399DOPG   C3A50647  18.590  18.740   9.600
 2399DOPG   C4A50648  18.870  18.430   9.550
 2399DOPG   C1B50649  18.780  19.870   9.340
 2399DOPG   D2B50650  18.310  19.870   9.420
 2399DOPG   C3B50651  18.170  19.410   9.500
 2399DOPG   C4B50652  18.070  18.960   9.660
 2400DOPG   GL050653  11.530  17.630  16.050
 2400DOPG   PO450654  11.200  17.930  16.200
 2400DOPG   GL150655  10.710  17.870  16.220
 2400DOPG   GL250656  10.670  17.870  16.000
 2400DOPG   C1A50657  10.260  17.980  16.280
 2400DOPG   D2A50658   9.890  17.820  16.300
 2400DOPG   C3A50659   9.610  18.150  16.540
 2400DOPG   C4A50660   9.410  18.430  16.790
 2400DOPG   C1B50661  10.170  17.940  15.790
 2400DOPG   D2B50662   9.920  18.220  15.560
 2400DOPG   C3B50663   9.790  18.150  15.100
 2400DOPG   C4B50664   9.670  18.140  14.650
 2401DOPG   GL050665  22.630  21.630  11.060
 2401DOPG   PO450666  22.600  21.500  11.490
 2401DOPG   GL150667  22.210  21.190  11.470
 2401DOPG   GL250668  21.910  21.240  11.210
 2401DOPG   C1A50669  21.970  20.940  11.680
 2401DOPG   D2A50670  21.710  20.760  11.800
 2401DOPG   C3A50671  21.320  20.720  11.640
 2401DOPG   C4A50672  20.910  20.900  11.790
 2401DOPG   C1B50673  21.610  20.870  11.320
 2401DOPG   D2B50674  21.570  20.430  11.270
 2401DOPG   C3B50675  21.320  20.050  11.390
 2401DOPG   C4B50676  21.150  19.570  11.290
 2402DOPG   GL050677  16.480  22.170  14.310
 2402DOPG   PO450678  16.980  22.360  14.120
 2402DOPG   GL150679  17.280  22.000  14.030
 2402DOPG   GL250680  17.440  22.080  13.710
 2402DOPG   C1A50681  17.640  21.750  14.150
 2402DOPG   D2A50682  18.010  21.580  14.320
 2402DOPG   C3A50683  18.120  21.220  14.490
 2402DOPG   C4A50684  18.400  20.910  14.320
 2402DOPG   C1B50685  17.540  21.680  13.630
 2402DOPG   D2B50686  17.800  21.420  13.780
 2402DOPG   C3B50687  17.780  21.050  13.930
 2402DOPG   C4B50688  17.690  20.610  13.950
 2403DOPG   GL050689  15.540  21.750  10.660
 2403DOPG   PO450690  15.420  22.170  10.660
 2403DOPG   GL150691  15.260  22.580  10.270
 2403DOPG   GL250692  15.570  22.870  10.020
 2403DOPG   C1A50693  14.900  22.770  10.110
 2403DOPG   D2A50694  14.520  22.750  10.200
 2403DOPG   C3A50695  14.230  23.020  10.130
 2403DOPG   C4A50696  13.870  22.970   9.890
 2403DOPG   C1B50697  15.240  23.150   9.960
 2403DOPG   D2B50698  14.990  23.360   9.830
 2403DOPG   C3B50699  14.550  23.310   9.830
 2403DOPG   C4B50700  14.290  22.990   9.620
 2404DOPG   GL050701  11.190  18.140  16.730
 2404DOPG   PO450702  11.560  18.240  16.910
 2404DOPG   GL150703  11.410  18.440  17.150
 2404DOPG   GL250704  11.520  18.730  17.130
 2404DOPG   C1A50705  11.040  18.650  17.330
 2404DOPG   D2A50706  10.720  18.970  17.350
 2404DOPG   C3A50707  10.390  19.120  17.620
 2404DOPG   C4A50708  10.190  19.230  17.880
 2404DOPG   C1B50709  11.200  19.120  17.220
 2404DOPG   D2B50710  10.910  19.260  17.660
 2404DOPG   C3B50711  11.000  19.550  17.960
 2404DOPG   C4B50712  10.900  19.920  18.110
 2405DOPG   GL050713  22.920  11.890  14.580
 2405DOPG   PO450714  22.770  11.670  14.930
 2405DOPG   GL150715  23.140  11.550  15.000
 2405DOPG   GL250716  23.020  11.260  15.060
 2405DOPG   C1A50717  23.570  11.300  14.950
 2405DOPG   D2A50718  23.860  11.100  15.040
 2405DOPG   C3A50719  24.140  11.000  15.420
 2405DOPG   C4A50720  24.090  10.990  15.820
 2405DOPG   C1B50721  23.290  11.200  15.390
 2405DOPG   D2B50722  23.670  11.100  15.520
 2405DOPG   C3B50723  23.510  11.060  16.000
 2405DOPG   C4B50724  23.070  11.060  16.050
 2406DOPG   GL050725  22.660   7.540  10.650
 2406DOPG   PO450726  22.560   7.950  10.830
 2406DOPG   GL150727  22.430   8.090  11.220
 2406DOPG   GL250728  22.250   8.310  11.070
 2406DOPG   C1A50729  22.400   8.210  11.600
 2406DOPG   D2A50730  22.550   8.470  11.860
 2406DOPG   C3A50731  22.260   8.760  12.110
 2406DOPG   C4A50732  22.040   9.100  12.280
 2406DOPG   C1B50733  22.430   8.670  11.360
 2406DOPG   D2B50734  22.210   9.030  11.640
 2406DOPG   C3B50735  21.930   9.350  11.400
 2406DOPG   C4B50736  21.890   9.390  11.060
 2407DOPG   GL050737  25.170   9.070  15.930
 2407DOPG   PO450738  25.600   9.210  15.920
 2407DOPG   GL150739  25.380   9.540  15.880
 2407DOPG   GL250740  25.210   9.670  16.170
 2407DOPG   C1A50741  25.250   9.760  15.660
 2407DOPG   D2A50742  24.930  10.030  15.810
 2407DOPG   C3A50743  24.600  10.260  15.600
 2407DOPG   C4A50744  24.430  10.580  15.370
 2407DOPG   C1B50745  24.810   9.870  16.390
 2407DOPG   D2B50746  24.440  10.100  16.190
 2407DOPG   C3B50747  24.150  10.010  15.900
 2407DOPG   C4B50748  24.280   9.900  15.480
 2408DOPG   GL050749  14.260  18.550   8.900
 2408DOPG   PO450750  14.030  18.850   8.700
 2408DOPG   GL150751  13.830  18.910   8.400
 2408DOPG   GL250752  13.750  19.260   8.390
 2408DOPG   C1A50753  13.490  18.910   8.120
 2408DOPG   D2A50754  13.320  18.930   7.690
 2408DOPG   C3A50755  13.380  19.160   7.340
 2408DOPG   C4A50756  13.340  19.110   6.860
 2408DOPG   C1B50757  13.710  19.640   8.200
 2408DOPG   D2B50758  13.650  19.960   8.010
 2408DOPG   C3B50759  13.940  20.140   7.800
 2408DOPG   C4B50760  13.810  20.380   7.420
 2409DOPG   GL050761   9.660  22.540   9.940
 2409DOPG   PO450762   9.530  22.110  10.070
 2409DOPG   GL150763   9.810  22.040  10.430
 2409DOPG   GL250764   9.680  21.890  10.690
 2409DOPG   C1A50765  10.170  21.800  10.640
 2409DOPG   D2A50766  10.560  21.820  10.800
 2409DOPG   C3A50767  10.920  21.820  10.900
 2409DOPG   C4A50768  11.340  21.740  11.160
 2409DOPG   C1B50769  10.020  22.120  10.940
 2409DOPG   D2B50770  10.340  22.130  11.170
 2409DOPG   C3B50771  10.540  21.690  11.290
 2409DOPG   C4B50772  10.400  21.350  11.400
 2410DOPG   GL050773  21.780  17.630  13.710
 2410DOPG   PO450774  21.840  18.050  13.770
 2410DOPG   GL150775  22.270  18.270  13.900
 2410DOPG   GL250776  22.210  18.240  14.230
 2410DOPG   C1A50777  22.600  18.540  14.190
 2410DOPG   D2A50778  23.020  18.740  14.300
 2410DOPG   C3A50779  23.300  18.680  14.660
 2410DOPG   C4A50780  23.570  18.440  14.800
 2410DOPG   C1B50781  22.570  18.080  14.450
 2410DOPG   D2B50782  22.940  18.150  14.490
 2410DOPG   C3B50783  23.080  18.210  14.840
 2410DOPG   C4B50784  23.290  18.420  15.230
 2411DOPG   GL050785  23.680  21.380  21.690
 2411DOPG   PO450786  23.500  21.660  21.650
 2411DOPG   GL150787  23.320  21.990  21.380
 2411DOPG   GL250788  23.530  22.220  21.230
 2411DOPG   C1A50789  23.060  21.980  20.980
 2411DOPG   D2A50790  22.640  21.780  20.810
 2411DOPG   C3A50791  22.590  21.660  20.490
 2411DOPG   C4A50792  22.290  21.630  20.200
 2411DOPG   C1B50793  23.740  22.050  20.970
 2411DOPG   D2B50794  24.140  21.930  20.690
 2411DOPG   C3B50795  24.270  22.200  20.290
 2411DOPG   C4B50796  24.270  22.150  19.800
 2412DOPG   GL050797  20.820  18.710  14.080
 2412DOPG   PO450798  20.990  18.270  14.070
 2412DOPG   GL150799  21.100  18.460  14.480
 2412DOPG   GL250800  21.180  18.640  14.460
 2412DOPG   C1A50801  21.130  18.370  14.960
 2412DOPG   D2A50802  21.150  18.230  15.330
 2412DOPG   C3A50803  21.140  18.370  15.770
 2412DOPG   C4A50804  21.110  18.200  16.170
 2412DOPG   C1B50805  21.260  19.080  14.260
 2412DOPG   D2B50806  21.380  19.480  14.130
 2412DOPG   C3B50807  21.040  19.790  14.300
 2412DOPG   C4B50808  20.660  19.660  14.490
 2413DOPG   GL050809  11.040  12.700  14.800
 2413DOPG   PO450810  10.640  12.550  14.890
 2413DOPG   GL150811  10.130  12.520  14.980
 2413DOPG   GL250812  10.070  12.650  15.200
 2413DOPG   C1A50813   9.700  12.400  14.930
 2413DOPG   D2A50814   9.330  12.440  15.140
 2413DOPG   C3A50815   9.050  12.310  15.320
 2413DOPG   C4A50816   8.660  12.400  15.180
 2413DOPG   C1B50817   9.800  12.470  15.440
 2413DOPG   D2B50818   9.420  12.480  15.700
 2413DOPG   C3B50819   9.080  12.270  15.790
 2413DOPG   C4B50820   8.770  11.930  15.550
 2414DOPG   GL050821  23.630  24.900   7.010
 2414DOPG   PO450822  23.850  24.590   7.150
 2414DOPG   GL150823  23.620  24.450   7.520
 2414DOPG   GL250824  23.460  24.560   7.750
 2414DOPG   C1A50825  23.540  23.990   7.690
 2414DOPG   D2A50826  23.560  23.710   8.030
 2414DOPG   C3A50827  23.210  23.570   8.340
 2414DOPG   C4A50828  22.870  23.260   8.520
 2414DOPG   C1B50829  23.120  24.300   7.750
 2414DOPG   D2B50830  22.880  24.190   7.360
 2414DOPG   C3B50831  22.780  23.710   7.270
 2414DOPG   C4B50832  22.860  23.270   7.370
 2415DOPG   GL050833  22.050  19.870  17.900
 2415DOPG   PO450834  22.460  19.670  17.650
 2415DOPG   GL150835  22.370  19.290  17.450
 2415DOPG   GL250836  22.450  19.070  17.500
 2415DOPG   C1A50837  22.170  19.030  17.050
 2415DOPG   D2A50838  22.010  18.670  16.820
 2415DOPG   C3A50839  22.030  18.450  16.410
 2415DOPG   C4A50840  22.200  18.180  16.130
 2415DOPG   C1B50841  22.240  18.820  17.440
 2415DOPG   D2B50842  22.090  18.440  17.330
 2415DOPG   C3B50843  22.280  18.070  17.510
 2415DOPG   C4B50844  22.220  17.740  17.910
 2416DOPG   GL050845  21.100  11.210  12.850
 2416DOPG   PO450846  21.470  11.020  12.970
 2416DOPG   GL150847  21.530  10.850  12.620
 2416DOPG   GL250848  21.860  10.820  12.670
 2416DOPG   C1A50849  21.770  10.530  12.280
 2416DOPG   D2A50850  22.080  10.600  11.990
 2416DOPG   C3A50851  22.180  10.210  11.580
 2416DOPG   C4A50852  22.400   9.870  11.440
 2416DOPG   C1B50853  22.220  10.560  12.500
 2416DOPG   D2B50854  22.570  10.300  12.310
 2416DOPG   C3B50855  22.580   9.870  12.460
 2416DOPG   C4B50856  22.710   9.660  12.870
 2417DOPG   GL050857  23.170  21.130  14.920
 2417DOPG   PO450858  22.800  21.210  14.910
 2417DOPG   GL150859  22.510  20.810  14.830
 2417DOPG   GL250860  22.350  20.660  15.160
 2417DOPG   C1A50861  22.280  20.450  14.690
 2417DOPG   D2A50862  22.230  20.240  14.260
 2417DOPG   C3A50863  21.940  20.330  13.910
 2417DOPG   C4A50864  21.900  20.510  13.530
 2417DOPG   C1B50865  22.120  20.360  15.180
 2417DOPG   D2B50866  21.700  20.260  15.320
 2417DOPG   C3B50867  21.470  20.310  15.720
 2417DOPG   C4B50868  21.330  20.660  15.820
 2418DOPG   GL050869  21.680  20.760   8.530
 2418DOPG   PO450870  22.110  20.630   8.460
 2418DOPG   GL150871  22.280  20.810   8.010
 2418DOPG   GL250872  22.150  21.140   8.090
 2418DOPG   C1A50873  22.490  20.940   7.680
 2418DOPG   D2A50874  22.380  21.050   7.290
 2418DOPG   C3A50875  22.630  21.380   7.020
 2418DOPG   C4A50876  22.720  21.480   6.580
 2418DOPG   C1B50877  22.210  21.380   7.680
 2418DOPG   D2B50878  22.120  21.470   7.220
 2418DOPG   C3B50879  22.150  21.200   6.830
 2418DOPG   C4B50880  22.190  21.140   6.330
 2419DOPG   GL050881  23.650   5.740  17.210
 2419DOPG   PO450882  23.680   5.670  16.790
 2419DOPG   GL150883  24.080   5.510  16.910
 2419DOPG   GL250884  24.230   5.280  16.810
 2419DOPG   C1A50885  24.350   5.390  17.240
 2419DOPG   D2A50886  24.430   5.350  17.620
 2419DOPG   C3A50887  24.610   4.940  17.700
 2419DOPG   C4A50888  24.550   4.540  17.640
 2419DOPG   C1B50889  24.180   4.850  16.690
 2419DOPG   D2B50890  24.230   4.480  16.540
 2419DOPG   C3B50891  24.170   4.280  16.190
 2419DOPG   C4B50892  23.910   4.030  15.990
 2420DOPG   GL050893  10.470  13.160  12.990
 2420DOPG   PO450894  10.540  12.910  12.690
 2420DOPG   GL150895  10.100  12.760  12.820
 2420DOPG   GL250896  10.060  12.730  12.570
 2420DOPG   C1A50897   9.670  12.910  12.840
 2420DOPG   D2A50898   9.320  12.770  12.950
 2420DOPG   C3A50899   8.880  12.550  12.740
 2420DOPG   C4A50900   8.690  12.190  12.820
 2420DOPG   C1B50901   9.780  12.370  12.490
 2420DOPG   D2B50902   9.650  12.190  12.150
 2420DOPG   C3B50903   9.370  11.980  11.990
 2420DOPG   C4B50904   9.200  11.700  11.810
 2421DOPG   GL050905  15.870  16.560  12.990
 2421DOPG   PO450906  15.580  17.000  13.090
 2421DOPG   GL150907  15.140  17.250  12.980
 2421DOPG   GL250908  15.030  17.300  13.250
 2421DOPG   C1A50909  14.780  17.660  13.080
 2421DOPG   D2A50910  14.360  17.890  13.030
 2421DOPG   C3A50911  14.000  17.610  13.000
 2421DOPG   C4A50912  13.730  17.280  12.710
 2421DOPG   C1B50913  14.690  17.050  13.100
 2421DOPG   D2B50914  14.560  16.870  12.750
 2421DOPG   C3B50915  14.080  16.970  12.950
 2421DOPG   C4B50916  13.680  16.830  12.900
 2422DOPG   GL050917  16.870  23.260  13.030
 2422DOPG   PO450918  17.080  23.540  13.420
 2422DOPG   GL150919  17.030  24.030  13.400
 2422DOPG   GL250920  17.270  24.400  13.540
 2422DOPG   C1A50921  16.740  24.300  13.520
 2422DOPG   D2A50922  16.720  24.660  13.730
 2422DOPG   C3A50923  16.840  24.980  13.950
 2422DOPG   C4A50924  16.800  25.290  14.170
 2422DOPG   C1B50925  17.240  24.860  13.630
 2422DOPG   D2B50926  16.990  25.250  13.570
 2422DOPG   C3B50927  17.050  25.580  13.660
 2422DOPG   C4B50928  17.100  26.060  13.850
 2423DOPG   GL050929  11.850  15.560  13.920
 2423DOPG   PO450930  11.670  15.370  13.590
 2423DOPG   GL150931  12.130  15.330  13.580
 2423DOPG   GL250932  12.380  15.450  13.850
 2423DOPG   C1A50933  12.570  15.520  13.380
 2423DOPG   D2A50934  12.840  15.880  13.150
 2423DOPG   C3A50935  13.250  15.760  12.940
 2423DOPG   C4A50936  13.380  15.740  12.470
 2423DOPG   C1B50937  12.800  15.710  13.850
 2423DOPG   D2B50938  12.930  16.110  13.710
 2423DOPG   C3B50939  13.170  16.450  13.750
 2423DOPG   C4B50940  13.510  16.800  13.760
 2424DOPG   GL050941  23.660  19.680  10.720
 2424DOPG   PO450942  23.810  19.380  10.430
 2424DOPG   GL150943  23.580  19.040  10.500
 2424DOPG   GL250944  23.740  18.820  10.780
 2424DOPG   C1A50945  23.550  18.600  10.330
 2424DOPG   D2A50946  23.580  18.110  10.370
 2424DOPG   C3A50947  23.290  17.900  10.600
 2424DOPG   C4A50948  22.850  17.980  10.670
 2424DOPG   C1B50949  23.760  18.360  10.840
 2424DOPG   D2B50950  23.550  18.040  11.000
 2424DOPG   C3B50951  23.260  17.820  11.080
 2424DOPG   C4B50952  23.030  17.520  11.180
 2425DOPG   GL050953  21.250  22.090  17.180
 2425DOPG   PO450954  21.450  21.820  17.330
 2425DOPG   GL150955  21.600  21.770  17.740
 2425DOPG   GL250956  21.860  21.620  17.910
 2425DOPG   C1A50957  21.470  22.060  18.090
 2425DOPG   D2A50958  21.220  22.340  18.230
 2425DOPG   C3A50959  21.280  22.620  18.610
 2425DOPG   C4A50960  21.430  22.780  18.940
 2425DOPG   C1B50961  21.950  22.100  18.030
 2425DOPG   D2B50962  22.070  22.440  18.290
 2425DOPG   C3B50963  22.260  22.700  18.270
 2425DOPG   C4B50964  22.620  22.800  18.120
 2426DOPG   GL050965  17.220  22.430  10.580
 2426DOPG   PO450966  17.330  21.940  10.780
 2426DOPG   GL150967  17.600  21.730  11.150
 2426DOPG   GL250968  17.530  21.640  11.460
 2426DOPG   C1A50969  17.810  21.430  11.100
 2426DOPG   D2A50970  17.760  21.160  10.740
 2426DOPG   C3A50971  18.040  20.780  10.800
 2426DOPG   C4A50972  17.970  20.410  11.140
 2426DOPG   C1B50973  17.420  21.190  11.570
 2426DOPG   D2B50974  17.340  20.700  11.680
 2426DOPG   C3B50975  17.510  20.400  11.950
 2426DOPG   C4B50976  17.940  20.420  12.220
 2427DOPG   GL050977  15.030   3.100   8.990
 2427DOPG   PO450978  14.950   3.210   9.520
 2427DOPG   GL150979  15.160   3.570   9.650
 2427DOPG   GL250980  15.490   3.620   9.840
 2427DOPG   C1A50981  15.130   3.860  10.100
 2427DOPG   D2A50982  15.330   4.190  10.290
 2427DOPG   C3A50983  15.220   4.560  10.480
 2427DOPG   C4A50984  15.280   4.730  10.920
 2427DOPG   C1B50985  15.640   4.000  10.000
 2427DOPG   D2B50986  15.840   4.220  10.390
 2427DOPG   C3B50987  15.780   4.580  10.430
 2427DOPG   C4B50988  15.500   4.930  10.360
 2428DOPG   GL050989  19.760  16.530  14.900
 2428DOPG   PO450990  19.480  16.320  15.090
 2428DOPG   GL150991  19.510  16.770  15.330
 2428DOPG   GL250992  19.820  16.900  15.210
 2428DOPG   C1A50993  19.650  16.990  15.690
 2428DOPG   D2A50994  19.440  17.210  15.990
 2428DOPG   C3A50995  19.050  17.080  16.170
 2428DOPG   C4A50996  19.020  16.650  16.300
 2428DOPG   C1B50997  20.030  17.190  15.460
 2428DOPG   D2B50998  20.030  17.300  15.860
 2428DOPG   C3B50999  19.910  17.710  15.990
 2428DOPG   C4B51000  19.720  17.750  16.270
 2429DOPG   GL051001  17.140   8.660  15.510
 2429DOPG   PO451002  17.460   9.000  15.290
 2429DOPG   GL151003  17.720   9.000  15.000
 2429DOPG   GL251004  17.590   8.910  14.780
 2429DOPG   C1A51005  18.120   9.030  15.010
 2429DOPG   D2A51006  18.520   9.230  14.800
 2429DOPG   C3A51007  18.780   9.150  15.010
 2429DOPG   C4A51008  19.160   9.370  15.120
 2429DOPG   C1B51009  17.850   8.950  14.500
 2429DOPG   D2B51010  17.980   8.820  14.100
 2429DOPG   C3B51011  18.270   8.590  13.950
 2429DOPG   C4B51012  18.520   8.170  13.900
 2430DOPG   GL051013  21.940  12.140  15.140
 2430DOPG   PO451014  22.250  12.250  15.520
 2430DOPG   GL151015  22.190  11.920  15.820
 2430DOPG   GL251016  22.480  11.760  15.730
 2430DOPG   C1A51017  22.360  11.810  16.260
 2430DOPG   D2A51018  22.190  11.970  16.680
 2430DOPG   C3A51019  21.790  11.690  17.030
 2430DOPG   C4A51020  21.430  11.310  16.980
 2430DOPG   C1B51021  22.840  11.840  16.050
 2430DOPG   D2B51022  23.130  12.020  16.370
 2430DOPG   C3B51023  23.110  12.420  16.510
 2430DOPG   C4B51024  23.120  12.800  16.600
 2431DOPG   GL051025  20.090  12.480  12.140
 2431DOPG   PO451026  20.330  12.250  12.390
 2431DOPG   GL151027  20.590  12.000  12.150
 2431DOPG   GL251028  20.860  12.230  12.060
 2431DOPG   C1A51029  20.530  11.580  11.890
 2431DOPG   D2A51030  20.200  11.340  11.640
 2431DOPG   C3A51031  20.280  11.260  11.210
 2431DOPG   C4A51032  20.400  11.460  10.890
 2431DOPG   C1B51033  20.720  12.040  11.620
 2431DOPG   D2B51034  20.870  12.170  11.120
 2431DOPG   C3B51035  20.970  11.780  10.930
 2431DOPG   C4B51036  20.900  11.700  10.470
 2432DOPG   GL051037  18.850   6.580  10.810
 2432DOPG   PO451038  19.160   6.500  10.480
 2432DOPG   GL151039  19.370   6.330  10.150
 2432DOPG   GL251040  19.540   6.500   9.930
 2432DOPG   C1A51041  19.080   6.080   9.960
 2432DOPG   D2A51042  19.200   5.730   9.720
 2432DOPG   C3A51043  19.550   5.600   9.580
 2432DOPG   C4A51044  20.060   5.570   9.430
 2432DOPG   C1B51045  19.620   6.150   9.690
 2432DOPG   D2B51046  19.990   6.300   9.480
 2432DOPG   C3B51047  20.380   6.030   9.390
 2432DOPG   C4B51048  20.580   5.570   9.370
 2433DOPG   GL051049  14.250  12.920   9.660
 2433DOPG   PO451050  14.090  13.360   9.680
 2433DOPG   GL151051  13.910  13.600   9.990
 2433DOPG   GL251052  13.780  13.840   9.870
 2433DOPG   C1A51053  13.750  13.750  10.370
 2433DOPG   D2A51054  13.760  14.180  10.530
 2433DOPG   C3A51055  14.020  14.560  10.450
 2433DOPG   C4A51056  14.270  14.790  10.720
 2433DOPG   C1B51057  14.070  14.080  10.080
 2433DOPG   D2B51058  14.380  14.240  10.450
 2433DOPG   C3B51059  14.740  14.060  10.490
 2433DOPG   C4B51060  14.910  14.190  10.820
 2434DOPG   GL051061  21.080  14.020  11.920
 2434DOPG   PO451062  21.230  14.370  11.920
 2434DOPG   GL151063  21.390  14.490  11.440
 2434DOPG   GL251064  21.180  14.550  11.140
 2434DOPG   C1A51065  21.720  14.500  11.050
 2434DOPG   D2A51066  22.010  14.360  10.810
 2434DOPG   C3A51067  22.090  14.150  10.450
 2434DOPG   C4A51068  22.040  14.180  10.020
 2434DOPG   C1B51069  20.990  14.860  10.920
 2434DOPG   D2B51070  20.870  15.080  10.580
 2434DOPG   C3B51071  21.080  15.540  10.340
 2434DOPG   C4B51072  21.330  15.920  10.270
 2435DOPG   GL051073  12.780  15.480  15.380
 2435DOPG   PO451074  12.490  15.860  15.270
 2435DOPG   GL151075  12.860  15.920  15.090
 2435DOPG   GL251076  13.000  16.030  15.360
 2435DOPG   C1A51077  13.240  15.970  14.920
 2435DOPG   D2A51078  13.590  16.080  15.100
 2435DOPG   C3A51079  14.060  16.020  14.930
 2435DOPG   C4A51080  14.200  16.380  15.090
 2435DOPG   C1B51081  13.250  16.370  15.220
 2435DOPG   D2B51082  13.560  16.700  15.110
 2435DOPG   C3B51083  13.810  16.460  14.820
 2435DOPG   C4B51084  14.150  16.400  14.550
 2436DOPG   GL051085  21.600   8.140  19.670
 2436DOPG   PO451086  21.890   8.200  20.010
 2436DOPG   GL151087  21.950   7.740  20.150
 2436DOPG   GL251088  21.740   7.640  20.360
 2436DOPG   C1A51089  22.160   7.330  20.440
 2436DOPG   D2A51090  22.550   7.340  20.610
 2436DOPG   C3A51091  22.660   7.650  20.860
 2436DOPG   C4A51092  22.710   8.060  20.840
 2436DOPG   C1B51093  21.700   7.560  20.810
 2436DOPG   D2B51094  21.700   7.530  21.290
 2436DOPG   C3B51095  21.390   7.250  21.520
 2436DOPG   C4B51096  21.450   7.070  21.930
 2437DOPG   GL051097  12.830  20.620  12.440
 2437DOPG   PO451098  13.000  20.810  12.760
 2437DOPG   GL151099  12.650  21.040  12.610
 2437DOPG   GL251100  12.460  21.050  12.270
 2437DOPG   C1A51101  12.610  21.460  12.500
 2437DOPG   D2A51102  12.650  21.760  12.760
 2437DOPG   C3A51103  12.390  22.140  12.830
 2437DOPG   C4A51104  11.990  22.090  12.800
 2437DOPG   C1B51105  12.220  21.450  12.130
 2437DOPG   D2B51106  11.820  21.560  12.080
 2437DOPG   C3B51107  11.480  21.440  11.610
 2437DOPG   C4B51108  11.030  21.540  11.450
 2438DOPG   GL051109  22.300  17.890   8.180
 2438DOPG   PO451110  21.980  17.790   8.410
 2438DOPG   GL151111  21.620  17.520   8.440
 2438DOPG   GL251112  21.820  17.340   8.690
 2438DOPG   C1A51113  21.290  17.290   8.490
 2438DOPG   D2A51114  20.950  17.580   8.690
 2438DOPG   C3A51115  20.930  17.450   9.190
 2438DOPG   C4A51116  20.930  17.130   9.520
 2438DOPG   C1B51117  21.870  17.400   9.100
 2438DOPG   D2B51118  21.720  17.210   9.440
 2438DOPG   C3B51119  21.330  17.380   9.510
 2438DOPG   C4B51120  21.080  17.730   9.840
 2439DOPG   GL051121  14.100   8.810  10.460
 2439DOPG   PO451122  14.130   9.310  10.450
 2439DOPG   GL151123  14.020   9.110  10.030
 2439DOPG   GL251124  13.650   9.020  10.020
 2439DOPG   C1A51125  13.960   8.710   9.810
 2439DOPG   D2A51126  14.120   8.300   9.690
 2439DOPG   C3A51127  13.880   8.050   9.360
 2439DOPG   C4A51128  13.760   7.840   9.040
 2439DOPG   C1B51129  13.330   8.730   9.910
 2439DOPG   D2B51130  12.950   8.900   9.720
 2439DOPG   C3B51131  12.610   8.560   9.890
 2439DOPG   C4B51132  12.170   8.480   9.640
 2440DOPG   GL051133  14.820   1.170  15.430
 2440DOPG   PO451134  14.840   1.540  15.160
 2440DOPG   GL151135  15.010   1.850  14.930
 2440DOPG   GL251136  15.270   1.840  15.100
 2440DOPG   C1A51137  15.100   2.260  14.740
 2440DOPG   D2A51138  14.850   2.540  14.860
 2440DOPG   C3A51139  14.530   2.850  14.720
 2440DOPG   C4A51140  14.180   3.010  15.080
 2440DOPG   C1B51141  15.570   2.110  14.920
 2440DOPG   D2B51142  15.490   2.590  14.890
 2440DOPG   C3B51143  15.660   2.970  15.170
 2440DOPG   C4B51144  15.870   3.250  15.240
 2441DOPG   GL051145  12.650  14.840   8.860
 2441DOPG   PO451146  12.510  14.360   8.860
 2441DOPG   GL151147  12.360  14.150   8.680
 2441DOPG   GL251148  12.040  14.060   8.900
 2441DOPG   C1A51149  12.200  13.970   8.230
 2441DOPG   D2A51150  12.040  13.630   8.240
 2441DOPG   C3A51151  11.770  13.560   7.900
 2441DOPG   C4A51152  11.550  13.330   7.640
 2441DOPG   C1B51153  11.760  13.910   8.630
 2441DOPG   D2B51154  11.500  13.810   8.250
 2441DOPG   C3B51155  11.090  13.650   8.380
 2441DOPG   C4B51156  10.700  13.500   8.330
 2442DOPG   GL051157  23.310  15.230  13.100
 2442DOPG   PO451158  23.480  15.560  13.430
 2442DOPG   GL151159  23.840  15.830  13.310
 2442DOPG   GL251160  23.950  15.650  13.100
 2442DOPG   C1A51161  23.840  16.230  12.960
 2442DOPG   D2A51162  24.260  16.250  12.680
 2442DOPG   C3A51163  24.350  16.480  12.350
 2442DOPG   C4A51164  24.400  16.550  12.000
 2442DOPG   C1B51165  24.070  15.710  12.710
 2442DOPG   D2B51166  24.130  15.910  12.340
 2442DOPG   C3B51167  24.060  16.080  11.970
 2442DOPG   C4B51168  23.890  16.190  11.670
 2443DOPG   GL051169  19.640  14.810  19.160
 2443DOPG   PO451170  19.240  14.620  19.040
 2443DOPG   GL151171  19.380  14.780  18.700
 2443DOPG   GL251172  19.510  14.490  18.490
 2443DOPG   C1A51173  19.490  15.180  18.340
 2443DOPG   D2A51174  19.930  15.330  18.240
 2443DOPG   C3A51175  20.250  15.310  18.470
 2443DOPG   C4A51176  20.620  15.530  18.500
 2443DOPG   C1B51177  19.420  14.730  18.160
 2443DOPG   D2B51178  19.760  14.930  17.970
 2443DOPG   C3B51179  20.110  15.310  17.710
 2443DOPG   C4B51180  20.490  15.580  17.500
 2444DOPG   GL051181  15.910   6.110  15.940
 2444DOPG   PO451182  15.690   5.590  16.180
 2444DOPG   GL151183  15.490   5.210  16.390
 2444DOPG   GL251184  15.170   5.270  16.420
 2444DOPG   C1A51185  15.290   4.920  16.800
 2444DOPG   D2A51186  15.250   4.940  17.270
 2444DOPG   C3A51187  15.550   5.040  17.480
 2444DOPG   C4A51188  15.970   5.120  17.530
 2444DOPG   C1B51189  14.900   4.970  16.440
 2444DOPG   D2B51190  14.830   4.540  16.400
 2444DOPG   C3B51191  14.890   4.280  16.730
 2444DOPG   C4B51192  15.280   4.060  16.840
 2445DOPG   GL051193  19.490  12.330  18.980
 2445DOPG   PO451194  19.250  12.510  18.700
 2445DOPG   GL151195  19.260  12.430  18.250
 2445DOPG   GL251196  19.500  12.240  18.160
 2445DOPG   C1A51197  19.100  12.730  17.930
 2445DOPG   D2A51198  19.150  13.170  17.690
 2445DOPG   C3A51199  18.980  13.180  17.180
 2445DOPG   C4A51200  18.800  13.160  16.780
 2445DOPG   C1B51201  19.520  11.880  17.820
 2445DOPG   D2B51202  19.350  11.680  17.410
 2445DOPG   C3B51203  19.590  11.830  17.040
 2445DOPG   C4B51204  19.950  11.870  16.730
 2446DOPG   GL051205   9.920  16.030  12.830
 2446DOPG   PO451206  10.060  16.050  12.570
 2446DOPG   GL151207   9.760  16.270  12.420
 2446DOPG   GL251208   9.540  16.360  12.780
 2446DOPG   C1A51209   9.340  16.540  12.390
 2446DOPG   D2A51210   9.000  16.750  12.430
 2446DOPG   C3A51211   8.660  16.590  12.140
 2446DOPG   C4A51212   8.440  16.250  11.820
 2446DOPG   C1B51213   9.090  16.230  12.670
 2446DOPG   D2B51214   8.790  16.060  12.880
 2446DOPG   C3B51215   8.460  15.970  13.140
 2446DOPG   C4B51216   7.980  15.830  13.110
 2447DOPG   GL051217  22.020  17.080  13.530
 2447DOPG   PO451218  22.210  17.130  13.980
 2447DOPG   GL151219  22.520  17.360  13.690
 2447DOPG   GL251220  22.850  17.290  13.710
 2447DOPG   C1A51221  22.580  17.810  13.680
 2447DOPG   D2A51222  22.760  18.270  13.800
 2447DOPG   C3A51223  23.140  18.290  14.080
 2447DOPG   C4A51224  23.530  18.480  14.270
 2447DOPG   C1B51225  23.210  17.360  13.700
 2447DOPG   D2B51226  23.580  17.290  13.500
 2447DOPG   C3B51227  24.050  17.250  13.630
 2447DOPG   C4B51228  24.370  16.920  13.820
 2448DOPG   GL051229  18.460  17.740  14.410
 2448DOPG   PO451230  18.380  18.170  14.440
 2448DOPG   GL151231  18.540  18.480  14.740
 2448DOPG   GL251232  18.210  18.620  14.750
 2448DOPG   C1A51233  18.690  18.700  15.160
 2448DOPG   D2A51234  18.700  19.010  15.490
 2448DOPG   C3A51235  18.420  18.860  15.820
 2448DOPG   C4A51236  18.160  18.560  16.010
 2448DOPG   C1B51237  18.220  18.920  15.160
 2448DOPG   D2B51238  18.020  18.930  15.480
 2448DOPG   C3B51239  17.960  19.040  15.860
 2448DOPG   C4B51240  17.910  18.960  16.250
 2449DOPG   GL051241  15.690  16.210  12.110
 2449DOPG   PO451242  15.830  16.660  12.110
 2449DOPG   GL151243  15.500  16.960  11.870
 2449DOPG   GL251244  15.150  16.690  11.910
 2449DOPG   C1A51245  15.130  17.220  11.990
 2449DOPG   D2A51246  14.800  17.430  11.770
 2449DOPG   C3A51247  14.390  17.570  11.710
 2449DOPG   C4A51248  14.100  17.850  11.450
 2449DOPG   C1B51249  14.660  16.890  11.880
 2449DOPG   D2B51250  14.310  16.860  12.150
 2449DOPG   C3B51251  14.200  17.110  12.490
 2449DOPG   C4B51252  14.530  17.360  12.710
 2450DOPG   GL051253  23.240  10.420  14.320
 2450DOPG   PO451254  22.990  10.150  14.190
 2450DOPG   GL151255  23.210   9.920  14.450
 2450DOPG   GL251256  23.180   9.670  14.360
 2450DOPG   C1A51257  23.500   9.720  14.780
 2450DOPG   D2A51258  23.950   9.590  14.800
 2450DOPG   C3A51259  23.940   9.240  14.540
 2450DOPG   C4A51260  23.770   8.830  14.510
 2450DOPG   C1B51261  22.870   9.310  14.500
 2450DOPG   D2B51262  22.920   8.900  14.450
 2450DOPG   C3B51263  22.560   8.630  14.310
 2450DOPG   C4B51264  22.190   8.670  14.020
 2451DOPG   GL051265  10.850  13.760   5.120
 2451DOPG   PO451266  11.170  13.510   5.160
 2451DOPG   GL151267  11.480  13.670   5.510
 2451DOPG   GL251268  11.470  14.040   5.520
 2451DOPG   C1A51269  11.700  13.640   5.780
 2451DOPG   D2A51270  11.820  13.410   6.200
 2451DOPG   C3A51271  11.970  13.690   6.560
 2451DOPG   C4A51272  12.060  13.900   6.990
 2451DOPG   C1B51273  11.320  14.040   5.820
 2451DOPG   D2B51274  11.450  13.820   6.230
 2451DOPG   C3B51275  11.660  14.020   6.530
 2451DOPG   C4B51276  11.900  14.260   6.590
 2452DOPG   GL051277  16.670  18.770  13.460
 2452DOPG   PO451278  16.620  18.940  13.830
 2452DOPG   GL151279  16.940  19.050  14.030
 2452DOPG   GL251280  16.810  19.080  14.300
 2452DOPG   C1A51281  17.230  19.440  14.300
 2452DOPG   D2A51282  17.040  19.640  14.730
 2452DOPG   C3A51283  16.660  19.430  15.010
 2452DOPG   C4A51284  16.630  19.160  15.460
 2452DOPG   C1B51285  16.580  19.500  14.460
 2452DOPG   D2B51286  16.180  19.530  14.720
 2452DOPG   C3B51287  16.180  19.970  15.010
 2452DOPG   C4B51288  16.120  20.280  15.320
 2453DOPG   GL051289  25.920  10.120  11.950
 2453DOPG   PO451290  26.030   9.630  11.780
 2453DOPG   GL151291  25.640   9.580  12.130
 2453DOPG   GL251292  25.610   9.840  12.370
 2453DOPG   C1A51293  25.310   9.310  12.320
 2453DOPG   D2A51294  25.160   9.180  12.780
 2453DOPG   C3A51295  25.240   9.390  13.180
 2453DOPG   C4A51296  25.380   9.670  13.380
 2453DOPG   C1B51297  25.270   9.870  12.490
 2453DOPG   D2B51298  25.020  10.140  12.760
 2453DOPG   C3B51299  24.680  10.450  12.690
 2453DOPG   C4B51300  24.370  10.750  12.780
 2454DOPG   GL051301  25.970  10.820  10.970
 2454DOPG   PO451302  25.870  11.130  11.240
 2454DOPG   GL151303  25.760  11.010  11.620
 2454DOPG   GL251304  25.520  10.740  11.670
 2454DOPG   C1A51305  25.700  11.090  12.120
 2454DOPG   D2A51306  25.810  11.340  12.390
 2454DOPG   C3A51307  26.140  11.610  12.480
 2454DOPG   C4A51308  26.420  11.790  12.280
 2454DOPG   C1B51309  25.140  10.700  11.910
 2454DOPG   D2B51310  24.880  10.400  11.890
 2454DOPG   C3B51311  24.370  10.340  12.040
 2454DOPG   C4B51312  24.170  10.580  12.360
 2455DOPG   GL051313  18.960  18.030  12.490
 2455DOPG   PO451314  19.180  18.410  12.330
 2455DOPG   GL151315  19.400  18.720  12.030
 2455DOPG   GL251316  19.760  18.710  11.820
 2455DOPG   C1A51317  19.440  19.090  11.720
 2455DOPG   D2A51318  19.450  19.440  11.530
 2455DOPG   C3A51319  19.490  19.300  11.060
 2455DOPG   C4A51320  19.260  19.400  10.650
 2455DOPG   C1B51321  19.850  19.090  11.480
 2455DOPG   D2B51322  20.210  19.340  11.340
 2455DOPG   C3B51323  20.230  19.550  10.940
 2455DOPG   C4B51324  20.250  19.300  10.510
 2456DOPG   GL051325  18.060  22.480  12.770
 2456DOPG   PO451326  18.060  22.210  13.040
 2456DOPG   GL151327  17.830  21.750  12.960
 2456DOPG   GL251328  17.460  21.680  12.930
 2456DOPG   C1A51329  17.910  21.290  13.230
 2456DOPG   D2A51330  18.080  20.920  13.160
 2456DOPG   C3A51331  18.010  20.590  13.510
 2456DOPG   C4A51332  18.190  20.600  13.910
 2456DOPG   C1B51333  17.430  21.420  13.240
 2456DOPG   D2B51334  17.570  21.030  13.450
 2456DOPG   C3B51335  17.650  20.780  12.970
 2456DOPG   C4B51336  17.730  20.500  12.650
 2457DOPG   GL051337  23.610  14.710  13.820
 2457DOPG   PO451338  23.600  15.060  13.670
 2457DOPG   GL151339  24.010  15.110  13.590
 2457DOPG   GL251340  24.120  14.770  13.700
 2457DOPG   C1A51341  24.160  15.220  13.160
 2457DOPG   D2A51342  24.440  15.410  12.990
 2457DOPG   C3A51343  24.650  15.120  12.730
 2457DOPG   C4A51344  24.570  14.700  12.500
 2457DOPG   C1B51345  24.490  14.940  13.680
 2457DOPG   D2B51346  24.680  15.260  13.430
 2457DOPG   C3B51347  24.970  15.100  13.130
 2457DOPG   C4B51348  25.220  14.790  13.080
 2458DOPG   GL051349  23.630  13.700  14.630
 2458DOPG   PO451350  23.830  13.730  14.170
 2458DOPG   GL151351  24.220  13.530  13.920
 2458DOPG   GL251352  24.530  13.340  14.050
 2458DOPG   C1A51353  24.250  13.830  13.590
 2458DOPG   D2A51354  24.340  14.010  13.190
 2458DOPG   C3A51355  24.500  13.850  12.820
 2458DOPG   C4A51356  24.920  13.690  12.630
 2458DOPG   C1B51357  24.720  13.690  13.950
 2458DOPG   D2B51358  24.790  14.110  14.170
 2458DOPG   C3B51359  25.170  14.210  14.310
 2458DOPG   C4B51360  25.490  14.390  14.530
 2459DOPG   GL051361  22.480  12.040  14.870
 2459DOPG   PO451362  22.520  11.950  15.270
 2459DOPG   GL151363  22.870  12.100  15.540
 2459DOPG   GL251364  22.940  12.470  15.480
 2459DOPG   C1A51365  23.170  12.120  15.860
 2459DOPG   D2A51366  23.530  11.990  16.060
 2459DOPG   C3A51367  23.490  11.640  16.280
 2459DOPG   C4A51368  23.060  11.470  16.400
 2459DOPG   C1B51369  22.780  12.460  15.950
 2459DOPG   D2B51370  22.580  12.280  16.270
 2459DOPG   C3B51371  22.690  12.290  16.780
 2459DOPG   C4B51372  23.060  12.550  17.030
 2460DOPG   GL051373  10.170  22.630   8.240
 2460DOPG   PO451374  10.330  22.690   8.610
 2460DOPG   GL151375  10.530  22.520   8.940
 2460DOPG   GL251376  10.390  22.410   9.220
 2460DOPG   C1A51377  10.830  22.300   8.990
 2460DOPG   D2A51378  11.210  22.370   9.190
 2460DOPG   C3A51379  11.500  22.360   8.920
 2460DOPG   C4A51380  11.730  22.470   8.470
 2460DOPG   C1B51381  10.350  22.080   9.520
 2460DOPG   D2B51382  10.160  21.690   9.630
 2460DOPG   C3B51383  10.290  21.350   9.760
 2460DOPG   C4B51384  10.650  21.160  10.000
 2461DOPG   GL051385  10.180  15.130  15.450
 2461DOPG   PO451386  10.430  15.130  15.890
 2461DOPG   GL151387  10.010  15.160  16.020
 2461DOPG   GL251388  10.010  14.990  16.260
 2461DOPG   C1A51389   9.620  15.290  16.060
 2461DOPG   D2A51390   9.200  15.340  16.120
 2461DOPG   C3A51391   9.120  15.750  16.280
 2461DOPG   C4A51392   9.080  16.220  16.160
 2461DOPG   C1B51393   9.610  15.150  16.540
 2461DOPG   D2B51394   9.250  15.040  16.750
 2461DOPG   C3B51395   8.930  15.040  16.700
 2461DOPG   C4B51396   8.620  15.150  16.780
 2462DOPG   GL051397  18.910  18.900  14.060
 2462DOPG   PO451398  19.220  18.630  14.040
 2462DOPG   GL151399  19.320  18.930  14.350
 2462DOPG   GL251400  19.500  18.760  14.620
 2462DOPG   C1A51401  19.170  19.160  14.650
 2462DOPG   D2A51402  19.050  19.130  15.070
 2462DOPG   C3A51403  19.070  19.420  15.330
 2462DOPG   C4A51404  18.870  19.870  15.430
 2462DOPG   C1B51405  19.370  18.800  15.040
 2462DOPG   D2B51406  19.220  18.920  15.430
 2462DOPG   C3B51407  18.900  18.590  15.620
 2462DOPG   C4B51408  18.800  18.230  15.530
 2463DOPG   GL051409  22.610  12.430  13.110
 2463DOPG   PO451410  23.000  12.450  12.880
 2463DOPG   GL151411  23.340  12.410  12.580
 2463DOPG   GL251412  23.400  12.730  12.430
 2463DOPG   C1A51413  23.890  12.480  12.560
 2463DOPG   D2A51414  24.310  12.510  12.390
 2463DOPG   C3A51415  24.500  12.130  12.490
 2463DOPG   C4A51416  24.440  11.630  12.480
 2463DOPG   C1B51417  23.530  13.050  12.090
 2463DOPG   D2B51418  23.780  13.330  11.740
 2463DOPG   C3B51419  23.550  13.770  11.710
 2463DOPG   C4B51420  23.590  14.310  11.740
 2464DOPG   GL051421  20.710  14.310  19.380
 2464DOPG   PO451422  21.000  14.490  19.250
 2464DOPG   GL151423  20.990  14.200  18.930
 2464DOPG   GL251424  21.220  14.380  18.780
 2464DOPG   C1A51425  20.890  14.110  18.470
 2464DOPG   D2A51426  20.830  14.000  18.050
 2464DOPG   C3A51427  20.530  13.690  17.810
 2464DOPG   C4A51428  20.320  13.350  17.540
 2464DOPG   C1B51429  21.350  14.140  18.410
 2464DOPG   D2B51430  21.390  14.010  17.950
 2464DOPG   C3B51431  21.440  14.110  17.550
 2464DOPG   C4B51432  21.340  14.490  17.270
 2465DOPG   GL051433  12.370  16.370  22.290
 2465DOPG   PO451434  12.530  15.930  22.510
 2465DOPG   GL151435  12.770  15.770  22.130
 2465DOPG   GL251436  12.850  15.480  22.320
 2465DOPG   C1A51437  13.080  15.640  21.770
 2465DOPG   D2A51438  13.550  15.560  21.430
 2465DOPG   C3A51439  13.720  15.640  20.950
 2465DOPG   C4A51440  13.900  15.790  20.720
 2465DOPG   C1B51441  12.720  15.210  22.050
 2465DOPG   D2B51442  12.560  14.930  21.720
 2465DOPG   C3B51443  12.180  14.740  21.630
 2465DOPG   C4B51444  11.770  14.570  21.590
 2466DOPG   GL051445  12.390  18.170  15.090
 2466DOPG   PO451446  12.400  17.790  15.350
 2466DOPG   GL151447  12.800  17.940  15.220
 2466DOPG   GL251448  13.000  17.680  15.420
 2466DOPG   C1A51449  13.060  18.050  14.850
 2466DOPG   D2A51450  13.420  18.030  14.660
 2466DOPG   C3A51451  13.800  17.830  14.740
 2466DOPG   C4A51452  14.090  17.590  14.940
 2466DOPG   C1B51453  13.440  17.500  15.530
 2466DOPG   D2B51454  13.750  17.370  15.270
 2466DOPG   C3B51455  14.260  17.320  15.320
 2466DOPG   C4B51456  14.680  17.550  15.050
 2467DOPG   GL051457  24.270   2.020  10.270
 2467DOPG   PO451458  24.160   2.410  10.350
 2467DOPG   GL151459  23.880   2.810  10.590
 2467DOPG   GL251460  23.710   2.740  10.770
 2467DOPG   C1A51461  23.960   3.170  10.800
 2467DOPG   D2A51462  24.050   3.570  11.060
 2467DOPG   C3A51463  24.280   4.040  11.130
 2467DOPG   C4A51464  24.190   4.450  10.950
 2467DOPG   C1B51465  23.530   3.110  11.050
 2467DOPG   D2B51466  23.690   3.470  11.430
 2467DOPG   C3B51467  23.970   3.470  11.740
 2467DOPG   C4B51468  23.930   3.770  12.130
 2468DOPG   GL051469  24.180  13.440  14.420
 2468DOPG   PO451470  24.130  13.670  14.730
 2468DOPG   GL151471  24.590  13.680  14.710
 2468DOPG   GL251472  24.710  13.330  14.530
 2468DOPG   C1A51473  24.900  13.980  14.820
 2468DOPG   D2A51474  25.220  14.300  14.960
 2468DOPG   C3A51475  25.130  14.730  14.740
 2468DOPG   C4A51476  24.850  15.050  14.590
 2468DOPG   C1B51477  24.930  13.570  14.410
 2468DOPG   D2B51478  25.170  13.660  14.130
 2468DOPG   C3B51479  25.350  13.670  13.650
 2468DOPG   C4B51480  25.800  13.840  13.660
 2469DOPG   GL051481  22.300  17.570   8.760
 2469DOPG   PO451482  22.810  17.500   8.820
 2469DOPG   GL151483  22.720  17.750   9.170
 2469DOPG   GL251484  22.380  17.960   9.150
 2469DOPG   C1A51485  22.630  17.880   9.600
 2469DOPG   D2A51486  22.430  17.710   9.900
 2469DOPG   C3A51487  22.030  17.830  10.130
 2469DOPG   C4A51488  21.680  17.910  10.390
 2469DOPG   C1B51489  22.130  17.640   9.460
 2469DOPG   D2B51490  21.990  17.420   9.790
 2469DOPG   C3B51491  21.620  17.500  10.040
 2469DOPG   C4B51492  21.240  17.620  10.360
 2470DOPG   GL051493  14.310   9.990  19.280
 2470DOPG   PO451494  14.770  10.200  19.220
 2470DOPG   GL151495  14.860  10.180  19.650
 2470DOPG   GL251496  14.680   9.880  19.690
 2470DOPG   C1A51497  14.790  10.410  20.100
 2470DOPG   D2A51498  14.710  10.360  20.580
 2470DOPG   C3A51499  14.550  10.310  20.950
 2470DOPG   C4A51500  14.380  10.500  21.210
 2470DOPG   C1B51501  14.510   9.840  20.110
 2470DOPG   D2B51502  14.460   9.960  20.460
 2470DOPG   C3B51503  14.160   9.770  20.690
 2470DOPG   C4B51504  14.090   9.340  20.870
 2471DOPG   GL051505  24.770  19.370  16.140
 2471DOPG   PO451506  24.430  19.080  16.020
 2471DOPG   GL151507  24.220  19.050  15.630
 2471DOPG   GL251508  23.950  18.880  15.460
 2471DOPG   C1A51509  23.940  19.360  15.370
 2471DOPG   D2A51510  23.580  19.070  15.160
 2471DOPG   C3A51511  23.450  18.800  15.450
 2471DOPG   C4A51512  23.680  18.630  15.740
 2471DOPG   C1B51513  23.810  18.620  15.180
 2471DOPG   D2B51514  24.060  18.320  14.960
 2471DOPG   C3B51515  24.270  17.910  15.060
 2471DOPG   C4B51516  24.740  17.690  15.040
 2472DOPG   GL051517  18.040   4.760  22.250
 2472DOPG   PO451518  18.030   4.970  22.550
 2472DOPG   GL151519  18.100   5.350  22.180
 2472DOPG   GL251520  18.300   5.630  22.300
 2472DOPG   C1A51521  17.800   5.680  21.940
 2472DOPG   D2A51522  17.760   6.090  21.730
 2472DOPG   C3A51523  17.740   6.030  21.250
 2472DOPG   C4A51524  17.750   6.310  20.830
 2472DOPG   C1B51525  18.340   5.950  21.950
 2472DOPG   D2B51526  18.270   6.250  21.620
 2472DOPG   C3B51527  18.090   6.630  21.700
 2472DOPG   C4B51528  17.580   6.630  21.930
 2473DOPG   GL051529  10.840   6.270  18.650
 2473DOPG   PO451530  10.680   5.990  18.280
 2473DOPG   GL151531  10.780   6.350  18.140
 2473DOPG   GL251532  10.700   6.190  17.760
 2473DOPG   C1A51533  10.620   6.720  17.970
 2473DOPG   D2A51534  10.730   7.120  18.180
 2473DOPG   C3A51535  11.090   7.200  18.390
 2473DOPG   C4A51536  11.450   7.480  18.510
 2473DOPG   C1B51537  11.200   6.340  17.890
 2473DOPG   D2B51538  11.650   6.300  18.020
 2473DOPG   C3B51539  11.660   5.980  18.300
 2473DOPG   C4B51540  11.770   5.750  18.650
 2474DOPG   GL051541  13.800  17.290   8.010
 2474DOPG   PO451542  14.080  16.980   7.860
 2474DOPG   GL151543  13.710  16.830   7.580
 2474DOPG   GL251544  13.570  17.140   7.620
 2474DOPG   C1A51545  13.470  16.730   7.300
 2474DOPG   D2A51546  13.230  16.780   6.830
 2474DOPG   C3A51547  13.050  16.460   6.770
 2474DOPG   C4A51548  13.020  16.030   6.680
 2474DOPG   C1B51549  13.480  17.550   7.340
 2474DOPG   D2B51550  13.500  17.980   7.270
 2474DOPG   C3B51551  13.370  18.160   6.900
 2474DOPG   C4B51552  13.270  18.600   6.750
 2475DOPG   GL051553  12.300  17.150  11.770
 2475DOPG   PO451554  12.650  16.850  11.710
 2475DOPG   GL151555  12.830  17.260  11.670
 2475DOPG   GL251556  12.930  17.420  11.420
 2475DOPG   C1A51557  13.170  17.500  11.990
 2475DOPG   D2A51558  13.390  17.690  12.320
 2475DOPG   C3A51559  13.800  17.630  12.390
 2475DOPG   C4A51560  14.160  17.600  12.500
 2475DOPG   C1B51561  13.380  17.330  11.550
 2475DOPG   D2B51562  13.780  17.400  11.720
 2475DOPG   C3B51563  14.020  17.310  12.000
 2475DOPG   C4B51564  14.460  17.410  12.200
 2476DOPG   GL051565  23.460  11.380  13.940
 2476DOPG   PO451566  23.620  11.420  13.490
 2476DOPG   GL151567  23.920  11.380  13.240
 2476DOPG   GL251568  24.070  11.730  13.220
 2476DOPG   C1A51569  24.160  11.110  13.110
 2476DOPG   D2A51570  24.260  10.660  13.250
 2476DOPG   C3A51571  24.430  10.280  13.120
 2476DOPG   C4A51572  24.110   9.900  12.960
 2476DOPG   C1B51573  24.470  11.720  13.020
 2476DOPG   D2B51574  24.860  11.700  13.140
 2476DOPG   C3B51575  25.210  11.940  13.460
 2476DOPG   C4B51576  25.390  11.980  13.750
 2477DOPG   GL051577  13.110   1.670  13.180
 2477DOPG   PO451578  12.920   2.080  13.310
 2477DOPG   GL151579  13.320   2.440  13.540
 2477DOPG   GL251580  13.210   2.800  13.430
 2477DOPG   C1A51581  13.710   2.600  13.270
 2477DOPG   D2A51582  13.910   2.930  13.030
 2477DOPG   C3A51583  14.270   3.080  12.900
 2477DOPG   C4A51584  14.610   3.230  12.580
 2477DOPG   C1B51585  13.130   3.250  13.510
 2477DOPG   D2B51586  13.110   3.540  13.770
 2477DOPG   C3B51587  13.320   3.800  14.100
 2477DOPG   C4B51588  13.360   3.820  14.540
 2478DOPG   GL051589  24.090  14.370  18.530
 2478DOPG   PO451590  24.310  14.660  18.310
 2478DOPG   GL151591  24.170  14.370  17.970
 2478DOPG   GL251592  23.940  14.120  18.070
 2478DOPG   C1A51593  24.250  14.270  17.480
 2478DOPG   D2A51594  24.230  14.210  17.090
 2478DOPG   C3A51595  24.440  14.280  16.620
 2478DOPG   C4A51596  24.160  14.010  16.210
 2478DOPG   C1B51597  23.890  13.950  17.640
 2478DOPG   D2B51598  23.920  13.830  17.160
 2478DOPG   C3B51599  23.600  14.000  16.960
 2478DOPG   C4B51600  23.330  13.880  16.660
 2479DOPG   GL051601  17.380  13.590  20.110
 2479DOPG   PO451602  17.600  13.880  20.310
 2479DOPG   GL151603  17.570  14.000  20.800
 2479DOPG   GL251604  17.880  13.750  20.880
 2479DOPG   C1A51605  17.510  14.060  21.320
 2479DOPG   D2A51606  17.560  14.220  21.690
 2479DOPG   C3A51607  17.380  14.530  21.900
 2479DOPG   C4A51608  17.090  14.910  21.780
 2479DOPG   C1B51609  18.000  13.890  21.300
 2479DOPG   D2B51610  18.030  14.130  21.770
 2479DOPG   C3B51611  17.840  14.190  22.200
 2479DOPG   C4B51612  17.530  14.450  22.410
 2480DOPG   GL051613  22.550  12.970  14.570
 2480DOPG   PO451614  22.630  12.900  15.010
 2480DOPG   GL151615  22.540  12.880  15.470
 2480DOPG   GL251616  22.320  12.720  15.650
 2480DOPG   C1A51617  22.790  12.980  15.850
 2480DOPG   D2A51618  23.070  13.020  16.140
 2480DOPG   C3A51619  23.480  13.060  15.970
 2480DOPG   C4A51620  23.720  13.270  16.360
 2480DOPG   C1B51621  22.340  12.780  16.120
 2480DOPG   D2B51622  22.670  12.760  16.400
 2480DOPG   C3B51623  22.630  12.810  16.840
 2480DOPG   C4B51624  22.860  12.960  17.210
 2481DOPG   GL051625  10.560  11.390  14.380
 2481DOPG   PO451626  10.540  11.880  14.410
 2481DOPG   GL151627  10.070  11.720  14.510
 2481DOPG   GL251628   9.790  11.970  14.590
 2481DOPG   C1A51629   9.680  11.480  14.660
 2481DOPG   D2A51630   9.280  11.450  14.610
 2481DOPG   C3A51631   8.980  11.630  14.750
 2481DOPG   C4A51632   8.810  11.760  15.050
 2481DOPG   C1B51633   9.350  11.900  14.460
 2481DOPG   D2B51634   9.120  11.620  14.160
 2481DOPG   C3B51635   8.830  11.720  13.910
 2481DOPG   C4B51636   8.670  11.630  13.550
 2482DOPG   GL051637  29.540  20.470  17.070
 2482DOPG   PO451638  29.210  20.720  17.030
 2482DOPG   GL151639  28.870  20.470  16.930
 2482DOPG   GL251640  28.990  20.170  16.920
 2482DOPG   C1A51641  28.640  20.370  16.680
 2482DOPG   D2A51642  28.550  20.260  16.250
 2482DOPG   C3A51643  28.320  20.310  15.880
 2482DOPG   C4A51644  27.990  20.040  15.850
 2482DOPG   C1B51645  28.770  19.910  16.690
 2482DOPG   D2B51646  28.470  19.780  16.420
 2482DOPG   C3B51647  28.100  19.520  16.410
 2482DOPG   C4B51648  27.880  19.290  16.740
 2483DOPG   GL051649   7.320  18.630  11.100
 2483DOPG   PO451650   7.360  18.150  11.120
 2483DOPG   GL151651   7.720  18.150  11.290
 2483DOPG   GL251652   7.890  18.400  11.110
 2483DOPG   C1A51653   8.000  18.150  11.640
 2483DOPG   D2A51654   8.180  18.140  11.980
 2483DOPG   C3A51655   8.180  17.800  12.240
 2483DOPG   C4A51656   8.570  17.690  12.550
 2483DOPG   C1B51657   8.290  18.330  11.240
 2483DOPG   D2B51658   8.560  18.100  11.420
 2483DOPG   C3B51659   9.100  18.070  11.390
 2483DOPG   C4B51660   9.420  17.800  11.440
 2484DOPG   GL051661  16.270  17.880  13.780
 2484DOPG   PO451662  15.910  17.810  14.040
 2484DOPG   GL151663  15.620  18.030  13.910
 2484DOPG   GL251664  15.390  17.920  13.640
 2484DOPG   C1A51665  15.290  18.300  13.960
 2484DOPG   D2A51666  15.080  18.620  13.780
 2484DOPG   C3A51667  15.140  18.970  13.750
 2484DOPG   C4A51668  15.190  19.380  13.650
 2484DOPG   C1B51669  14.990  18.010  13.550
 2484DOPG   D2B51670  14.690  18.390  13.430
 2484DOPG   C3B51671  14.870  18.740  13.270
 2484DOPG   C4B51672  15.180  19.020  13.210
 2485DOPG   GL051673  17.870   7.660  11.590
 2485DOPG   PO451674  17.550   7.930  11.530
 2485DOPG   GL151675  17.630   8.070  11.950
 2485DOPG   GL251676  17.260   8.110  11.960
 2485DOPG   C1A51677  17.940   8.480  11.960
 2485DOPG   D2A51678  18.090   8.830  11.880
 2485DOPG   C3A51679  17.860   9.200  11.820
 2485DOPG   C4A51680  17.650   9.660  11.830
 2485DOPG   C1B51681  17.360   8.520  12.040
 2485DOPG   D2B51682  17.450   9.010  11.980
 2485DOPG   C3B51683  17.690   9.270  12.290
 2485DOPG   C4B51684  17.810   9.170  12.700
 2486DOPG   GL051685  26.510  10.940  18.370
 2486DOPG   PO451686  26.370  10.720  18.570
 2486DOPG   GL151687  26.710  10.530  18.770
 2486DOPG   GL251688  26.770  10.240  18.660
 2486DOPG   C1A51689  26.920  10.420  19.090
 2486DOPG   D2A51690  27.130  10.740  19.320
 2486DOPG   C3A51691  27.080  10.880  19.710
 2486DOPG   C4A51692  27.030  10.760  20.120
 2486DOPG   C1B51693  27.030   9.910  18.880
 2486DOPG   D2B51694  27.280   9.680  19.110
 2486DOPG   C3B51695  27.730   9.580  18.950
 2486DOPG   C4B51696  28.170   9.680  19.140
 2487DOPG   GL051697  21.680  12.410  15.480
 2487DOPG   PO451698  21.690  12.020  15.710
 2487DOPG   GL151699  21.750  12.160  16.150
 2487DOPG   GL251700  21.730  11.940  16.390
 2487DOPG   C1A51701  22.030  12.410  16.380
 2487DOPG   D2A51702  22.240  12.500  16.800
 2487DOPG   C3A51703  22.230  12.290  17.040
 2487DOPG   C4A51704  22.190  12.010  17.320
 2487DOPG   C1B51705  21.570  12.100  16.690
 2487DOPG   D2B51706  21.770  12.420  16.970
 2487DOPG   C3B51707  21.710  12.730  17.210
 2487DOPG   C4B51708  21.620  13.060  17.020
 2488DOPG   GL051709  20.960  13.620  12.720
 2488DOPG   PO451710  21.070  13.660  12.320
 2488DOPG   GL151711  20.970  13.520  11.890
 2488DOPG   GL251712  20.990  13.180  11.800
 2488DOPG   C1A51713  21.090  13.680  11.570
 2488DOPG   D2A51714  21.040  14.080  11.440
 2488DOPG   C3A51715  21.040  14.130  10.870
 2488DOPG   C4A51716  21.110  14.520  10.600
 2488DOPG   C1B51717  21.220  13.160  11.410
 2488DOPG   D2B51718  21.440  12.940  11.020
 2488DOPG   C3B51719  21.090  12.720  10.770
 2488DOPG   C4B51720  20.830  12.680  10.300
 2489DOPG   GL051721  15.760   9.960  13.260
 2489DOPG   PO451722  15.420  10.140  12.930
 2489DOPG   GL151723  15.640  10.500  12.950
 2489DOPG   GL251724  15.740  10.700  12.640
 2489DOPG   C1A51725  16.060  10.640  12.980
 2489DOPG   D2A51726  16.330  10.910  12.710
 2489DOPG   C3A51727  16.810  11.020  12.880
 2489DOPG   C4A51728  17.300  11.000  12.920
 2489DOPG   C1B51729  15.830  11.110  12.660
 2489DOPG   D2B51730  15.950  11.450  12.730
 2489DOPG   C3B51731  16.370  11.550  12.810
 2489DOPG   C4B51732  16.820  11.480  13.000
 2490DOPG   GL051733  23.460  12.350  13.060
 2490DOPG   PO451734  23.810  12.190  13.290
 2490DOPG   GL151735  24.210  12.250  13.050
 2490DOPG   GL251736  24.300  12.560  13.120
 2490DOPG   C1A51737  24.710  12.170  12.920
 2490DOPG   D2A51738  24.940  12.010  12.740
 2490DOPG   C3A51739  24.910  11.620  12.610
 2490DOPG   C4A51740  24.990  11.120  12.610
 2490DOPG   C1B51741  24.610  12.630  12.830
 2490DOPG   D2B51742  24.750  13.070  12.670
 2490DOPG   C3B51743  24.920  13.080  12.480
 2490DOPG   C4B51744  25.240  13.000  12.230
 2491DOPG   GL051745  21.140   5.950  13.050
 2491DOPG   PO451746  20.930   6.110  12.750
 2491DOPG   GL151747  20.840   6.450  13.020
 2491DOPG   GL251748  20.560   6.640  13.070
 2491DOPG   C1A51749  20.960   6.880  12.990
 2491DOPG   D2A51750  20.770   7.060  12.780
 2491DOPG   C3A51751  20.520   7.330  12.570
 2491DOPG   C4A51752  20.440   7.780  12.680
 2491DOPG   C1B51753  20.490   7.120  13.210
 2491DOPG   D2B51754  20.520   7.360  13.650
 2491DOPG   C3B51755  20.910   7.140  13.990
 2491DOPG   C4B51756  21.290   7.300  14.160
 2492DOPG   GL051757  19.280  16.220  19.970
 2492DOPG   PO451758  18.890  16.160  20.230
 2492DOPG   GL151759  18.830  16.280  20.660
 2492DOPG   GL251760  18.680  16.100  20.840
 2492DOPG   C1A51761  18.810  16.630  20.990
 2492DOPG   D2A51762  18.660  17.030  21.020
 2492DOPG   C3A51763  18.500  17.180  21.400
 2492DOPG   C4A51764  18.400  17.310  21.790
 2492DOPG   C1B51765  18.670  15.720  21.090
 2492DOPG   D2B51766  18.520  15.560  21.420
 2492DOPG   C3B51767  18.560  15.840  21.730
 2492DOPG   C4B51768  18.600  16.270  21.600
 2493DOPG   GL051769  21.410  13.340  12.020
 2493DOPG   PO451770  21.510  13.800  12.020
 2493DOPG   GL151771  21.530  14.000  11.600
 2493DOPG   GL251772  21.750  14.030  11.470
 2493DOPG   C1A51773  21.490  14.030  11.100
 2493DOPG   D2A51774  21.520  14.090  10.640
 2493DOPG   C3A51775  21.630  13.870  10.330
 2493DOPG   C4A51776  21.920  13.680  10.040
 2493DOPG   C1B51777  22.140  14.220  11.270
 2493DOPG   D2B51778  22.440  14.320  11.410
 2493DOPG   C3B51779  22.790  13.960  11.300
 2493DOPG   C4B51780  23.020  13.680  11.330
 2494DOPG   GL051781  24.720  19.680  12.740
 2494DOPG   PO451782  24.620  20.030  12.950
 2494DOPG   GL151783  24.280  19.630  12.960
 2494DOPG   GL251784  23.950  19.680  12.860
 2494DOPG   C1A51785  24.400  19.380  13.230
 2494DOPG   D2A51786  24.640  19.120  13.580
 2494DOPG   C3A51787  24.480  19.070  14.020
 2494DOPG   C4A51788  24.260  19.060  14.310
 2494DOPG   C1B51789  23.820  19.520  12.440
 2494DOPG   D2B51790  23.690  19.150  12.290
 2494DOPG   C3B51791  23.770  18.880  12.600
 2494DOPG   C4B51792  23.500  18.750  13.030
 2495DOPG   GL051793  23.990   6.150  13.290
 2495DOPG   PO451794  23.820   5.690  13.370
 2495DOPG   GL151795  24.140   5.490  13.240
 2495DOPG   GL251796  24.420   5.670  13.340
 2495DOPG   C1A51797  24.570   5.270  13.010
 2495DOPG   D2A51798  25.010   5.160  12.860
 2495DOPG   C3A51799  25.240   4.800  12.520
 2495DOPG   C4A51800  25.500   4.520  12.290
 2495DOPG   C1B51801  24.730   5.370  13.480
 2495DOPG   D2B51802  25.220   5.190  13.560
 2495DOPG   C3B51803  25.420   4.960  13.290
 2495DOPG   C4B51804  25.800   4.720  13.200
 2496DOPG   GL051805  17.560   9.390   9.690
 2496DOPG   PO451806  17.960   9.380   9.880
 2496DOPG   GL151807  18.220   9.730  10.010
 2496DOPG   GL251808  18.510   9.710  10.140
 2496DOPG   C1A51809  18.080  10.010  10.250
 2496DOPG   D2A51810  18.360  10.420  10.520
 2496DOPG   C3A51811  18.350  10.160  10.830
 2496DOPG   C4A51812  18.250   9.730  10.970
 2496DOPG   C1B51813  18.680  10.030  10.440
 2496DOPG   D2B51814  18.910  10.090  10.760
 2496DOPG   C3B51815  18.800  10.450  10.950
 2496DOPG   C4B51816  19.050  10.860  11.060
 2497DOPG   GL051817  12.760   2.960  11.030
 2497DOPG   PO451818  12.980   3.400  11.110
 2497DOPG   GL151819  13.200   3.820  11.100
 2497DOPG   GL251820  12.960   4.130  11.250
 2497DOPG   C1A51821  13.580   3.920  11.420
 2497DOPG   D2A51822  14.040   4.010  11.660
 2497DOPG   C3A51823  14.210   4.040  12.020
 2497DOPG   C4A51824  14.510   4.110  12.240
 2497DOPG   C1B51825  13.370   4.350  11.380
 2497DOPG   D2B51826  13.820   4.350  11.370
 2497DOPG   C3B51827  14.030   4.010  11.190
 2497DOPG   C4B51828  14.120   3.610  11.300
 2498DOPG   GL051829  16.840  16.060  12.160
 2498DOPG   PO451830  17.090  16.230  11.800
 2498DOPG   GL151831  17.160  15.840  11.530
 2498DOPG   GL251832  17.470  15.770  11.280
 2498DOPG   C1A51833  16.870  15.540  11.360
 2498DOPG   D2A51834  16.890  15.110  11.310
 2498DOPG   C3A51835  16.550  14.820  11.230
 2498DOPG   C4A51836  16.410  14.480  11.460
 2498DOPG   C1B51837  17.260  15.750  10.940
 2498DOPG   D2B51838  17.140  15.330  10.770
 2498DOPG   C3B51839  16.680  15.090  10.830
 2498DOPG   C4B51840  16.260  14.960  10.620
 2499DOPG   GL051841  23.200  13.960  14.930
 2499DOPG   PO451842  23.150  13.570  14.730
 2499DOPG   GL151843  23.460  13.450  15.020
 2499DOPG   GL251844  23.560  13.140  15.030
 2499DOPG   C1A51845  23.850  13.480  15.240
 2499DOPG   D2A51846  24.390  13.510  15.200
 2499DOPG   C3A51847  24.600  13.250  15.550
 2499DOPG   C4A51848  24.530  13.130  15.920
 2499DOPG   C1B51849  23.760  12.960  15.470
 2499DOPG   D2B51850  23.980  13.220  15.720
 2499DOPG   C3B51851  24.100  13.030  16.070
 2499DOPG   C4B51852  23.870  12.780  16.380
 2500DOPG   GL051853  10.270  11.780  21.620
 2500DOPG   PO451854  10.340  12.230  21.340
 2500DOPG   GL151855  10.330  12.220  20.900
 2500DOPG   GL251856  10.650  12.050  20.840
 2500DOPG   C1A51857  10.320  12.450  20.530
 2500DOPG   D2A51858  10.650  12.620  20.310
 2500DOPG   C3A51859  10.990  12.680  20.020
 2500DOPG   C4A51860  11.320  12.670  19.780
 2500DOPG   C1B51861  11.020  12.140  20.600
 2500DOPG   D2B51862  11.170  12.200  20.250
 2500DOPG   C3B51863  11.320  11.980  19.930
 2500DOPG   C4B51864  10.990  11.860  19.600
 2501DOPG   GL051865  19.690  15.440   8.010
 2501DOPG   PO451866  19.810  15.050   8.260
 2501DOPG   GL151867  19.830  15.080   8.610
 2501DOPG   GL251868  19.760  14.820   8.810
 2501DOPG   C1A51869  19.810  15.310   9.060
 2501DOPG   D2A51870  19.880  15.180   9.530
 2501DOPG   C3A51871  20.060  15.490   9.910
 2501DOPG   C4A51872  20.320  15.590  10.250
 2501DOPG   C1B51873  20.080  14.810   9.200
 2501DOPG   D2B51874  20.320  14.760   9.540
 2501DOPG   C3B51875  20.230  14.950   9.920
 2501DOPG   C4B51876  20.190  14.720  10.290
 2502DOPG   GL051877  13.760  12.320  11.340
 2502DOPG   PO451878  14.040  12.210  11.770
 2502DOPG   GL151879  14.230  12.380  12.130
 2502DOPG   GL251880  14.510  12.300  12.120
 2502DOPG   C1A51881  14.330  12.670  12.510
 2502DOPG   D2A51882  14.170  13.050  12.770
 2502DOPG   C3A51883  14.210  13.520  12.900
 2502DOPG   C4A51884  14.400  13.680  13.240
 2502DOPG   C1B51885  14.670  12.650  12.140
 2502DOPG   D2B51886  15.020  12.960  12.090
 2502DOPG   C3B51887  15.080  13.350  11.960
 2502DOPG   C4B51888  14.840  13.670  11.830
 2503DOPG   GL051889   8.970  16.730  19.610
 2503DOPG   PO451890   8.850  16.720  20.000
 2503DOPG   GL151891   8.930  16.250  19.740
 2503DOPG   GL251892   9.200  16.090  19.680
 2503DOPG   C1A51893   8.970  16.270  19.240
 2503DOPG   D2A51894   9.410  16.150  19.140
 2503DOPG   C3A51895   9.680  16.180  18.700
 2503DOPG   C4A51896  10.030  16.250  18.410
 2503DOPG   C1B51897   9.400  15.750  19.610
 2503DOPG   D2B51898   9.770  15.810  19.440
 2503DOPG   C3B51899   9.920  15.830  19.080
 2503DOPG   C4B51900   9.940  15.790  18.530
 2504DOPG   GL051901  19.730  14.910  14.940
 2504DOPG   PO451902  19.390  15.020  15.350
 2504DOPG   GL151903  19.440  14.740  15.730
 2504DOPG   GL251904  19.530  14.400  15.770
 2504DOPG   C1A51905  19.170  14.590  16.060
 2504DOPG   D2A51906  19.010  14.670  16.480
 2504DOPG   C3A51907  18.780  14.330  16.700
 2504DOPG   C4A51908  18.680  14.130  17.090
 2504DOPG   C1B51909  19.380  14.050  15.900
 2504DOPG   D2B51910  19.390  13.670  16.020
 2504DOPG   C3B51911  19.060  13.410  16.100
 2504DOPG   C4B51912  18.680  13.450  16.320
 2505DOPG   GL051913  23.040  16.160  12.550
 2505DOPG   PO451914  22.930  16.200  13.010
 2505DOPG   GL151915  23.210  16.420  13.180
 2505DOPG   GL251916  23.090  16.450  13.470
 2505DOPG   C1A51917  23.610  16.660  13.080
 2505DOPG   D2A51918  23.800  16.960  13.200
 2505DOPG   C3A51919  23.850  17.330  12.980
 2505DOPG   C4A51920  24.050  17.200  12.610
 2505DOPG   C1B51921  23.500  16.730  13.590
 2505DOPG   D2B51922  23.870  16.760  13.780
 2505DOPG   C3B51923  23.920  17.000  14.150
 2505DOPG   C4B51924  23.830  17.380  14.000
 2506DOPG   GL051925   7.830   8.500  14.010
 2506DOPG   PO451926   7.950   8.190  13.640
 2506DOPG   GL151927   8.280   8.600  13.640
 2506DOPG   GL251928   8.380   8.970  13.770
 2506DOPG   C1A51929   8.610   8.810  13.320
 2506DOPG   D2A51930   8.990   8.980  13.530
 2506DOPG   C3A51931   8.870   9.170  13.920
 2506DOPG   C4A51932   8.800   9.500  14.150
 2506DOPG   C1B51933   8.720   8.710  13.920
 2506DOPG   D2B51934   8.970   8.460  14.300
 2506DOPG   C3B51935   9.280   8.550  14.540
 2506DOPG   C4B51936   9.750   8.650  14.790
 2507DOPG   GL051937  16.830  19.150  17.950
 2507DOPG   PO451938  16.610  18.910  17.640
 2507DOPG   GL151939  17.040  18.670  17.450
 2507DOPG   GL251940  17.310  18.330  17.460
 2507DOPG   C1A51941  17.340  18.740  17.200
 2507DOPG   D2A51942  17.690  19.010  17.220
 2507DOPG   C3A51943  18.180  18.930  17.390
 2507DOPG   C4A51944  18.760  18.920  17.440
 2507DOPG   C1B51945  17.130  18.280  17.050
 2507DOPG   D2B51946  17.230  18.230  16.550
 2507DOPG   C3B51947  17.050  17.830  16.190
 2507DOPG   C4B51948  17.170  17.530  16.160
 2508DOPG   GL051949  26.460  11.880  18.650
 2508DOPG   PO451950  26.100  11.680  18.830
 2508DOPG   GL151951  26.170  11.750  19.230
 2508DOPG   GL251952  26.460  11.900  19.270
 2508DOPG   C1A51953  26.180  11.550  19.560
 2508DOPG   D2A51954  26.210  11.040  19.840
 2508DOPG   C3A51955  26.440  11.040  20.150
 2508DOPG   C4A51956  26.640  10.660  20.480
 2508DOPG   C1B51957  26.630  11.810  19.630
 2508DOPG   D2B51958  26.560  11.490  20.000
 2508DOPG   C3B51959  26.920  11.360  20.270
 2508DOPG   C4B51960  27.160  11.290  20.630
 2509DOPG   GL051961  20.500  10.510  14.990
 2509DOPG   PO451962  20.340  10.290  14.630
 2509DOPG   GL151963  20.140  10.140  14.930
 2509DOPG   GL251964  19.870  10.050  14.750
 2509DOPG   C1A51965  20.350   9.960  15.300
 2509DOPG   D2A51966  20.350   9.630  15.590
 2509DOPG   C3A51967  20.070   9.580  15.880
 2509DOPG   C4A51968  19.790   9.680  16.220
 2509DOPG   C1B51969  19.620  10.160  15.020
 2509DOPG   D2B51970  19.460  10.660  15.100
 2509DOPG   C3B51971  19.890  10.700  15.260
 2509DOPG   C4B51972  20.250  10.590  15.410
 2510DOPG   GL051973  22.200  16.270  13.510
 2510DOPG   PO451974  22.610  16.420  13.380
 2510DOPG   GL151975  22.830  16.850  13.470
 2510DOPG   GL251976  23.080  16.860  13.760
 2510DOPG   C1A51977  23.200  17.000  13.320
 2510DOPG   D2A51978  23.290  17.290  12.930
 2510DOPG   C3A51979  23.520  17.360  12.460
 2510DOPG   C4A51980  23.850  17.350  12.050
 2510DOPG   C1B51981  23.430  17.060  14.030
 2510DOPG   D2B51982  23.570  17.230  14.390
 2510DOPG   C3B51983  23.550  17.440  14.720
 2510DOPG   C4B51984  23.850  17.680  14.900
 2511DOPG   GL051985  15.870   6.720  17.740
 2511DOPG   PO451986  15.640   6.400  17.730
 2511DOPG   GL151987  15.440   6.270  18.160
 2511DOPG   GL251988  15.210   6.500  18.240
 2511DOPG   C1A51989  15.220   5.850  18.420
 2511DOPG   D2A51990  15.320   5.720  18.840
 2511DOPG   C3A51991  14.850   5.660  19.040
 2511DOPG   C4A51992  14.580   5.720  19.440
 2511DOPG   C1B51993  14.850   6.210  18.260
 2511DOPG   D2B51994  14.800   6.020  18.650
 2511DOPG   C3B51995  14.570   6.160  19.010
 2511DOPG   C4B51996  14.200   6.360  19.100
 2512DOPG   GL051997  16.960  14.760  14.180
 2512DOPG   PO451998  16.580  14.900  14.320
 2512DOPG   GL151999  16.290  14.900  14.610
 2512DOPG   GL252000  16.060  14.670  14.730
 2512DOPG   C1A52001  16.110  14.990  15.060
 2512DOPG   D2A52002  15.820  15.130  15.320
 2512DOPG   C3A52003  15.430  15.040  15.340
 2512DOPG   C4A52004  15.120  15.170  15.340
 2512DOPG   C1B52005  15.660  14.790  14.720
 2512DOPG   D2B52006  15.280  14.890  14.860
 2512DOPG   C3B52007  15.080  14.610  14.880
 2512DOPG   C4B52008  15.260  14.310  14.670
 2513DOPG   GL052009  17.230  16.020  14.580
 2513DOPG   PO452010  17.610  16.210  14.870
 2513DOPG   GL152011  17.330  16.480  15.040
 2513DOPG   GL252012  17.130  16.240  15.060
 2513DOPG   C1A52013  17.120  16.630  15.470
 2513DOPG   D2A52014  16.960  16.770  15.880
 2513DOPG   C3A52015  17.010  16.440  16.160
 2513DOPG   C4A52016  17.270  16.210  16.330
 2513DOPG   C1B52017  16.720  16.390  15.220
 2513DOPG   D2B52018  16.260  16.410  15.310
 2513DOPG   C3B52019  16.010  16.090  15.580
 2513DOPG   C4B52020  15.590  16.100  15.680
 2514DOPG   GL052021  21.630  15.890  19.350
 2514DOPG   PO452022  21.860  16.170  19.200
 2514DOPG   GL152023  21.700  16.200  18.850
 2514DOPG   GL252024  21.900  16.340  18.560
 2514DOPG   C1A52025  21.530  15.940  18.500
 2514DOPG   D2A52026  21.190  15.780  18.450
 2514DOPG   C3A52027  21.030  15.900  18.100
 2514DOPG   C4A52028  20.820  15.640  17.870
 2514DOPG   C1B52029  22.010  16.030  18.110
 2514DOPG   D2B52030  21.970  15.940  17.670
 2514DOPG   C3B52031  22.370  16.060  17.410
 2514DOPG   C4B52032  22.780  16.050  17.620
 2515DOPG   GL052033  16.230  16.730  13.950
 2515DOPG   PO452034  15.950  16.370  13.810
 2515DOPG   GL152035  15.530  16.410  14.020
 2515DOPG   GL252036  15.320  16.340  13.770
 2515DOPG   C1A52037  15.220  16.460  14.440
 2515DOPG   D2A52038  14.930  16.480  14.830
 2515DOPG   C3A52039  14.630  16.200  14.860
 2515DOPG   C4A52040  14.370  15.930  14.560
 2515DOPG   C1B52041  15.040  16.460  13.980
 2515DOPG   D2B52042  14.800  16.690  14.310
 2515DOPG   C3B52043  14.450  16.950  14.110
 2515DOPG   C4B52044  13.980  17.000  13.980
 2516DOPG   GL052045  16.920  16.990  13.900
 2516DOPG   PO452046  17.020  16.970  14.280
 2516DOPG   GL152047  16.790  17.170  14.620
 2516DOPG   GL252048  16.640  17.430  14.630
 2516DOPG   C1A52049  16.590  17.200  15.040
 2516DOPG   D2A52050  16.260  16.840  15.160
 2516DOPG   C3A52051  15.900  16.940  15.410
 2516DOPG   C4A52052  15.730  17.300  15.640
 2516DOPG   C1B52053  16.290  17.720  14.760
 2516DOPG   D2B52054  15.880  17.680  14.890
 2516DOPG   C3B52055  15.580  17.750  15.300
 2516DOPG   C4B52056  15.280  17.540  15.510
 2517DOPG   GL052057  16.270  15.980  15.120
 2517DOPG   PO452058  16.080  16.380  14.810
 2517DOPG   GL152059  15.860  16.310  15.070
 2517DOPG   GL252060  15.720  16.070  15.130
 2517DOPG   C1A52061  15.660  16.560  15.480
 2517DOPG   D2A52062  15.330  16.620  15.790
 2517DOPG   C3A52063  14.940  16.690  15.690
 2517DOPG   C4A52064  14.740  16.450  15.500
 2517DOPG   C1B52065  15.780  15.750  15.290
 2517DOPG   D2B52066  15.510  15.530  15.560
 2517DOPG   C3B52067  15.450  15.750  15.990
 2517DOPG   C4B52068  15.410  15.800  16.360
 2518DOPG   GL052069  17.100   7.420  19.120
 2518DOPG   PO452070  17.390   7.430  19.390
 2518DOPG   GL152071  17.430   7.220  19.690
 2518DOPG   GL252072  17.230   7.190  19.960
 2518DOPG   C1A52073  17.690   6.960  19.870
 2518DOPG   D2A52074  17.870   6.880  20.240
 2518DOPG   C3A52075  17.970   6.610  20.480
 2518DOPG   C4A52076  18.300   6.380  20.800
 2518DOPG   C1B52077  17.280   6.870  20.180
 2518DOPG   D2B52078  17.470   6.660  20.420
 2518DOPG   C3B52079  17.330   6.270  20.550
 2518DOPG   C4B52080  17.060   5.990  20.860
 2519DOPG   GL052081  21.120  22.080  15.750
 2519DOPG   PO452082  21.120  21.910  15.290
 2519DOPG   GL152083  21.050  21.670  14.940
 2519DOPG   GL252084  21.180  21.390  15.080
 2519DOPG   C1A52085  20.950  21.190  14.690
 2519DOPG   D2A52086  20.990  20.670  14.730
 2519DOPG   C3A52087  21.250  20.520  14.380
 2519DOPG   C4A52088  21.540  20.740  14.100
 2519DOPG   C1B52089  20.700  21.210  15.160
 2519DOPG   D2B52090  20.420  20.880  14.960
 2519DOPG   C3B52091  20.520  20.520  14.730
 2519DOPG   C4B52092  20.490  20.020  14.840
 2520DOPG   GL052093  25.020  10.380  11.000
 2520DOPG   PO452094  24.980  10.060  10.890
 2520DOPG   GL152095  24.580   9.960  10.860
 2520DOPG   GL252096  24.650   9.750  11.150
 2520DOPG   C1A52097  24.210   9.900  11.210
 2520DOPG   D2A52098  23.810   9.620  11.240
 2520DOPG   C3A52099  23.520   9.630  11.630
 2520DOPG   C4A52100  23.220   9.810  12.040
 2520DOPG   C1B52101  24.630  10.090  11.360
 2520DOPG   D2B52102  24.740  10.590  11.410
 2520DOPG   C3B52103  24.590  10.780  11.800
 2520DOPG   C4B52104  24.180  10.850  11.900
 2521DOPG   GL052105  17.660   5.660  12.250
 2521DOPG   PO452106  17.260   5.540  12.530
 2521DOPG   GL152107  17.370   5.270  12.120
 2521DOPG   GL252108  17.010   5.210  12.080
 2521DOPG   C1A52109  17.580   5.180  11.770
 2521DOPG   D2A52110  17.600   5.150  11.300
 2521DOPG   C3A52111  17.480   4.980  10.810
 2521DOPG   C4A52112  17.100   4.900  10.550
 2521DOPG   C1B52113  17.160   4.960  11.690
 2521DOPG   D2B52114  17.300   4.730  11.410
 2521DOPG   C3B52115  17.130   4.640  11.090
 2521DOPG   C4B52116  17.370   4.510  10.720
 2522DOPG   GL052117  27.250  12.460  11.710
 2522DOPG   PO452118  27.120  12.830  11.480
 2522DOPG   GL152119  26.840  12.690  11.830
 2522DOPG   GL252120  26.680  13.000  11.810
 2522DOPG   C1A52121  26.820  12.720  12.220
 2522DOPG   D2A52122  26.540  12.790  12.570
 2522DOPG   C3A52123  26.690  12.510  12.910
 2522DOPG   C4A52124  26.390  12.150  12.980
 2522DOPG   C1B52125  26.270  12.930  12.070
 2522DOPG   D2B52126  26.000  12.520  12.180
 2522DOPG   C3B52127  25.640  12.620  12.430
 2522DOPG   C4B52128  25.230  12.740  12.760
 2523DOPG   GL052129  16.940  13.190  12.700
 2523DOPG   PO452130  16.670  13.370  12.980
 2523DOPG   GL152131  16.300  13.160  12.790
 2523DOPG   GL252132  16.330  13.400  12.550
 2523DOPG   C1A52133  15.770  13.100  12.640
 2523DOPG   D2A52134  15.410  13.020  12.780
 2523DOPG   C3A52135  15.120  12.820  12.520
 2523DOPG   C4A52136  14.880  12.450  12.570
 2523DOPG   C1B52137  16.270  13.710  12.180
 2523DOPG   D2B52138  16.100  13.750  11.830
 2523DOPG   C3B52139  15.800  13.890  11.540
 2523DOPG   C4B52140  15.460  13.870  11.120
 2524DOPG   GL052141  12.790  22.080   6.080
 2524DOPG   PO452142  12.380  22.060   6.150
 2524DOPG   GL152143  12.350  21.920   6.530
 2524DOPG   GL252144  12.260  21.690   6.750
 2524DOPG   C1A52145  12.760  21.840   6.700
 2524DOPG   D2A52146  12.950  21.680   7.140
 2524DOPG   C3A52147  12.790  21.500   7.510
 2524DOPG   C4A52148  12.860  21.840   7.920
 2524DOPG   C1B52149  12.410  21.840   7.120
 2524DOPG   D2B52150  12.660  22.030   7.440
 2524DOPG   C3B52151  12.800  22.470   7.350
 2524DOPG   C4B52152  12.720  22.890   7.650
 2525DOPG   GL052153  29.720  17.550   7.470
 2525DOPG   PO452154  29.320  17.420   7.630
 2525DOPG   GL152155  28.940  17.650   7.890
 2525DOPG   GL252156  28.840  17.300   7.920
 2525DOPG   C1A52157  28.960  17.630   8.340
 2525DOPG   D2A52158  29.060  17.550   8.720
 2525DOPG   C3A52159  28.870  17.770   9.030
 2525DOPG   C4A52160  28.620  17.890   9.440
 2525DOPG   C1B52161  28.440  17.330   7.880
 2525DOPG   D2B52162  28.010  17.370   7.680
 2525DOPG   C3B52163  27.580  17.120   7.610
 2525DOPG   C4B52164  27.180  16.710   7.630
 2526DOPG   GL052165  24.840  16.470   9.410
 2526DOPG   PO452166  25.060  16.740   9.750
 2526DOPG   GL152167  24.850  16.480  10.080
 2526DOPG   GL252168  24.850  16.840  10.260
 2526DOPG   C1A52169  24.600  16.420  10.500
 2526DOPG   D2A52170  24.240  16.500  10.650
 2526DOPG   C3A52171  24.040  16.900  10.690
 2526DOPG   C4A52172  24.090  17.330  10.820
 2526DOPG   C1B52173  24.330  16.630  10.150
 2526DOPG   D2B52174  24.160  16.140  10.260
 2526DOPG   C3B52175  24.250  15.770  10.530
 2526DOPG   C4B52176  24.610  15.490  10.510
 2527DOPG   GL052177  22.010   6.310  15.620
 2527DOPG   PO452178  22.210   6.760  15.560
 2527DOPG   GL152179  22.270   7.250  15.460
 2527DOPG   GL252180  22.630   7.380  15.510
 2527DOPG   C1A52181  22.310   7.580  15.210
 2527DOPG   D2A52182  22.190   8.080  15.160
 2527DOPG   C3A52183  22.660   8.250  15.160
 2527DOPG   C4A52184  22.650   8.780  15.300
 2527DOPG   C1B52185  22.660   7.470  15.970
 2527DOPG   D2B52186  22.730   7.920  16.130
 2527DOPG   C3B52187  23.090   8.070  16.350
 2527DOPG   C4B52188  23.240   8.220  16.030
 2528DOPG   GL052189  29.500  21.500  16.520
 2528DOPG   PO452190  29.260  21.730  16.310
 2528DOPG   GL152191  28.980  21.310  16.390
 2528DOPG   GL252192  28.630  21.360  16.450
 2528DOPG   C1A52193  28.930  20.900  16.320
 2528DOPG   D2A52194  28.950  20.450  16.020
 2528DOPG   C3A52195  28.800  20.070  15.940
 2528DOPG   C4A52196  28.420  19.780  15.880
 2528DOPG   C1B52197  28.240  21.180  16.660
 2528DOPG   D2B52198  27.710  21.040  16.670
 2528DOPG   C3B52199  27.520  20.810  16.260
 2528DOPG   C4B52200  27.560  20.390  15.980
 2529DOPG   GL052201  21.760  10.390  12.740
 2529DOPG   PO452202  21.830  10.170  13.150
 2529DOPG   GL152203  21.730   9.810  13.010
 2529DOPG   GL252204  21.830   9.490  13.210
 2529DOPG   C1A52205  21.600   9.380  12.800
 2529DOPG   D2A52206  21.740   8.860  12.850
 2529DOPG   C3A52207  21.770   8.710  13.330
 2529DOPG   C4A52208  21.600   8.770  13.730
 2529DOPG   C1B52209  22.000   9.130  13.240
 2529DOPG   D2B52210  22.310   8.930  13.500
 2529DOPG   C3B52211  22.650   8.780  13.310
 2529DOPG   C4B52212  22.860   8.370  13.310
 2530DOPG   GL052213  19.950   6.760  19.030
 2530DOPG   PO452214  20.120   6.380  19.210
 2530DOPG   GL152215  20.260   6.070  19.410
 2530DOPG   GL252216  19.950   5.930  19.320
 2530DOPG   C1A52217  20.350   5.830  19.710
 2530DOPG   D2A52218  20.640   5.510  20.030
 2530DOPG   C3A52219  20.510   5.320  20.520
 2530DOPG   C4A52220  20.590   4.910  20.770
 2530DOPG   C1B52221  20.050   5.570  19.450
 2530DOPG   D2B52222  20.150   5.370  19.840
 2530DOPG   C3B52223  20.070   5.560  20.260
 2530DOPG   C4B52224  19.980   5.350  20.670
 2531DOPG   GL052225  19.340  11.100  13.440
 2531DOPG   PO452226  19.280  10.640  13.560
 2531DOPG   GL152227  19.330  10.220  13.360
 2531DOPG   GL252228  19.400  10.160  13.090
 2531DOPG   C1A52229  19.020   9.880  13.390
 2531DOPG   D2A52230  18.650   9.690  13.260
 2531DOPG   C3A52231  18.230   9.700  13.020
 2531DOPG   C4A52232  18.090   9.600  12.710
 2531DOPG   C1B52233  19.070   9.860  12.900
 2531DOPG   D2B52234  18.880   9.480  12.890
 2531DOPG   C3B52235  19.210   9.130  12.790
 2531DOPG   C4B52236  19.570   9.040  12.640
 2532DOPG   GL052237  17.890   8.420  17.010
 2532DOPG   PO452238  17.700   8.760  16.800
 2532DOPG   GL152239  17.710   9.250  16.720
 2532DOPG   GL252240  17.550   9.580  16.790
 2532DOPG   C1A52241  18.010   9.630  16.550
 2532DOPG   D2A52242  18.120   9.910  16.390
 2532DOPG   C3A52243  18.480   9.850  16.360
 2532DOPG   C4A52244  18.850   9.750  16.110
 2532DOPG   C1B52245  17.880  10.020  16.790
 2532DOPG   D2B52246  18.150  10.380  16.610
 2532DOPG   C3B52247  18.560  10.330  16.570
 2532DOPG   C4B52248  18.980  10.180  16.330
 2533DOPG   GL052249  13.090  17.820  17.720
 2533DOPG   PO452250  12.750  18.070  17.750
 2533DOPG   GL152251  12.530  18.380  17.950
 2533DOPG   GL252252  12.230  18.450  17.930
 2533DOPG   C1A52253  12.560  18.520  18.310
 2533DOPG   D2A52254  12.620  18.880  18.640
 2533DOPG   C3A52255  12.560  18.720  18.990
 2533DOPG   C4A52256  12.510  19.010  19.330
 2533DOPG   C1B52257  12.080  18.730  18.320
 2533DOPG   D2B52258  11.940  19.040  18.600
 2533DOPG   C3B52259  12.290  19.290  18.890
 2533DOPG   C4B52260  12.740  19.220  18.980
 2534DOPG   GL052261  13.600  16.040   8.720
 2534DOPG   PO452262  13.340  15.930   8.370
 2534DOPG   GL152263  13.330  15.910   7.870
 2534DOPG   GL252264  13.000  15.800   7.930
 2534DOPG   C1A52265  13.330  15.760   7.510
 2534DOPG   D2A52266  13.170  15.730   7.040
 2534DOPG   C3A52267  13.290  15.480   6.850
 2534DOPG   C4A52268  13.500  15.130   6.750
 2534DOPG   C1B52269  12.760  15.830   7.580
 2534DOPG   D2B52270  12.650  15.950   7.240
 2534DOPG   C3B52271  12.710  16.440   7.150
 2534DOPG   C4B52272  12.590  16.660   6.840
 2535DOPG   GL052273  23.500  11.930  19.120
 2535DOPG   PO452274  23.470  12.280  18.970
 2535DOPG   GL152275  23.320  12.500  18.660
 2535DOPG   GL252276  23.640  12.680  18.550
 2535DOPG   C1A52277  23.100  12.750  18.260
 2535DOPG   D2A52278  22.850  13.100  18.090
 2535DOPG   C3A52279  22.730  13.100  17.660
 2535DOPG   C4A52280  22.550  13.310  17.380
 2535DOPG   C1B52281  23.520  12.800  18.120
 2535DOPG   D2B52282  23.270  12.920  17.810
 2535DOPG   C3B52283  22.970  12.670  17.630
 2535DOPG   C4B52284  22.620  12.530  17.320
 2536DOPG   GL052285  14.730  25.300   8.510
 2536DOPG   PO452286  14.280  25.390   8.540
 2536DOPG   GL152287  14.320  25.200   8.830
 2536DOPG   GL252288  14.420  25.290   9.260
 2536DOPG   C1A52289  14.600  24.830   8.980
 2536DOPG   D2A52290  14.910  24.490   8.950
 2536DOPG   C3A52291  15.040  24.050   8.860
 2536DOPG   C4A52292  15.310  23.660   8.980
 2536DOPG   C1B52293  14.880  25.150   9.250
 2536DOPG   D2B52294  15.260  24.850   9.290
 2536DOPG   C3B52295  15.410  24.560   8.980
 2536DOPG   C4B52296  15.590  24.170   9.210
 2537DOPG   GL052297  20.880  12.280  19.470
 2537DOPG   PO452298  20.600  12.500  19.220
 2537DOPG   GL152299  20.910  12.290  18.870
 2537DOPG   GL252300  20.800  12.050  18.670
 2537DOPG   C1A52301  21.180  12.240  18.370
 2537DOPG   D2A52302  21.630  12.040  18.340
 2537DOPG   C3A52303  21.790  11.760  18.100
 2537DOPG   C4A52304  21.970  11.860  17.730
 2537DOPG   C1B52305  20.890  11.790  18.380
 2537DOPG   D2B52306  20.840  11.660  17.970
 2537DOPG   C3B52307  20.960  11.840  17.500
 2537DOPG   C4B52308  20.720  12.110  17.230
 2538DOPG   GL052309  18.040  21.580  22.940
 2538DOPG   PO452310  17.990  21.460  22.490
 2538DOPG   GL152311  18.450  21.320  22.360
 2538DOPG   GL252312  18.590  21.100  22.290
 2538DOPG   C1A52313  18.720  21.480  21.980
 2538DOPG   D2A52314  18.670  21.650  21.600
 2538DOPG   C3A52315  18.510  21.530  21.160
 2538DOPG   C4A52316  18.210  21.720  20.890
 2538DOPG   C1B52317  18.640  20.980  21.950
 2538DOPG   D2B52318  18.680  21.130  21.510
 2538DOPG   C3B52319  18.460  21.050  21.140
 2538DOPG   C4B52320  18.100  21.000  20.830
 2539DOPG   GL052321  22.960  11.720  14.100
 2539DOPG   PO452322  23.260  11.590  14.350
 2539DOPG   GL152323  23.460  11.800  14.710
 2539DOPG   GL252324  23.800  11.690  14.710
 2539DOPG   C1A52325  23.430  12.050  15.010
 2539DOPG   D2A52326  23.430  12.290  15.250
 2539DOPG   C3A52327  23.730  12.360  15.560
 2539DOPG   C4A52328  23.850  12.520  15.920
 2539DOPG   C1B52329  24.170  11.680  14.920
 2539DOPG   D2B52330  24.520  11.620  15.230
 2539DOPG   C3B52331  24.960  11.730  15.230
 2539DOPG   C4B52332  25.380  11.910  15.170
 2540DOPG   GL052333  22.930  14.740   8.640
 2540DOPG   PO452334  23.380  14.850   8.720
 2540DOPG   GL152335  23.240  14.720   9.160
 2540DOPG   GL252336  23.230  14.430   9.380
 2540DOPG   C1A52337  23.370  14.990   9.490
 2540DOPG   D2A52338  23.260  15.320   9.640
 2540DOPG   C3A52339  23.230  15.530  10.120
 2540DOPG   C4A52340  23.550  15.520  10.440
 2540DOPG   C1B52341  23.350  14.260   9.730
 2540DOPG   D2B52342  23.560  14.230  10.110
 2540DOPG   C3B52343  23.580  14.490  10.480
 2540DOPG   C4B52344  23.920  14.710  10.790
 2541DOPG   GL052345  10.370  16.060  15.090
 2541DOPG   PO452346  10.490  16.540  14.910
 2541DOPG   GL152347  10.100  16.930  14.980
 2541DOPG   GL252348   9.780  16.730  15.120
 2541DOPG   C1A52349   9.900  17.270  14.860
 2541DOPG   D2A52350   9.630  17.600  14.650
 2541DOPG   C3A52351   9.170  17.500  14.780
 2541DOPG   C4A52352   8.680  17.440  14.730
 2541DOPG   C1B52353   9.410  16.950  15.170
 2541DOPG   D2B52354   9.240  16.960  15.450
 2541DOPG   C3B52355   8.920  17.120  15.630
 2541DOPG   C4B52356   8.530  17.360  15.860
 2542DOPG   GL052357  13.530   7.540  14.980
 2542DOPG   PO452358  13.620   7.330  15.280
 2542DOPG   GL152359  13.420   6.860  15.110
 2542DOPG   GL252360  13.150   6.910  15.100
 2542DOPG   C1A52361  13.400   6.410  15.150
 2542DOPG   D2A52362  13.230   6.050  14.890
 2542DOPG   C3A52363  12.820   6.010  14.730
 2542DOPG   C4A52364  12.370   5.980  14.810
 2542DOPG   C1B52365  12.880   6.500  15.160
 2542DOPG   D2B52366  12.580   6.260  15.120
 2542DOPG   C3B52367  12.100   6.210  15.200
 2542DOPG   C4B52368  11.650   6.250  15.290
 2543DOPG   GL052369  19.330  13.670   8.330
 2543DOPG   PO452370  19.430  13.250   8.310
 2543DOPG   GL152371  19.470  13.080   8.820
 2543DOPG   GL252372  19.160  13.340   8.840
 2543DOPG   C1A52373  19.380  13.040   9.260
 2543DOPG   D2A52374  19.490  12.790   9.500
 2543DOPG   C3A52375  19.390  12.820   9.900
 2543DOPG   C4A52376  19.100  13.090  10.220
 2543DOPG   C1B52377  19.160  13.530   9.270
 2543DOPG   D2B52378  19.280  13.800   9.640
 2543DOPG   C3B52379  19.090  13.980   9.970
 2543DOPG   C4B52380  18.600  13.930  10.130
 2544DOPG   GL052381  19.990  18.480  13.930
 2544DOPG   PO452382  19.750  18.770  14.110
 2544DOPG   GL152383  19.820  19.070  14.330
 2544DOPG   GL252384  19.620  19.420  14.340
 2544DOPG   C1A52385  19.590  19.230  14.830
 2544DOPG   D2A52386  19.520  19.240  15.220
 2544DOPG   C3A52387  19.800  19.500  15.360
 2544DOPG   C4A52388  19.970  19.370  15.750
 2544DOPG   C1B52389  19.880  19.620  14.540
 2544DOPG   D2B52390  19.970  20.000  14.520
 2544DOPG   C3B52391  20.380  20.110  14.360
 2544DOPG   C4B52392  20.800  20.300  14.180
 2545DOPG   GL052393  21.540   7.490  11.100
 2545DOPG   PO452394  21.240   7.410  10.860
 2545DOPG   GL152395  21.130   7.830  10.960
 2545DOPG   GL252396  21.120   7.750  11.320
 2545DOPG   C1A52397  20.730   8.090  11.150
 2545DOPG   D2A52398  20.710   8.390  11.450
 2545DOPG   C3A52399  20.590   8.680  11.660
 2545DOPG   C4A52400  20.180   8.900  11.910
 2545DOPG   C1B52401  21.130   8.060  11.640
 2545DOPG   D2B52402  21.380   8.420  11.820
 2545DOPG   C3B52403  21.200   8.820  11.850
 2545DOPG   C4B52404  20.930   9.020  11.560
 2546DOPG   GL052405  22.100  12.780  19.450
 2546DOPG   PO452406  21.950  13.170  19.230
 2546DOPG   GL152407  21.850  13.010  18.800
 2546DOPG   GL252408  22.240  12.970  18.750
 2546DOPG   C1A52409  21.810  13.080  18.310
 2546DOPG   D2A52410  22.020  13.480  18.140
 2546DOPG   C3A52411  22.160  13.390  17.730
 2546DOPG   C4A52412  22.020  13.440  17.360
 2546DOPG   C1B52413  22.520  12.840  18.430
 2546DOPG   D2B52414  22.610  12.640  18.040
 2546DOPG   C3B52415  22.360  12.660  17.750
 2546DOPG   C4B52416  22.060  12.410  17.520
 2547DOPG   GL052417  26.110   9.430  12.930
 2547DOPG   PO452418  26.310   9.710  12.990
 2547DOPG   GL152419  26.050   9.920  13.280
 2547DOPG   GL252420  26.200  10.180  13.440
 2547DOPG   C1A52421  25.690  10.110  13.510
 2547DOPG   D2A52422  25.430  10.540  13.460
 2547DOPG   C3A52423  25.120  10.720  13.750
 2547DOPG   C4A52424  25.020  11.040  14.060
 2547DOPG   C1B52425  25.950  10.510  13.780
 2547DOPG   D2B52426  25.680  10.740  13.890
 2547DOPG   C3B52427  25.560  11.070  14.090
 2547DOPG   C4B52428  25.490  11.530  13.890
 2548DOPG   GL052429  21.190  22.210   9.470
 2548DOPG   PO452430  21.300  22.660   9.450
 2548DOPG   GL152431  21.510  22.960   9.230
 2548DOPG   GL252432  21.460  23.220   9.140
 2548DOPG   C1A52433  22.040  23.060   9.180
 2548DOPG   D2A52434  22.350  23.380   9.140
 2548DOPG   C3A52435  22.490  23.630   8.830
 2548DOPG   C4A52436  22.620  23.740   8.340
 2548DOPG   C1B52437  21.290  23.650   9.230
 2548DOPG   D2B52438  21.300  24.100   9.430
 2548DOPG   C3B52439  20.920  24.390   9.190
 2548DOPG   C4B52440  20.790  24.430   8.840
 2549DOPG   GL052441  19.070  17.450  14.230
 2549DOPG   PO452442  19.380  17.560  14.450
 2549DOPG   GL152443  19.250  17.740  14.870
 2549DOPG   GL252444  19.460  17.930  14.990
 2549DOPG   C1A52445  18.920  17.860  15.230
 2549DOPG   D2A52446  18.580  17.680  15.410
 2549DOPG   C3A52447  18.330  18.030  15.610
 2549DOPG   C4A52448  18.240  18.470  15.550
 2549DOPG   C1B52449  19.700  18.040  15.360
 2549DOPG   D2B52450  19.530  17.870  15.720
 2549DOPG   C3B52451  19.200  18.190  15.860
 2549DOPG   C4B52452  19.070  18.490  16.180
 2550DOPG   GL052453  26.750  15.670  12.510
 2550DOPG   PO452454  26.740  15.610  12.060
 2550DOPG   GL152455  26.340  15.780  11.940
 2550DOPG   GL252456  26.350  15.710  11.550
 2550DOPG   C1A52457  25.940  15.790  12.100
 2550DOPG   D2A52458  25.590  15.560  12.100
 2550DOPG   C3A52459  25.500  15.300  11.720
 2550DOPG   C4A52460  25.390  14.900  11.470
 2550DOPG   C1B52461  26.050  15.430  11.820
 2550DOPG   D2B52462  25.830  15.110  12.110
 2550DOPG   C3B52463  25.450  15.170  12.420
 2550DOPG   C4B52464  25.060  14.940  12.550
 2551DOPG   GL052465  21.650   5.590  15.760
 2551DOPG   PO452466  21.870   5.270  15.640
 2551DOPG   GL152467  21.800   4.940  16.000
 2551DOPG   GL252468  21.680   4.680  15.820
 2551DOPG   C1A52469  21.980   4.560  16.270
 2551DOPG   D2A52470  22.180   4.210  16.550
 2551DOPG   C3A52471  21.980   3.880  16.670
 2551DOPG   C4A52472  21.930   3.460  16.410
 2551DOPG   C1B52473  21.800   4.290  15.860
 2551DOPG   D2B52474  21.890   3.910  16.120
 2551DOPG   C3B52475  21.750   3.570  15.920
 2551DOPG   C4B52476  21.620   3.220  15.920
 2552DOPG   GL052477  19.910   6.580  24.210
 2552DOPG   PO452478  20.340   6.780  24.310
 2552DOPG   GL152479  20.240   7.050  23.900
 2552DOPG   GL252480  20.080   7.250  23.610
 2552DOPG   C1A52481  20.540   7.090  23.550
 2552DOPG   D2A52482  20.930   6.860  23.330
 2552DOPG   C3A52483  20.910   6.770  22.910
 2552DOPG   C4A52484  20.860   6.760  22.500
 2552DOPG   C1B52485  20.050   6.860  23.450
 2552DOPG   D2B52486  19.970   6.510  23.250
 2552DOPG   C3B52487  19.680   6.460  22.890
 2552DOPG   C4B52488  19.600   6.370  22.520
 2553DOPG   GL052489  16.790   3.140  20.640
 2553DOPG   PO452490  16.340   3.110  20.500
 2553DOPG   GL152491  16.350   3.370  20.200
 2553DOPG   GL252492  16.050   3.410  19.900
 2553DOPG   C1A52493  16.400   3.760  20.060
 2553DOPG   D2A52494  16.250   4.190  19.980
 2553DOPG   C3A52495  15.950   4.440  20.310
 2553DOPG   C4A52496  15.630   4.790  20.400
 2553DOPG   C1B52497  16.090   3.740  19.520
 2553DOPG   D2B52498  15.930   4.170  19.450
 2553DOPG   C3B52499  16.060   4.530  19.610
 2553DOPG   C4B52500  16.220   4.960  19.440
 2554DOPG   GL052501  18.200   5.670  17.790
 2554DOPG   PO452502  18.520   5.500  17.840
 2554DOPG   GL152503  18.670   5.130  17.810
 2554DOPG   GL252504  18.550   4.880  17.660
 2554DOPG   C1A52505  18.740   4.770  18.160
 2554DOPG   D2A52506  18.980   4.410  18.170
 2554DOPG   C3A52507  18.860   3.910  18.300
 2554DOPG   C4A52508  18.800   3.710  18.620
 2554DOPG   C1B52509  18.590   4.470  17.460
 2554DOPG   D2B52510  18.800   4.070  17.160
 2554DOPG   C3B52511  18.890   4.180  16.780
 2554DOPG   C4B52512  19.000   4.020  16.360
 2555DOPG   GL052513  16.150  16.350  11.960
 2555DOPG   PO452514  16.330  16.020  11.890
 2555DOPG   GL152515  16.320  15.780  11.550
 2555DOPG   GL252516  16.200  15.950  11.320
 2555DOPG   C1A52517  16.600  15.800  11.080
 2555DOPG   D2A52518  16.640  15.720  10.620
 2555DOPG   C3A52519  17.050  15.710  10.420
 2555DOPG   C4A52520  17.490  15.830  10.160
 2555DOPG   C1B52521  15.870  16.230  11.310
 2555DOPG   D2B52522  15.670  16.560  11.630
 2555DOPG   C3B52523  15.350  16.220  11.730
 2555DOPG   C4B52524  14.840  16.300  11.800
 2556DOPG   GL052525  23.390   6.520  13.820
 2556DOPG   PO452526  22.950   6.620  13.760
 2556DOPG   GL152527  22.780   7.000  13.970
 2556DOPG   GL252528  22.450   6.990  14.090
 2556DOPG   C1A52529  22.650   7.460  13.950
 2556DOPG   D2A52530  22.170   7.500  13.830
 2556DOPG   C3A52531  21.880   7.870  13.940
 2556DOPG   C4A52532  21.900   8.260  13.790
 2556DOPG   C1B52533  22.180   7.310  14.280
 2556DOPG   D2B52534  22.280   7.730  14.330
 2556DOPG   C3B52535  22.020   8.030  14.390
 2556DOPG   C4B52536  21.860   8.330  14.260
 2557DOPG   GL052537  18.900  13.060  14.780
 2557DOPG   PO452538  18.750  13.370  14.770
 2557DOPG   GL152539  18.640  13.330  15.150
 2557DOPG   GL252540  18.750  13.520  15.330
 2557DOPG   C1A52541  18.250  13.380  15.410
 2557DOPG   D2A52542  18.080  13.520  15.770
 2557DOPG   C3A52543  18.190  13.290  16.090
 2557DOPG   C4A52544  18.290  13.050  16.580
 2557DOPG   C1B52545  18.620  13.500  15.800
 2557DOPG   D2B52546  18.700  13.050  16.020
 2557DOPG   C3B52547  18.360  12.800  15.980
 2557DOPG   C4B52548  18.080  12.510  15.860
 2558DOPG   GL052549  18.870  12.430  12.240
 2558DOPG   PO452550  18.510  12.600  12.270
 2558DOPG   GL152551  18.230  12.290  12.090
 2558DOPG   GL252552  17.930  12.490  12.010
 2558DOPG   C1A52553  17.780  11.990  11.890
 2558DOPG   D2A52554  17.480  11.640  11.880
 2558DOPG   C3A52555  17.600  11.240  11.800
 2558DOPG   C4A52556  18.070  11.120  11.650
 2558DOPG   C1B52557  17.950  12.380  11.640
 2558DOPG   D2B52558  17.910  12.510  11.220
 2558DOPG   C3B52559  17.650  12.620  10.990
 2558DOPG   C4B52560  17.560  12.640  10.450
 2559DOPG   GL052561  13.840  11.910   9.290
 2559DOPG   PO452562  13.900  12.260   9.100
 2559DOPG   GL152563  13.580  12.170   8.850
 2559DOPG   GL252564  13.390  12.450   8.660
 2559DOPG   C1A52565  13.480  11.840   8.480
 2559DOPG   D2A52566  13.350  11.640   8.100
 2559DOPG   C3A52567  13.550  11.580   7.620
 2559DOPG   C4A52568  13.180  11.650   7.310
 2559DOPG   C1B52569  13.160  12.280   8.420
 2559DOPG   D2B52570  13.110  12.070   8.050
 2559DOPG   C3B52571  12.910  11.690   7.800
 2559DOPG   C4B52572  12.690  11.410   7.460
 2560DOPG   GL052573  22.650  13.270  12.410
 2560DOPG   PO452574  22.260  13.250  12.120
 2560DOPG   GL152575  22.510  13.020  11.900
 2560DOPG   GL252576  22.790  13.000  12.080
 2560DOPG   C1A52577  22.760  12.970  11.460
 2560DOPG   D2A52578  22.940  12.930  11.060
 2560DOPG   C3A52579  23.390  12.870  11.130
 2560DOPG   C4A52580  23.800  12.960  11.190
 2560DOPG   C1B52581  23.150  12.740  11.990
 2560DOPG   D2B52582  23.500  12.440  12.050
 2560DOPG   C3B52583  23.650  12.250  11.590
 2560DOPG   C4B52584  23.820  11.950  11.260
 2561DOPG   GL052585  15.300  13.060  19.650
 2561DOPG   PO452586  15.290  13.430  19.370
 2561DOPG   GL152587  15.180  13.520  19.820
 2561DOPG   GL252588  15.510  13.410  20.030
 2561DOPG   C1A52589  14.930  13.590  20.190
 2561DOPG   D2A52590  14.730  13.250  20.410
 2561DOPG   C3A52591  14.610  13.320  20.830
 2561DOPG   C4A52592  14.490  13.480  21.160
 2561DOPG   C1B52593  15.360  13.510  20.420
 2561DOPG   D2B52594  15.070  13.440  20.720
 2561DOPG   C3B52595  14.890  13.710  20.970
 2561DOPG   C4B52596  15.130  14.000  20.850
 2562DOPG   GL052597  22.990  15.990  14.150
 2562DOPG   PO452598  23.090  15.670  13.830
 2562DOPG   GL152599  23.470  15.950  13.910
 2562DOPG   GL252600  23.490  16.150  13.620
 2562DOPG   C1A52601  23.830  16.200  13.950
 2562DOPG   D2A52602  24.180  16.420  13.950
 2562DOPG   C3A52603  24.580  16.410  14.350
 2562DOPG   C4A52604  24.520  16.420  14.680
 2562DOPG   C1B52605  23.850  16.410  13.450
 2562DOPG   D2B52606  24.200  16.670  13.390
 2562DOPG   C3B52607  24.280  17.120  13.190
 2562DOPG   C4B52608  24.470  17.270  12.760
 2563DOPG   GL052609  22.510  15.320  12.050
 2563DOPG   PO452610  22.500  15.830  12.210
 2563DOPG   GL152611  22.430  15.910  11.760
 2563DOPG   GL252612  22.770  15.710  11.640
 2563DOPG   C1A52613  22.310  15.650  11.310
 2563DOPG   D2A52614  22.320  15.490  10.950
 2563DOPG   C3A52615  22.420  15.050  10.750
 2563DOPG   C4A52616  22.760  14.920  10.530
 2563DOPG   C1B52617  22.960  15.770  11.190
 2563DOPG   D2B52618  23.020  15.780  10.740
 2563DOPG   C3B52619  22.890  15.380  10.430
 2563DOPG   C4B52620  23.080  15.030  10.140
 2564DOPG   GL052621  12.330   4.010  18.830
 2564DOPG   PO452622  12.090   4.390  18.490
 2564DOPG   GL152623  12.240   4.860  18.450
 2564DOPG   GL252624  12.070   4.910  18.190
 2564DOPG   C1A52625  12.540   5.080  18.490
 2564DOPG   D2A52626  12.870   5.160  18.200
 2564DOPG   C3A52627  12.840   5.420  17.890
 2564DOPG   C4A52628  12.580   5.830  17.960
 2564DOPG   C1B52629  12.190   4.650  17.840
 2564DOPG   D2B52630  11.960   4.500  17.470
 2564DOPG   C3B52631  12.090   4.710  17.090
 2564DOPG   C4B52632  12.200   4.810  16.620
 2565DOPG   GL052633  15.260  15.980  13.330
 2565DOPG   PO452634  15.260  15.580  13.010
 2565DOPG   GL152635  14.830  15.410  13.190
 2565DOPG   GL252636  14.880  14.980  13.140
 2565DOPG   C1A52637  14.460  15.640  12.950
 2565DOPG   D2A52638  14.150  15.800  12.800
 2565DOPG   C3A52639  13.830  15.770  13.070
 2565DOPG   C4A52640  13.640  15.600  13.420
 2565DOPG   C1B52641  14.710  15.280  12.730
 2565DOPG   D2B52642  14.310  15.410  12.500
 2565DOPG   C3B52643  14.500  15.410  12.060
 2565DOPG   C4B52644  14.850  15.130  11.910
 2566DOPG   GL052645  15.930  14.120   8.920
 2566DOPG   PO452646  16.200  14.200   8.560
 2566DOPG   GL152647  16.410  14.320   8.880
 2566DOPG   GL252648  16.310  14.530   9.000
 2566DOPG   C1A52649  16.360  14.200   9.410
 2566DOPG   D2A52650  16.580  14.300   9.800
 2566DOPG   C3A52651  16.520  14.300  10.180
 2566DOPG   C4A52652  16.640  14.610  10.530
 2566DOPG   C1B52653  16.040  14.560   9.330
 2566DOPG   D2B52654  15.910  14.860   9.760
 2566DOPG   C3B52655  15.970  15.100  10.140
 2566DOPG   C4B52656  16.390  15.280  10.290
 2567DOPG   GL052657  12.180  11.820  11.580
 2567DOPG   PO452658  12.090  11.840  11.140
 2567DOPG   GL152659  11.970  11.740  10.750
 2567DOPG   GL252660  12.020  11.510  10.490
 2567DOPG   C1A52661  11.650  11.860  10.530
 2567DOPG   D2A52662  11.560  11.770  10.100
 2567DOPG   C3A52663  11.090  11.850  10.040
 2567DOPG   C4A52664  10.630  11.920   9.970
 2567DOPG   C1B52665  11.790  11.340  10.030
 2567DOPG   D2B52666  11.450  11.370   9.610
 2567DOPG   C3B52667  11.390  11.000   9.460
 2567DOPG   C4B52668  11.330  10.640   9.260
 2568DOPG   GL052669  17.390  16.630  11.750
 2568DOPG   PO452670  17.190  16.980  11.550
 2568DOPG   GL152671  17.180  16.960  11.160
 2568DOPG   GL252672  17.460  16.950  10.900
 2568DOPG   C1A52673  16.960  16.710  10.870
 2568DOPG   D2A52674  16.670  16.560  10.660
 2568DOPG   C3A52675  16.270  16.610  10.360
 2568DOPG   C4A52676  15.910  16.500  10.630
 2568DOPG   C1B52677  17.150  17.220  10.700
 2568DOPG   D2B52678  16.790  17.040  10.420
 2568DOPG   C3B52679  16.440  17.250  10.370
 2568DOPG   C4B52680  16.190  17.660  10.470
 2569DOPG   GL052681   8.360   7.110  13.070
 2569DOPG   PO452682   8.470   7.380  13.350
 2569DOPG   GL152683   8.840   7.620  13.340
 2569DOPG   GL252684   8.730   7.830  13.230
 2569DOPG   C1A52685   9.160   7.760  13.490
 2569DOPG   D2A52686   9.570   7.980  13.520
 2569DOPG   C3A52687   9.880   8.120  13.860
 2569DOPG   C4A52688  10.190   8.450  13.910
 2569DOPG   C1B52689   9.080   7.910  13.000
 2569DOPG   D2B52690   9.280   7.470  13.130
 2569DOPG   C3B52691   9.640   7.450  13.320
 2569DOPG   C4B52692   9.840   7.250  13.050
 2570DOPG   GL052693  21.990  14.660  12.060
 2570DOPG   PO452694  22.160  14.990  11.840
 2570DOPG   GL152695  22.290  15.190  11.490
 2570DOPG   GL252696  22.080  15.060  11.270
 2570DOPG   C1A52697  22.740  15.290  11.290
 2570DOPG   D2A52698  22.830  15.340  10.920
 2570DOPG   C3A52699  23.210  15.330  10.890
 2570DOPG   C4A52700  23.520  14.960  11.000
 2570DOPG   C1B52701  22.210  14.690  11.160
 2570DOPG   D2B52702  22.490  14.580  10.970
 2570DOPG   C3B52703  22.560  14.250  10.750
 2570DOPG   C4B52704  22.460  13.800  10.960
 2571DOPG   GL052705  17.540  18.310   7.880
 2571DOPG   PO452706  17.360  18.570   7.550
 2571DOPG   GL152707  17.460  18.390   7.080
 2571DOPG   GL252708  17.300  18.180   6.790
 2571DOPG   C1A52709  17.670  18.600   6.830
 2571DOPG   D2A52710  17.760  18.790   6.400
 2571DOPG   C3A52711  17.750  18.860   5.990
 2571DOPG   C4A52712  17.750  19.010   5.420
 2571DOPG   C1B52713  17.240  18.140   6.380
 2571DOPG   D2B52714  17.340  18.140   5.830
 2571DOPG   C3B52715  17.060  18.220   5.590
 2571DOPG   C4B52716  16.850  18.170   5.190
 2572DOPG   GL052717  14.530  15.680  17.950
 2572DOPG   PO452718  14.370  15.800  17.620
 2572DOPG   GL152719  14.570  15.820  17.220
 2572DOPG   GL252720  14.860  16.030  17.100
 2572DOPG   C1A52721  14.640  15.680  16.810
 2572DOPG   D2A52722  14.960  15.660  16.500
 2572DOPG   C3A52723  15.100  16.150  16.440
 2572DOPG   C4A52724  15.150  16.330  16.130
 2572DOPG   C1B52725  14.600  16.130  16.690
 2572DOPG   D2B52726  14.620  16.030  16.340
 2572DOPG   C3B52727  14.700  16.300  16.000
 2572DOPG   C4B52728  14.280  16.300  15.800
 2573DOPG   GL052729  17.850   0.670  15.470
 2573DOPG   PO452730  17.500   0.830  15.180
 2573DOPG   GL152731  17.820   1.080  15.170
 2573DOPG   GL252732  17.650   1.310  15.330
 2573DOPG   C1A52733  18.150   1.120  15.380
 2573DOPG   D2A52734  18.120   1.540  15.710
 2573DOPG   C3A52735  18.040   1.880  15.500
 2573DOPG   C4A52736  18.210   2.210  15.230
 2573DOPG   C1B52737  17.900   1.550  15.210
 2573DOPG   D2B52738  18.020   1.850  14.920
 2573DOPG   C3B52739  17.870   2.310  14.850
 2573DOPG   C4B52740  17.810   2.710  15.000
 2574DOPG   GL052741  22.400  16.400   8.450
 2574DOPG   PO452742  22.510  16.770   8.340
 2574DOPG   GL152743  22.580  16.770   8.760
 2574DOPG   GL252744  22.830  16.700   8.900
 2574DOPG   C1A52745  22.420  17.130   9.080
 2574DOPG   D2A52746  22.530  17.400   9.450
 2574DOPG   C3A52747  22.850  17.340   9.670
 2574DOPG   C4A52748  22.930  17.200  10.100
 2574DOPG   C1B52749  22.740  16.730   9.300
 2574DOPG   D2B52750  22.730  16.650   9.740
 2574DOPG   C3B52751  22.610  16.770  10.180
 2574DOPG   C4B52752  22.810  16.830  10.560
 2575DOPG   GL052753  10.780  24.210   9.520
 2575DOPG   PO452754  11.070  23.960   9.700
 2575DOPG   GL152755  11.400  23.570   9.770
 2575DOPG   GL252756  11.770  23.600   9.640
 2575DOPG   C1A52757  11.470  23.200  10.020
 2575DOPG   D2A52758  11.320  22.920  10.410
 2575DOPG   C3A52759  10.980  22.730  10.330
 2575DOPG   C4A52760  10.570  22.580  10.340
 2575DOPG   C1B52761  12.090  23.290   9.610
 2575DOPG   D2B52762  12.250  22.940   9.930
 2575DOPG   C3B52763  12.550  22.620  10.180
 2575DOPG   C4B52764  12.740  22.110  10.210
 2576DOPG   GL052765  23.140  13.180  12.580
 2576DOPG   PO452766  22.870  12.840  12.610
 2576DOPG   GL152767  22.820  12.520  12.300
 2576DOPG   GL252768  22.840  12.210  12.440
 2576DOPG   C1A52769  23.000  12.300  11.920
 2576DOPG   D2A52770  23.220  12.060  11.670
 2576DOPG   C3A52771  23.080  11.660  11.520
 2576DOPG   C4A52772  22.690  11.530  11.540
 2576DOPG   C1B52773  23.290  12.040  12.300
 2576DOPG   D2B52774  23.710  11.990  12.050
 2576DOPG   C3B52775  24.100  11.920  12.240
 2576DOPG   C4B52776  24.080  11.950  12.710
 2577DOPG   GL052777  12.700   8.690  16.130
 2577DOPG   PO452778  12.450   8.400  16.240
 2577DOPG   GL152779  12.020   8.320  16.380
 2577DOPG   GL252780  12.000   8.340  16.710
 2577DOPG   C1A52781  11.670   8.020  16.260
 2577DOPG   D2A52782  11.410   7.610  16.120
 2577DOPG   C3A52783  11.040   7.600  16.240
 2577DOPG   C4A52784  10.760   7.270  16.230
 2577DOPG   C1B52785  11.560   8.470  16.550
 2577DOPG   D2B52786  11.260   8.400  16.270
 2577DOPG   C3B52787  10.930   8.620  16.140
 2577DOPG   C4B52788  10.490   8.540  16.100
 2578DOPG   GL052789  13.910  19.710  15.390
 2578DOPG   PO452790  13.930  20.130  15.270
 2578DOPG   GL152791  14.390  20.010  15.320
 2578DOPG   GL252792  14.510  19.870  15.590
 2578DOPG   C1A52793  14.790  19.840  15.190
 2578DOPG   D2A52794  15.000  19.460  15.270
 2578DOPG   C3A52795  15.270  19.120  15.170
 2578DOPG   C4A52796  15.110  18.700  15.050
 2578DOPG   C1B52797  14.330  19.540  15.200
 2578DOPG   D2B52798  14.220  19.160  14.850
 2578DOPG   C3B52799  14.510  19.160  14.460
 2578DOPG   C4B52800  14.810  18.950  14.190
 2579DOPG   GL052801  10.610  11.540  15.770
 2579DOPG   PO452802  10.770  11.180  15.610
 2579DOPG   GL152803  10.510  10.810  15.580
 2579DOPG   GL252804  10.650  10.590  15.600
 2579DOPG   C1A52805  10.150  10.800  15.770
 2579DOPG   D2A52806   9.890  10.530  15.870
 2579DOPG   C3A52807   9.620  10.410  16.170
 2579DOPG   C4A52808   9.600  10.010  16.240
 2579DOPG   C1B52809  10.610  10.290  15.950
 2579DOPG   D2B52810  10.300  10.030  16.060
 2579DOPG   C3B52811   9.880  10.010  15.790
 2579DOPG   C4B52812   9.480  10.180  15.760
 2580DOPG   GL052813  19.990  12.490   8.540
 2580DOPG   PO452814  20.300  12.210   8.380
 2580DOPG   GL152815  20.300  12.110   8.800
 2580DOPG   GL252816  20.520  12.090   8.920
 2580DOPG   C1A52817  19.970  11.950   9.050
 2580DOPG   D2A52818  19.560  11.970   9.110
 2580DOPG   C3A52819  19.620  12.230   9.550
 2580DOPG   C4A52820  19.830  12.400  10.000
 2580DOPG   C1B52821  20.320  12.060   9.370
 2580DOPG   D2B52822  20.260  12.250   9.750
 2580DOPG   C3B52823  20.320  12.470  10.160
 2580DOPG   C4B52824  19.980  12.630  10.430
 2581DOPG   GL052825  26.010  15.290  18.490
 2581DOPG   PO452826  26.350  15.170  18.300
 2581DOPG   GL152827  26.470  15.100  18.750
 2581DOPG   GL252828  26.340  15.210  18.990
 2581DOPG   C1A52829  26.780  15.020  19.010
 2581DOPG   D2A52830  27.080  15.060  19.400
 2581DOPG   C3A52831  27.270  15.470  19.410
 2581DOPG   C4A52832  27.660  15.590  19.520
 2581DOPG   C1B52833  26.630  15.400  19.300
 2581DOPG   D2B52834  26.570  15.730  19.570
 2581DOPG   C3B52835  26.760  15.750  20.030
 2581DOPG   C4B52836  26.580  15.620  20.460
 2582DOPG   GL052837  20.660  22.170  11.470
 2582DOPG   PO452838  20.880  21.830  11.420
 2582DOPG   GL152839  20.860  21.470  11.470
 2582DOPG   GL252840  20.870  21.430  11.760
 2582DOPG   C1A52841  20.580  21.090  11.500
 2582DOPG   D2A52842  20.490  20.700  11.830
 2582DOPG   C3A52843  20.810  20.630  12.240
 2582DOPG   C4A52844  20.980  20.490  12.540
 2582DOPG   C1B52845  20.940  21.350  12.230
 2582DOPG   D2B52846  21.040  21.000  12.560
 2582DOPG   C3B52847  20.690  20.780  12.830
 2582DOPG   C4B52848  20.350  20.690  13.160
 2583DOPG   GL052849  13.940   8.870  18.010
 2583DOPG   PO452850  13.970   8.620  18.420
 2583DOPG   GL152851  13.910   8.360  18.600
 2583DOPG   GL252852  13.970   8.330  18.970
 2583DOPG   C1A52853  13.670   7.960  18.710
 2583DOPG   D2A52854  13.410   7.660  18.930
 2583DOPG   C3A52855  13.080   7.600  19.270
 2583DOPG   C4A52856  12.690   7.570  19.270
 2583DOPG   C1B52857  13.720   8.030  19.240
 2583DOPG   D2B52858  13.650   7.590  19.490
 2583DOPG   C3B52859  13.400   7.230  19.320
 2583DOPG   C4B52860  13.080   7.230  18.950
 2584DOPG   GL052861  17.990  19.110  13.150
 2584DOPG   PO452862  17.770  18.940  12.740
 2584DOPG   GL152863  17.940  19.200  12.420
 2584DOPG   GL252864  17.890  19.060  12.110
 2584DOPG   C1A52865  18.090  19.530  12.210
 2584DOPG   D2A52866  18.290  19.850  12.100
 2584DOPG   C3A52867  18.660  19.880  11.860
 2584DOPG   C4A52868  18.770  19.670  11.410
 2584DOPG   C1B52869  17.900  19.330  11.780
 2584DOPG   D2B52870  17.880  19.400  11.390
 2584DOPG   C3B52871  17.510  19.490  11.250
 2584DOPG   C4B52872  17.080  19.420  11.020
 2585DOPG   GL052873  21.070  11.350  14.230
 2585DOPG   PO452874  21.070  11.390  14.680
 2585DOPG   GL152875  21.130  11.110  15.000
 2585DOPG   GL252876  20.800  11.050  15.170
 2585DOPG   C1A52877  21.380  10.840  15.410
 2585DOPG   D2A52878  21.560  10.870  15.890
 2585DOPG   C3A52879  21.960  11.080  16.040
 2585DOPG   C4A52880  22.100  11.400  16.290
 2585DOPG   C1B52881  20.920  10.650  15.320
 2585DOPG   D2B52882  21.110  10.540  15.690
 2585DOPG   C3B52883  21.010  10.210  16.080
 2585DOPG   C4B52884  21.170   9.820  16.180
 2586DOPG   GL052885  19.490  17.450  11.960
 2586DOPG   PO452886  19.420  17.810  11.630
 2586DOPG   GL152887  19.430  17.730  11.180
 2586DOPG   GL252888  19.520  18.060  11.170
 2586DOPG   C1A52889  19.180  17.450  10.860
 2586DOPG   D2A52890  19.020  17.420  10.520
 2586DOPG   C3A52891  18.910  17.800  10.330
 2586DOPG   C4A52892  18.840  18.260  10.220
 2586DOPG   C1B52893  19.350  18.410  10.990
 2586DOPG   D2B52894  19.520  18.860  10.870
 2586DOPG   C3B52895  19.720  18.960  10.490
 2586DOPG   C4B52896  19.900  19.160  10.150
 2587DOPG   GL052897  22.550   5.110  14.380
 2587DOPG   PO452898  22.250   4.870  14.450
 2587DOPG   GL152899  22.450   4.510  14.430
 2587DOPG   GL252900  22.410   4.330  14.600
 2587DOPG   C1A52901  22.330   4.110  14.150
 2587DOPG   D2A52902  22.320   3.690  14.190
 2587DOPG   C3A52903  22.190   3.660  14.610
 2587DOPG   C4A52904  22.090   3.940  15.010
 2587DOPG   C1B52905  22.650   3.980  14.590
 2587DOPG   D2B52906  23.030   4.280  14.670
 2587DOPG   C3B52907  23.360   4.220  14.400
 2587DOPG   C4B52908  23.660   4.130  14.580
 2588DOPG   GL052909  19.260  12.710  11.990
 2588DOPG   PO452910  18.850  12.900  11.930
 2588DOPG   GL152911  18.620  12.600  11.780
 2588DOPG   GL252912  18.770  12.200  11.850
 2588DOPG   C1A52913  18.530  12.380  11.390
 2588DOPG   D2A52914  18.730  12.120  11.050
 2588DOPG   C3A52915  18.730  11.750  10.780
 2588DOPG   C4A52916  18.540  11.340  10.720
 2588DOPG   C1B52917  18.760  11.920  11.540
 2588DOPG   D2B52918  18.860  11.690  11.240
 2588DOPG   C3B52919  18.760  11.210  11.180
 2588DOPG   C4B52920  18.450  11.090  11.270
 2589DOPG   GL052921  22.350  11.290  15.600
 2589DOPG   PO452922  22.570  11.370  15.240
 2589DOPG   GL152923  22.860  11.590  15.470
 2589DOPG   GL252924  22.900  11.430  15.720
 2589DOPG   C1A52925  23.260  11.820  15.460
 2589DOPG   D2A52926  23.660  11.640  15.290
 2589DOPG   C3A52927  24.000  11.490  15.400
 2589DOPG   C4A52928  24.330  11.450  15.710
 2589DOPG   C1B52929  23.200  11.550  15.910
 2589DOPG   D2B52930  23.600  11.520  15.780
 2589DOPG   C3B52931  23.900  11.490  16.060
 2589DOPG   C4B52932  24.290  11.830  16.060
 2590DOPG   GL052933  23.620  11.840  14.100
 2590DOPG   PO452934  23.840  12.080  14.420
 2590DOPG   GL152935  24.330  12.080  14.480
 2590DOPG   GL252936  24.360  12.180  14.720
 2590DOPG   C1A52937  24.790  12.180  14.370
 2590DOPG   D2A52938  25.050  12.260  14.650
 2590DOPG   C3A52939  24.890  12.390  14.950
 2590DOPG   C4A52940  24.560  12.570  15.100
 2590DOPG   C1B52941  24.620  11.940  14.890
 2590DOPG   D2B52942  24.990  11.740  14.760
 2590DOPG   C3B52943  25.400  11.880  14.640
 2590DOPG   C4B52944  25.700  12.180  14.800
 2591DOPG   GL052945  14.820  17.170   8.200
 2591DOPG   PO452946  14.480  17.360   8.110
 2591DOPG   GL152947  14.270  17.610   7.840
 2591DOPG   GL252948  14.220  17.460   7.480
 2591DOPG   C1A52949  13.890  17.790   7.560
 2591DOPG   D2A52950  13.970  17.930   7.120
 2591DOPG   C3A52951  13.830  18.330   6.910
 2591DOPG   C4A52952  13.760  18.750   6.650
 2591DOPG   C1B52953  13.920  17.350   7.110
 2591DOPG   D2B52954  13.510  17.130   6.970
 2591DOPG   C3B52955  13.160  17.190   7.210
 2591DOPG   C4B52956  13.040  17.240   7.620
 2592DOPG   GL052957  22.410  16.260  14.450
 2592DOPG   PO452958  22.700  16.200  14.550
 2592DOPG   GL152959  23.130  16.210  14.640
 2592DOPG   GL252960  23.240  16.250  14.810
 2592DOPG   C1A52961  23.440  16.140  14.370
 2592DOPG   D2A52962  23.860  15.970  14.400
 2592DOPG   C3A52963  24.230  15.920  14.250
 2592DOPG   C4A52964  24.590  16.030  13.970
 2592DOPG   C1B52965  23.630  16.110  15.010
 2592DOPG   D2B52966  23.970  15.970  15.280
 2592DOPG   C3B52967  24.380  16.070  15.190
 2592DOPG   C4B52968  24.710  15.950  15.450
 2593DOPG   GL052969  20.500  14.870  11.960
 2593DOPG   PO452970  20.650  15.090  11.640
 2593DOPG   GL152971  20.380  15.140  11.420
 2593DOPG   GL252972  20.150  15.380  11.560
 2593DOPG   C1A52973  20.610  15.320  10.970
 2593DOPG   D2A52974  20.570  15.530  10.650
 2593DOPG   C3A52975  20.570  15.890  10.650
 2593DOPG   C4A52976  20.730  16.290  10.690
 2593DOPG   C1B52977  20.160  15.450  11.120
 2593DOPG   D2B52978  20.110  15.420  10.770
 2593DOPG   C3B52979  19.960  14.930  10.800
 2593DOPG   C4B52980  19.740  14.620  10.800
 2594DOPG   GL052981  25.070  19.480  22.900
 2594DOPG   PO452982  24.910  19.230  22.670
 2594DOPG   GL152983  24.670  18.810  22.610
 2594DOPG   GL252984  24.890  18.580  22.630
 2594DOPG   C1A52985  24.440  18.340  22.690
 2594DOPG   D2A52986  24.630  17.940  22.620
 2594DOPG   C3A52987  24.540  17.780  22.320
 2594DOPG   C4A52988  24.150  17.820  22.080
 2594DOPG   C1B52989  24.630  18.330  22.240
 2594DOPG   D2B52990  24.430  18.450  21.860
 2594DOPG   C3B52991  24.190  18.170  21.620
 2594DOPG   C4B52992  24.020  17.850  21.530
 2595DOPG   GL052993  17.130  11.210   8.290
 2595DOPG   PO452994  16.750  11.220   7.980
 2595DOPG   GL152995  16.720  10.860   7.690
 2595DOPG   GL252996  16.740  11.090   7.430
 2595DOPG   C1A52997  16.810  10.700   7.170
 2595DOPG   D2A52998  16.500  10.660   6.900
 2595DOPG   C3A52999  16.690  10.550   6.490
 2595DOPG   C4A53000  16.550  10.210   6.160
 2595DOPG   C1B53001  16.300  11.200   7.310
 2595DOPG   D2B53002  15.820  11.100   7.430
 2595DOPG   C3B53003  15.680  10.930   7.120
 2595DOPG   C4B53004  15.410  10.680   6.980
 2596DOPG   GL053005  17.200   6.430  18.680
 2596DOPG   PO453006  17.530   6.540  18.940
 2596DOPG   GL153007  17.530   6.330  19.200
 2596DOPG   GL253008  17.720   5.980  19.220
 2596DOPG   C1A53009  17.320   6.120  19.530
 2596DOPG   D2A53010  16.990   6.070  19.910
 2596DOPG   C3A53011  17.210   5.780  20.280
 2596DOPG   C4A53012  17.210   5.500  20.500
 2596DOPG   C1B53013  17.680   5.670  19.410
 2596DOPG   D2B53014  17.640   5.200  19.430
 2596DOPG   C3B53015  18.000   5.080  19.250
 2596DOPG   C4B53016  18.470   5.090  19.120
 2597DOPG   GL053017  20.040   6.550  11.860
 2597DOPG   PO453018  19.920   6.880  12.020
 2597DOPG   GL153019  20.170   7.280  12.120
 2597DOPG   GL253020  20.330   7.350  11.800
 2597DOPG   C1A53021  20.120   7.650  12.300
 2597DOPG   D2A53022  20.340   7.960  12.220
 2597DOPG   C3A53023  20.500   8.250  12.370
 2597DOPG   C4A53024  20.670   8.670  12.530
 2597DOPG   C1B53025  20.630   7.590  12.080
 2597DOPG   D2B53026  20.930   7.710  12.480
 2597DOPG   C3B53027  20.820   7.550  12.950
 2597DOPG   C4B53028  20.980   7.310  13.220
 2598DOPG   GL053029  13.120   8.170  13.410
 2598DOPG   PO453030  12.700   8.320  13.240
 2598DOPG   GL153031  12.430   8.110  13.020
 2598DOPG   GL253032  12.670   7.850  12.870
 2598DOPG   C1A53033  12.000   8.070  12.940
 2598DOPG   D2A53034  11.650   7.970  13.080
 2598DOPG   C3A53035  11.540   7.630  13.250
 2598DOPG   C4A53036  11.280   7.390  13.610
 2598DOPG   C1B53037  12.580   7.500  12.820
 2598DOPG   D2B53038  12.440   7.100  12.600
 2598DOPG   C3B53039  12.130   7.100  12.210
 2598DOPG   C4B53040  11.800   6.800  12.260
 2599DOPG   GL053041  21.990   6.870  15.100
 2599DOPG   PO453042  21.650   6.960  14.750
 2599DOPG   GL153043  21.900   7.280  14.720
 2599DOPG   GL253044  22.190   7.410  14.760
 2599DOPG   C1A53045  21.800   7.600  14.360
 2599DOPG   D2A53046  21.500   7.970  14.240
 2599DOPG   C3A53047  21.410   8.160  13.870
 2599DOPG   C4A53048  21.530   8.300  13.460
 2599DOPG   C1B53049  21.900   7.780  14.820
 2599DOPG   D2B53050  21.810   8.180  14.770
 2599DOPG   C3B53051  21.480   8.350  14.630
 2599DOPG   C4B53052  21.370   8.490  14.260
 2600DOPG   GL053053  18.280  21.240  17.250
 2600DOPG   PO453054  18.030  21.000  17.320
 2600DOPG   GL153055  18.030  20.940  16.770
 2600DOPG   GL253056  17.950  20.620  16.880
 2600DOPG   C1A53057  18.050  20.680  16.350
 2600DOPG   D2A53058  17.600  20.600  16.120
 2600DOPG   C3A53059  17.470  20.270  15.900
 2600DOPG   C4A53060  17.140  20.160  15.650
 2600DOPG   C1B53061  17.690  20.370  16.550
 2600DOPG   D2B53062  17.770  20.040  16.310
 2600DOPG   C3B53063  18.200  20.080  16.110
 2600DOPG   C4B53064  18.610  19.890  16.180
 2601DOPG   GL053065  20.440   8.760  18.200
 2601DOPG   PO453066  20.670   8.980  17.840
 2601DOPG   GL153067  20.640   9.340  17.690
 2601DOPG   GL253068  20.370   9.680  17.750
 2601DOPG   C1A53069  20.720   9.530  17.340
 2601DOPG   D2A53070  20.800   9.870  16.990
 2601DOPG   C3A53071  20.630  10.040  16.500
 2601DOPG   C4A53072  20.510  10.310  16.140
 2601DOPG   C1B53073  20.470  10.080  17.600
 2601DOPG   D2B53074  20.550  10.240  17.230
 2601DOPG   C3B53075  21.030  10.430  17.080
 2601DOPG   C4B53076  21.510  10.390  16.740
 2602DOPG   GL053077  25.350   7.160  13.940
 2602DOPG   PO453078  25.740   7.270  13.920
 2602DOPG   GL153079  26.040   7.030  14.120
 2602DOPG   GL253080  26.160   6.890  13.890
 2602DOPG   C1A53081  26.450   6.710  14.220
 2602DOPG   D2A53082  26.740   6.470  14.510
 2602DOPG   C3A53083  26.970   6.190  14.310
 2602DOPG   C4A53084  27.430   6.240  14.110
 2602DOPG   C1B53085  26.470   6.450  13.760
 2602DOPG   D2B53086  26.570   5.960  13.910
 2602DOPG   C3B53087  26.940   5.720  13.980
 2602DOPG   C4B53088  27.120   5.320  14.270
 2603DOPG   GL053089  21.540  20.780  18.100
 2603DOPG   PO453090  21.060  20.910  18.150
 2603DOPG   GL153091  21.030  21.110  18.470
 2603DOPG   GL253092  20.820  21.040  18.760
 2603DOPG   C1A53093  21.260  21.450  18.720
 2603DOPG   D2A53094  21.430  21.810  18.870
 2603DOPG   C3A53095  21.580  22.070  19.260
 2603DOPG   C4A53096  21.790  22.200  19.650
 2603DOPG   C1B53097  20.810  21.420  19.180
 2603DOPG   D2B53098  20.660  21.590  19.490
 2603DOPG   C3B53099  20.840  21.720  19.820
 2603DOPG   C4B53100  21.070  21.460  20.040
 2604DOPG   GL053101  21.570  15.970   8.400
 2604DOPG   PO453102  21.530  16.360   8.260
 2604DOPG   GL153103  21.650  16.400   8.710
 2604DOPG   GL253104  21.770  16.170   8.870
 2604DOPG   C1A53105  21.310  16.340   9.100
 2604DOPG   D2A53106  21.240  16.260   9.450
 2604DOPG   C3A53107  21.110  16.610   9.770
 2604DOPG   C4A53108  21.310  17.020   9.970
 2604DOPG   C1B53109  22.000  16.220   9.300
 2604DOPG   D2B53110  21.850  16.370   9.590
 2604DOPG   C3B53111  21.840  16.800   9.780
 2604DOPG   C4B53112  21.820  17.010  10.220
 2605DOPG   GL053113  11.930  17.970  11.380
 2605DOPG   PO453114  11.620  17.960  11.010
 2605DOPG   GL153115  11.410  18.170  10.640
 2605DOPG   GL253116  11.070  18.110  10.620
 2605DOPG   C1A53117  11.250  18.470  10.350
 2605DOPG   D2A53118  10.980  18.900  10.310
 2605DOPG   C3A53119  10.840  19.310  10.040
 2605DOPG   C4A53120  10.680  19.690   9.880
 2605DOPG   C1B53121  10.600  18.020  10.450
 2605DOPG   D2B53122  10.310  17.730  10.360
 2605DOPG   C3B53123  10.330  17.520  10.020
 2605DOPG   C4B53124  10.310  17.120   9.690
 2606DOPG   GL053125  24.430  14.160  14.810
 2606DOPG   PO453126  24.440  14.440  14.470
 2606DOPG   GL153127  24.770  14.620  14.370
 2606DOPG   GL253128  24.690  14.600  14.000
 2606DOPG   C1A53129  25.260  14.850  14.330
 2606DOPG   D2A53130  25.400  15.290  14.330
 2606DOPG   C3A53131  25.630  15.470  14.530
 2606DOPG   C4A53132  25.740  15.720  14.850
 2606DOPG   C1B53133  25.200  14.560  13.950
 2606DOPG   D2B53134  25.640  14.590  14.040
 2606DOPG   C3B53135  25.970  14.710  13.870
 2606DOPG   C4B53136  26.340  14.630  13.590
 2607DOPG   GL053137  20.280  12.330  15.490
 2607DOPG   PO453138  20.550  12.660  15.390
 2607DOPG   GL153139  20.400  12.790  15.740
 2607DOPG   GL253140  20.410  12.510  15.960
 2607DOPG   C1A53141  20.520  12.850  16.320
 2607DOPG   D2A53142  20.580  12.510  16.670
 2607DOPG   C3A53143  20.700  12.620  17.140
 2607DOPG   C4A53144  20.720  13.040  17.270
 2607DOPG   C1B53145  20.090  12.260  15.960
 2607DOPG   D2B53146  19.860  11.960  16.180
 2607DOPG   C3B53147  19.570  11.710  16.330
 2607DOPG   C4B53148  19.290  11.460  16.620
 2608DOPG   GL053149  12.160  24.780  16.670
 2608DOPG   PO453150  12.080  24.400  17.000
 2608DOPG   GL153151  11.970  23.990  16.800
 2608DOPG   GL253152  11.750  23.910  16.580
 2608DOPG   C1A53153  12.130  23.580  16.480
 2608DOPG   D2A53154  12.270  23.150  16.330
 2608DOPG   C3A53155  12.400  22.770  16.490
 2608DOPG   C4A53156  12.690  22.390  16.650
 2608DOPG   C1B53157  11.740  23.730  16.150
 2608DOPG   D2B53158  11.980  23.380  15.910
 2608DOPG   C3B53159  12.320  23.230  15.840
 2608DOPG   C4B53160  12.610  22.900  16.020
 2609DOPG   GL053161  18.490  16.820  14.490
 2609DOPG   PO453162  18.690  16.890  14.820
 2609DOPG   GL153163  18.840  17.100  15.240
 2609DOPG   GL253164  19.160  17.190  15.280
 2609DOPG   C1A53165  18.840  17.300  15.670
 2609DOPG   D2A53166  19.080  17.690  15.740
 2609DOPG   C3A53167  19.260  17.770  16.130
 2609DOPG   C4A53168  19.350  17.590  16.540
 2609DOPG   C1B53169  19.530  17.440  15.510
 2609DOPG   D2B53170  19.990  17.680  15.460
 2609DOPG   C3B53171  20.160  18.020  15.690
 2609DOPG   C4B53172  20.220  18.060  16.120
 2610DOPG   GL053173  26.140  15.510  10.010
 2610DOPG   PO453174  26.190  15.130  10.130
 2610DOPG   GL153175  25.930  15.200  10.440
 2610DOPG   GL253176  25.950  15.270  10.700
 2610DOPG   C1A53177  25.500  15.370  10.590
 2610DOPG   D2A53178  25.040  15.400  10.720
 2610DOPG   C3A53179  24.830  14.910  10.530
 2610DOPG   C4A53180  24.480  14.560  10.310
 2610DOPG   C1B53181  25.700  15.090  10.980
 2610DOPG   D2B53182  25.360  15.340  11.120
 2610DOPG   C3B53183  25.050  15.290  11.560
 2610DOPG   C4B53184  24.910  14.890  11.670
 2611DOPG   GL053185  23.240  11.910   8.720
 2611DOPG   PO453186  23.300  11.550   8.900
 2611DOPG   GL153187  23.290  11.770   9.270
 2611DOPG   GL253188  23.570  11.930   9.500
 2611DOPG   C1A53189  23.290  11.550   9.650
 2611DOPG   D2A53190  23.230  11.300  10.030
 2611DOPG   C3A53191  22.940  11.440  10.390
 2611DOPG   C4A53192  22.580  11.580  10.440
 2611DOPG   C1B53193  23.430  12.000   9.960
 2611DOPG   D2B53194  23.150  11.840  10.200
 2611DOPG   C3B53195  22.790  12.070  10.150
 2611DOPG   C4B53196  22.450  12.090  10.400
 2612DOPG   GL053197  17.670   5.690  12.820
 2612DOPG   PO453198  17.500   5.380  12.920
 2612DOPG   GL153199  17.290   5.010  12.740
 2612DOPG   GL253200  17.480   4.740  12.830
 2612DOPG   C1A53201  17.040   4.880  12.410
 2612DOPG   D2A53202  16.640   4.860  12.240
 2612DOPG   C3A53203  16.470   4.450  12.490
 2612DOPG   C4A53204  16.360   3.980  12.270
 2612DOPG   C1B53205  17.470   4.530  12.520
 2612DOPG   D2B53206  17.360   4.680  12.130
 2612DOPG   C3B53207  17.390   4.420  11.860
 2612DOPG   C4B53208  17.750   4.210  11.560
 2613DOPG   GL053209  19.800  10.560  12.250
 2613DOPG   PO453210  20.000  10.910  12.340
 2613DOPG   GL153211  20.080  10.940  11.890
 2613DOPG   GL253212  19.730  11.040  11.880
 2613DOPG   C1A53213  20.110  10.830  11.480
 2613DOPG   D2A53214  20.240  10.550  11.260
 2613DOPG   C3A53215  20.160  10.100  11.110
 2613DOPG   C4A53216  20.060   9.670  11.300
 2613DOPG   C1B53217  19.740  10.570  11.770
 2613DOPG   D2B53218  19.840  10.130  11.620
 2613DOPG   C3B53219  19.960   9.820  11.790
 2613DOPG   C4B53220  20.060   9.430  11.970
 2614DOPG   GL053221  11.800  16.980  17.150
 2614DOPG   PO453222  12.200  16.980  17.200
 2614DOPG   GL153223  12.030  17.070  17.610
 2614DOPG   GL253224  12.060  17.440  17.830
 2614DOPG   C1A53225  11.870  17.030  18.050
 2614DOPG   D2A53226  11.920  17.140  18.470
 2614DOPG   C3A53227  11.730  17.280  18.770
 2614DOPG   C4A53228  11.310  17.350  18.860
 2614DOPG   C1B53229  11.850  17.620  18.230
 2614DOPG   D2B53230  11.510  17.730  18.510
 2614DOPG   C3B53231  11.070  17.880  18.510
 2614DOPG   C4B53232  10.670  18.150  18.590
 2615DOPG   GL053233  14.580  22.350  14.350
 2615DOPG   PO453234  14.210  22.350  14.460
 2615DOPG   GL153235  14.310  22.880  14.520
 2615DOPG   GL253236  13.980  22.890  14.670
 2615DOPG   C1A53237  14.360  23.260  14.370
 2615DOPG   D2A53238  14.100  23.510  14.560
 2615DOPG   C3A53239  14.150  23.910  14.630
 2615DOPG   C4A53240  14.240  24.360  14.720
 2615DOPG   C1B53241  13.780  22.820  15.120
 2615DOPG   D2B53242  13.430  23.030  15.450
 2615DOPG   C3B53243  13.410  23.390  15.630
 2615DOPG   C4B53244  13.330  23.710  15.490
 2616DOPG   GL053245  13.960  19.990  10.250
 2616DOPG   PO453246  14.180  20.180  10.550
 2616DOPG   GL153247  14.540  20.050  10.740
 2616DOPG   GL253248  14.720  19.800  10.690
 2616DOPG   C1A53249  14.930  20.090  10.990
 2616DOPG   D2A53250  15.330  19.980  11.190
 2616DOPG   C3A53251  15.390  19.650  11.530
 2616DOPG   C4A53252  15.740  19.300  11.720
 2616DOPG   C1B53253  14.710  19.420  10.700
 2616DOPG   D2B53254  14.630  19.080  10.950
 2616DOPG   C3B53255  14.980  19.040  11.260
 2616DOPG   C4B53256  15.280  18.910  11.650
 2617DOPG   GL053257  20.390  18.370  12.850
 2617DOPG   PO453258  20.590  18.520  12.510
 2617DOPG   GL153259  20.710  18.890  12.700
 2617DOPG   GL253260  20.940  18.980  12.510
 2617DOPG   C1A53261  20.550  19.330  12.680
 2617DOPG   D2A53262  20.930  19.620  12.780
 2617DOPG   C3A53263  20.650  20.000  12.930
 2617DOPG   C4A53264  20.480  20.220  12.950
 2617DOPG   C1B53265  21.350  18.960  12.330
 2617DOPG   D2B53266  21.630  19.350  12.080
 2617DOPG   C3B53267  22.070  19.300  11.990
 2617DOPG   C4B53268  22.430  19.640  11.950
 2618DOPG   GL053269  19.940  18.500  13.010
 2618DOPG   PO453270  19.750  18.690  12.640
 2618DOPG   GL153271  19.810  19.110  12.510
 2618DOPG   GL253272  19.810  19.060  12.160
 2618DOPG   C1A53273  19.940  19.510  12.260
 2618DOPG   D2A53274  19.890  19.610  11.710
 2618DOPG   C3A53275  19.710  20.020  11.550
 2618DOPG   C4A53276  19.790  20.430  11.710
 2618DOPG   C1B53277  20.160  19.110  11.850
 2618DOPG   D2B53278  20.180  18.670  11.540
 2618DOPG   C3B53279  20.150  18.820  11.150
 2618DOPG   C4B53280  19.990  19.120  10.900
 2619DOPG   GL053281  25.200  16.380  17.580
 2619DOPG   PO453282  24.990  16.700  17.900
 2619DOPG   GL153283  24.670  16.460  17.700
 2619DOPG   GL253284  24.490  16.620  17.530
 2619DOPG   C1A53285  24.370  16.110  17.420
 2619DOPG   D2A53286  24.070  16.090  17.510
 2619DOPG   C3A53287  23.760  16.080  17.200
 2619DOPG   C4A53288  23.640  15.770  16.880
 2619DOPG   C1B53289  24.230  16.520  17.190
 2619DOPG   D2B53290  24.120  16.490  16.800
 2619DOPG   C3B53291  23.930  16.210  16.700
 2619DOPG   C4B53292  23.830  15.930  16.410
 2620DOPG   GL053293   7.000  12.140  11.650
 2620DOPG   PO453294   6.660  12.340  11.880
 2620DOPG   GL153295   7.030  12.430  12.050
 2620DOPG   GL253296   7.180  12.500  12.430
 2620DOPG   C1A53297   7.370  12.180  12.020
 2620DOPG   D2A53298   7.540  12.140  11.640
 2620DOPG   C3A53299   7.870  12.400  11.360
 2620DOPG   C4A53300   8.050  12.830  11.550
 2620DOPG   C1B53301   7.570  12.620  12.340
 2620DOPG   D2B53302   7.920  12.780  12.120
 2620DOPG   C3B53303   8.080  13.100  12.370
 2620DOPG   C4B53304   8.360  13.470  12.280
 2621DOPG   GL053305  21.520  22.560   9.980
 2621DOPG   PO453306  21.590  22.180   9.780
 2621DOPG   GL153307  21.900  22.390   9.570
 2621DOPG   GL253308  21.800  22.700   9.530
 2621DOPG   C1A53309  22.060  22.300   9.150
 2621DOPG   D2A53310  22.350  22.080   8.890
 2621DOPG   C3A53311  22.620  22.390   8.670
 2621DOPG   C4A53312  22.650  22.770   8.430
 2621DOPG   C1B53313  21.770  23.270   9.540
 2621DOPG   D2B53314  21.830  23.540   9.150
 2621DOPG   C3B53315  21.770  23.890   9.120
 2621DOPG   C4B53316  21.830  24.180   9.350
 2622DOPG   GL053317  20.020   9.750  24.980
 2622DOPG   PO453318  19.770   9.590  24.550
 2622DOPG   GL153319  19.880   9.690  24.020
 2622DOPG   GL253320  19.620   9.480  24.020
 2622DOPG   C1A53321  19.600   9.900  23.710
 2622DOPG   D2A53322  19.180  10.070  23.670
 2622DOPG   C3A53323  18.850  10.030  23.370
 2622DOPG   C4A53324  18.420  10.050  23.240
 2622DOPG   C1B53325  19.790   9.270  23.640
 2622DOPG   D2B53326  19.950   9.150  23.310
 2622DOPG   C3B53327  19.890   9.250  22.880
 2622DOPG   C4B53328  19.840   9.300  22.530
 2623DOPG   GL053329  20.200  10.880  13.580
 2623DOPG   PO453330  20.020  10.610  13.130
 2623DOPG   GL153331  19.890  10.340  12.900
 2623DOPG   GL253332  20.110  10.250  12.620
 2623DOPG   C1A53333  19.620  10.040  12.590
 2623DOPG   D2A53334  19.290   9.930  12.400
 2623DOPG   C3A53335  19.050   9.530  12.410
 2623DOPG   C4A53336  19.180   9.170  12.260
 2623DOPG   C1B53337  19.990  10.060  12.210
 2623DOPG   D2B53338  19.530  10.130  11.970
 2623DOPG   C3B53339  19.400  10.270  11.540
 2623DOPG   C4B53340  19.120  10.200  11.270
 2624DOPG   GL053341  12.820  15.660  17.540
 2624DOPG   PO453342  12.640  15.860  17.870
 2624DOPG   GL153343  12.560  15.870  18.220
 2624DOPG   GL253344  12.450  15.590  18.280
 2624DOPG   C1A53345  12.510  16.050  18.630
 2624DOPG   D2A53346  12.290  16.230  19.070
 2624DOPG   C3A53347  12.100  16.190  19.440
 2624DOPG   C4A53348  11.920  16.150  19.890
 2624DOPG   C1B53349  12.010  15.770  18.440
 2624DOPG   D2B53350  11.590  15.910  18.560
 2624DOPG   C3B53351  11.420  16.280  18.560
 2624DOPG   C4B53352  11.110  16.410  18.890
 2625DOPG   GL053353  25.820  25.080  10.410
 2625DOPG   PO453354  26.110  25.350  10.720
 2625DOPG   GL153355  25.800  25.100  11.010
 2625DOPG   GL253356  25.550  24.860  10.800
 2625DOPG   C1A53357  25.570  24.850  11.280
 2625DOPG   D2A53358  25.550  24.400  11.430
 2625DOPG   C3A53359  25.290  24.000  11.280
 2625DOPG   C4A53360  25.330  23.560  11.020
 2625DOPG   C1B53361  25.140  24.900  11.110
 2625DOPG   D2B53362  24.860  24.390  11.120
 2625DOPG   C3B53363  24.550  24.290  10.810
 2625DOPG   C4B53364  24.130  24.190  10.530
 2626DOPG   GL053365  26.490   9.940  18.170
 2626DOPG   PO453366  26.380   9.820  18.540
 2626DOPG   GL153367  26.580   9.670  18.920
 2626DOPG   GL253368  26.560  10.020  19.140
 2626DOPG   C1A53369  26.530   9.510  19.290
 2626DOPG   D2A53370  26.560   9.100  19.550
 2626DOPG   C3A53371  26.930   8.930  19.630
 2626DOPG   C4A53372  27.350   9.160  19.540
 2626DOPG   C1B53373  26.910   9.870  19.330
 2626DOPG   D2B53374  27.220   9.850  19.680
 2626DOPG   C3B53375  27.270  10.210  19.440
 2626DOPG   C4B53376  27.500  10.150  18.980
 2627DOPG   GL053377  23.090  22.220  12.940
 2627DOPG   PO453378  23.360  22.510  13.070
 2627DOPG   GL153379  23.830  22.430  13.110
 2627DOPG   GL253380  24.120  22.390  12.830
 2627DOPG   C1A53381  24.170  22.710  13.190
 2627DOPG   D2A53382  24.590  22.780  13.240
 2627DOPG   C3A53383  24.660  23.150  13.290
 2627DOPG   C4A53384  25.060  23.220  13.510
 2627DOPG   C1B53385  24.410  22.620  12.740
 2627DOPG   D2B53386  24.700  22.940  12.750
 2627DOPG   C3B53387  24.910  23.330  12.750
 2627DOPG   C4B53388  25.090  23.520  13.030
 2628DOPG   GL053389  16.110   9.030  13.480
 2628DOPG   PO453390  16.100   9.090  13.050
 2628DOPG   GL153391  16.500   9.260  12.890
 2628DOPG   GL253392  16.410   9.400  12.650
 2628DOPG   C1A53393  16.990   9.500  12.870
 2628DOPG   D2A53394  17.380   9.310  13.000
 2628DOPG   C3A53395  17.580   8.920  13.000
 2628DOPG   C4A53396  17.790   8.650  12.770
 2628DOPG   C1B53397  16.520   9.770  12.690
 2628DOPG   D2B53398  16.410   9.850  13.010
 2628DOPG   C3B53399  16.720  10.150  13.280
 2628DOPG   C4B53400  17.000  10.180  13.550
 2629DOPG   GL053401  19.590  14.480  15.260
 2629DOPG   PO453402  19.200  14.580  15.290
 2629DOPG   GL153403  18.870  14.510  15.600
 2629DOPG   GL253404  18.700  14.750  15.550
 2629DOPG   C1A53405  18.650  14.380  15.950
 2629DOPG   D2A53406  18.410  14.470  16.270
 2629DOPG   C3A53407  18.530  14.760  16.460
 2629DOPG   C4A53408  18.690  15.140  16.580
 2629DOPG   C1B53409  18.520  14.880  16.020
 2629DOPG   D2B53410  18.060  14.860  16.280
 2629DOPG   C3B53411  17.790  15.180  16.380
 2629DOPG   C4B53412  17.430  15.410  16.290
 2630DOPG   GL053413  20.420  11.030  20.530
 2630DOPG   PO453414  20.150  11.240  20.740
 2630DOPG   GL153415  19.970  11.250  21.120
 2630DOPG   GL253416  20.020  11.090  21.420
 2630DOPG   C1A53417  20.000  11.530  21.470
 2630DOPG   D2A53418  19.720  11.700  21.750
 2630DOPG   C3A53419  19.730  11.770  22.150
 2630DOPG   C4A53420  19.450  11.830  22.560
 2630DOPG   C1B53421  19.930  11.170  21.860
 2630DOPG   D2B53422  20.090  10.910  22.240
 2630DOPG   C3B53423  20.340  10.820  22.590
 2630DOPG   C4B53424  20.680  10.440  22.510
 2631DOPG   GL053425  22.950  11.260  12.880
 2631DOPG   PO453426  23.340  11.370  13.060
 2631DOPG   GL153427  23.560  10.960  13.360
 2631DOPG   GL253428  23.640  10.960  13.720
 2631DOPG   C1A53429  23.750  10.570  13.280
 2631DOPG   D2A53430  24.020  10.250  13.430
 2631DOPG   C3A53431  23.980   9.810  13.490
 2631DOPG   C4A53432  24.260   9.450  13.720
 2631DOPG   C1B53433  24.110  11.050  13.630
 2631DOPG   D2B53434  24.490  10.950  13.890
 2631DOPG   C3B53435  24.580  11.050  14.360
 2631DOPG   C4B53436  24.630  11.360  14.730
 2632DOPG   GL053437  16.190  15.970  13.500
 2632DOPG   PO453438  15.790  16.190  13.370
 2632DOPG   GL153439  15.450  16.490  13.280
 2632DOPG   GL253440  15.380  16.820  13.520
 2632DOPG   C1A53441  15.160  16.370  13.000
 2632DOPG   D2A53442  14.860  15.980  12.960
 2632DOPG   C3A53443  14.710  15.740  12.540
 2632DOPG   C4A53444  14.910  15.540  12.250
 2632DOPG   C1B53445  14.990  16.730  13.360
 2632DOPG   D2B53446  14.700  16.500  13.040
 2632DOPG   C3B53447  14.400  16.140  13.100
 2632DOPG   C4B53448  14.210  15.810  13.340
 2633DOPG   GL053449  15.860  16.770  13.490
 2633DOPG   PO453450  15.710  16.830  13.940
 2633DOPG   GL153451  15.320  16.940  14.230
 2633DOPG   GL253452  15.390  16.910  14.570
 2633DOPG   C1A53453  14.990  17.150  14.310
 2633DOPG   D2A53454  14.740  17.440  14.140
 2633DOPG   C3A53455  14.500  17.410  14.370
 2633DOPG   C4A53456  14.390  17.220  14.760
 2633DOPG   C1B53457  15.350  16.720  14.920
 2633DOPG   D2B53458  15.130  16.790  15.280
 2633DOPG   C3B53459  15.260  17.070  15.650
 2633DOPG   C4B53460  15.190  17.350  15.940
 2634DOPG   GL053461  24.170  12.610  13.580
 2634DOPG   PO453462  24.310  12.190  13.550
 2634DOPG   GL153463  24.510  11.800  13.510
 2634DOPG   GL253464  24.290  11.570  13.650
 2634DOPG   C1A53465  24.750  11.500  13.800
 2634DOPG   D2A53466  25.130  11.350  13.610
 2634DOPG   C3A53467  25.070  11.190  13.240
 2634DOPG   C4A53468  24.720  11.040  13.040
 2634DOPG   C1B53469  24.540  11.310  13.420
 2634DOPG   D2B53470  24.680  10.870  13.450
 2634DOPG   C3B53471  24.960  10.610  13.160
 2634DOPG   C4B53472  25.190  10.640  12.790
 2635DOPG   GL053473  17.110  14.330  13.170
 2635DOPG   PO453474  16.870  14.000  13.510
 2635DOPG   GL153475  16.510  13.690  13.420
 2635DOPG   GL253476  16.200  13.660  13.210
 2635DOPG   C1A53477  16.300  13.450  13.850
 2635DOPG   D2A53478  16.340  13.030  13.940
 2635DOPG   C3A53479  16.540  12.700  13.880
 2635DOPG   C4A53480  16.590  12.340  14.190
 2635DOPG   C1B53481  15.820  13.510  13.040
 2635DOPG   D2B53482  15.430  13.530  12.900
 2635DOPG   C3B53483  15.060  13.680  13.000
 2635DOPG   C4B53484  14.960  13.580  13.410
 2636DOPG   GL053485  19.060   7.310  19.550
 2636DOPG   PO453486  19.140   7.210  19.900
 2636DOPG   GL153487  19.500   7.110  20.230
 2636DOPG   GL253488  19.240   7.290  20.420
 2636DOPG   C1A53489  19.670   6.600  20.360
 2636DOPG   D2A53490  19.830   6.110  20.310
 2636DOPG   C3A53491  19.790   5.870  20.640
 2636DOPG   C4A53492  19.780   5.650  21.040
 2636DOPG   C1B53493  19.130   7.060  20.840
 2636DOPG   D2B53494  19.400   7.000  21.170
 2636DOPG   C3B53495  19.390   6.500  21.280
 2636DOPG   C4B53496  19.620   6.120  21.300
 2637DOPG   GL053497  12.430  16.820  15.500
 2637DOPG   PO453498  12.280  17.240  15.370
 2637DOPG   GL153499  12.530  17.130  15.100
 2637DOPG   GL253500  12.680  17.440  15.140
 2637DOPG   C1A53501  12.900  16.920  14.990
 2637DOPG   D2A53502  13.200  16.830  14.800
 2637DOPG   C3A53503  13.280  16.380  14.730
 2637DOPG   C4A53504  13.550  16.050  14.530
 2637DOPG   C1B53505  12.950  17.360  14.830
 2637DOPG   D2B53506  13.090  17.660  14.500
 2637DOPG   C3B53507  13.500  17.610  14.340
 2637DOPG   C4B53508  13.930  17.490  14.380
 2638DOPG   GL053509  21.480  22.340  15.910
 2638DOPG   PO453510  21.420  22.810  15.870
 2638DOPG   GL153511  21.450  23.090  16.220
 2638DOPG   GL253512  21.520  23.140  16.490
 2638DOPG   C1A53513  21.620  23.520  16.240
 2638DOPG   D2A53514  21.860  23.900  16.380
 2638DOPG   C3A53515  22.040  23.870  16.730
 2638DOPG   C4A53516  22.280  23.740  16.790
 2638DOPG   C1B53517  21.740  23.090  16.820
 2638DOPG   D2B53518  21.970  23.350  17.030
 2638DOPG   C3B53519  22.350  23.270  17.310
 2638DOPG   C4B53520  22.550  23.620  17.400
 2639DOPG   GL053521  19.870  16.020  14.620
 2639DOPG   PO453522  19.740  15.870  15.020
 2639DOPG   GL153523  19.440  16.080  15.530
 2639DOPG   GL253524  19.140  15.880  15.580
 2639DOPG   C1A53525  19.480  16.090  15.930
 2639DOPG   D2A53526  19.430  16.350  16.310
 2639DOPG   C3A53527  19.500  16.180  16.730
 2639DOPG   C4A53528  19.600  16.250  17.190
 2639DOPG   C1B53529  19.040  15.670  16.030
 2639DOPG   D2B53530  19.260  15.830  16.360
 2639DOPG   C3B53531  18.960  16.110  16.400
 2639DOPG   C4B53532  18.660  16.330  16.540
 2640DOPG   GL053533  18.790  12.560  14.540
 2640DOPG   PO453534  18.850  12.620  14.960
 2640DOPG   GL153535  18.690  12.830  15.290
 2640DOPG   GL253536  18.770  12.970  15.510
 2640DOPG   C1A53537  18.280  12.870  15.520
 2640DOPG   D2A53538  17.870  13.130  15.610
 2640DOPG   C3A53539  17.450  13.260  15.880
 2640DOPG   C4A53540  17.060  13.130  15.900
 2640DOPG   C1B53541  18.620  12.460  15.560
 2640DOPG   D2B53542  18.560  12.050  15.740
 2640DOPG   C3B53543  18.880  11.760  15.880
 2640DOPG   C4B53544  19.030  11.480  16.210
 2641DOPG   GL053545  28.790   7.620  21.180
 2641DOPG   PO453546  28.540   7.980  21.370
 2641DOPG   GL153547  28.340   8.250  21.050
 2641DOPG   GL253548  28.110   8.370  21.270
 2641DOPG   C1A53549  28.130   8.410  20.690
 2641DOPG   D2A53550  27.780   8.160  20.460
 2641DOPG   C3A53551  27.380   8.320  20.120
 2641DOPG   C4A53552  27.050   8.310  19.800
 2641DOPG   C1B53553  27.810   8.220  20.980
 2641DOPG   D2B53554  27.630   7.900  20.990
 2641DOPG   C3B53555  27.390   7.620  20.720
 2641DOPG   C4B53556  26.980   7.800  20.400
 2642DOPG   GL053557  16.870  16.620  19.580
 2642DOPG   PO453558  16.620  16.750  19.890
 2642DOPG   GL153559  16.440  17.040  20.130
 2642DOPG   GL253560  16.110  17.010  19.980
 2642DOPG   C1A53561  16.630  17.010  20.580
 2642DOPG   D2A53562  16.580  17.110  20.910
 2642DOPG   C3A53563  16.650  16.780  21.230
 2642DOPG   C4A53564  16.870  16.650  21.640
 2642DOPG   C1B53565  15.870  17.260  20.210
 2642DOPG   D2B53566  15.720  17.340  20.610
 2642DOPG   C3B53567  16.040  17.350  20.960
 2642DOPG   C4B53568  16.310  17.250  21.410
 2643DOPG   GL053569  16.170  16.130  12.950
 2643DOPG   PO453570  15.960  15.870  12.650
 2643DOPG   GL153571  15.570  15.690  12.510
 2643DOPG   GL253572  15.390  15.490  12.460
 2643DOPG   C1A53573  15.190  15.940  12.470
 2643DOPG   D2A53574  14.820  16.240  12.570
 2643DOPG   C3A53575  14.830  16.730  12.360
 2643DOPG   C4A53576  14.800  17.080  12.340
 2643DOPG   C1B53577  15.190  15.110  12.270
 2643DOPG   D2B53578  14.780  14.840  12.340
 2643DOPG   C3B53579  14.350  14.920  12.220
 2643DOPG   C4B53580  13.940  14.850  12.010
 2644DOPG   GL053581  11.470  13.240  22.490
 2644DOPG   PO453582  11.720  12.990  22.530
 2644DOPG   GL153583  11.690  12.830  22.090
 2644DOPG   GL253584  11.710  13.020  21.950
 2644DOPG   C1A53585  12.050  12.560  21.750
 2644DOPG   D2A53586  12.320  12.670  21.410
 2644DOPG   C3A53587  12.680  12.600  21.160
 2644DOPG   C4A53588  12.540  12.400  20.830
 2644DOPG   C1B53589  12.040  13.070  21.620
 2644DOPG   D2B53590  12.430  13.310  21.600
 2644DOPG   C3B53591  12.550  13.540  21.190
 2644DOPG   C4B53592  12.740  13.480  20.790
 2645DOPG   GL053593  18.970  16.640  11.850
 2645DOPG   PO453594  18.740  16.530  11.530
 2645DOPG   GL153595  18.710  16.690  11.120
 2645DOPG   GL253596  19.010  16.540  11.010
 2645DOPG   C1A53597  18.700  17.030  10.770
 2645DOPG   D2A53598  18.970  16.880  10.470
 2645DOPG   C3A53599  19.180  16.610  10.130
 2645DOPG   C4A53600  19.210  16.140  10.020
 2645DOPG   C1B53601  19.080  16.290  10.570
 2645DOPG   D2B53602  18.760  16.060  10.290
 2645DOPG   C3B53603  18.680  15.840   9.960
 2645DOPG   C4B53604  18.660  15.410   9.840
 2646DOPG   GL053605  23.710   7.460  10.430
 2646DOPG   PO453606  23.760   7.080  10.430
 2646DOPG   GL153607  23.810   6.720  10.140
 2646DOPG   GL253608  24.010   6.740   9.860
 2646DOPG   C1A53609  23.710   6.320   9.930
 2646DOPG   D2A53610  23.450   6.030   9.540
 2646DOPG   C3A53611  23.430   6.150   9.150
 2646DOPG   C4A53612  23.180   6.230   8.810
 2646DOPG   C1B53613  24.260   6.400   9.970
 2646DOPG   D2B53614  24.460   6.110   9.670
 2646DOPG   C3B53615  24.490   6.310   9.280
 2646DOPG   C4B53616  24.710   6.390   8.940
 2647DOPG   GL053617  16.760  13.670  12.540
 2647DOPG   PO453618  17.150  13.500  12.350
 2647DOPG   GL153619  16.770  13.250  12.240
 2647DOPG   GL253620  16.720  13.200  11.940
 2647DOPG   C1A53621  16.540  12.880  12.440
 2647DOPG   D2A53622  16.170  12.940  12.340
 2647DOPG   C3A53623  15.970  12.670  12.510
 2647DOPG   C4A53624  15.680  12.450  12.820
 2647DOPG   C1B53625  16.310  13.280  11.960
 2647DOPG   D2B53626  15.940  13.340  12.110
 2647DOPG   C3B53627  15.590  13.320  11.830
 2647DOPG   C4B53628  15.250  13.390  11.520
 2648DOPG   GL053629  17.150  18.070  14.110
 2648DOPG   PO453630  17.300  18.400  13.990
 2648DOPG   GL153631  17.050  18.600  14.220
 2648DOPG   GL253632  16.720  18.510  14.110
 2648DOPG   C1A53633  16.840  18.690  14.580
 2648DOPG   D2A53634  16.470  19.020  14.690
 2648DOPG   C3A53635  16.090  19.040  14.380
 2648DOPG   C4A53636  15.950  18.790  14.080
 2648DOPG   C1B53637  16.420  18.580  14.400
 2648DOPG   D2B53638  16.000  18.670  14.810
 2648DOPG   C3B53639  15.590  18.800  14.630
 2648DOPG   C4B53640  15.350  18.760  14.190
 2649DOPG   GL053641  12.220  16.240  15.020
 2649DOPG   PO453642  12.130  16.140  14.580
 2649DOPG   GL153643  12.440  16.490  14.590
 2649DOPG   GL253644  12.340  16.770  14.800
 2649DOPG   C1A53645  12.860  16.630  14.460
 2649DOPG   D2A53646  13.290  16.660  14.280
 2649DOPG   C3A53647  13.670  16.930  14.340
 2649DOPG   C4A53648  14.080  16.940  14.510
 2649DOPG   C1B53649  12.590  17.040  14.570
 2649DOPG   D2B53650  12.970  17.090  14.400
 2649DOPG   C3B53651  13.320  17.250  14.560
 2649DOPG   C4B53652  13.680  17.260  14.770
 2650DOPG   GL053653  13.380  21.930   5.460
 2650DOPG   PO453654  13.650  21.990   5.770
 2650DOPG   GL153655  13.800  21.960   6.180
 2650DOPG   GL253656  13.870  22.260   6.510
 2650DOPG   C1A53657  14.050  21.810   6.580
 2650DOPG   D2A53658  14.350  21.600   6.910
 2650DOPG   C3A53659  14.520  21.800   7.270
 2650DOPG   C4A53660  14.570  21.900   7.650
 2650DOPG   C1B53661  14.040  22.250   6.940
 2650DOPG   D2B53662  14.490  22.330   7.160
 2650DOPG   C3B53663  14.650  22.630   7.510
 2650DOPG   C4B53664  14.800  22.310   7.860
 2651DOPG   GL053665  20.140  17.300  12.090
 2651DOPG   PO453666  20.550  17.190  11.960
 2651DOPG   GL153667  20.820  17.510  11.730
 2651DOPG   GL253668  20.710  17.800  11.540
 2651DOPG   C1A53669  21.170  17.610  11.430
 2651DOPG   D2A53670  21.500  17.550  11.120
 2651DOPG   C3A53671  21.570  17.450  10.650
 2651DOPG   C4A53672  21.960  17.410  10.450
 2651DOPG   C1B53673  20.790  18.010  11.100
 2651DOPG   D2B53674  20.720  18.180  10.770
 2651DOPG   C3B53675  20.920  18.490  10.530
 2651DOPG   C4B53676  21.120  18.920  10.580
 2652DOPG   GL053677  21.540  14.740  11.820
 2652DOPG   PO453678  21.360  15.110  11.940
 2652DOPG   GL153679  21.090  15.400  11.530
 2652DOPG   GL253680  21.240  15.300  11.240
 2652DOPG   C1A53681  21.310  15.760  11.260
 2652DOPG   D2A53682  21.720  16.020  11.220
 2652DOPG   C3A53683  22.040  15.960  10.920
 2652DOPG   C4A53684  22.530  15.910  10.840
 2652DOPG   C1B53685  21.400  15.420  10.810
 2652DOPG   D2B53686  21.550  15.510  10.420
 2652DOPG   C3B53687  21.950  15.670  10.430
 2652DOPG   C4B53688  22.450  15.550  10.470
 2653DOPG   GL053689  22.020  15.260   7.980
 2653DOPG   PO453690  22.140  14.950   8.340
 2653DOPG   GL153691  22.560  15.050   8.610
 2653DOPG   GL253692  22.620  15.400   8.660
 2653DOPG   C1A53693  22.700  14.990   8.990
 2653DOPG   D2A53694  22.870  15.200   9.370
 2653DOPG   C3A53695  22.650  15.230   9.670
 2653DOPG   C4A53696  22.610  15.040  10.070
 2653DOPG   C1B53697  22.330  15.360   8.970
 2653DOPG   D2B53698  22.150  15.290   9.410
 2653DOPG   C3B53699  22.210  15.450   9.960
 2653DOPG   C4B53700  22.190  15.140  10.250
 2654DOPG   GL053701  23.340  13.810   8.370
 2654DOPG   PO453702  23.500  13.700   8.710
 2654DOPG   GL153703  23.380  13.600   9.100
 2654DOPG   GL253704  23.340  13.970   9.270
 2654DOPG   C1A53705  23.150  13.520   9.490
 2654DOPG   D2A53706  23.140  13.340   9.940
 2654DOPG   C3A53707  23.090  13.470  10.420
 2654DOPG   C4A53708  23.360  13.150  10.740
 2654DOPG   C1B53709  23.020  14.000   9.530
 2654DOPG   D2B53710  22.810  14.290   9.640
 2654DOPG   C3B53711  22.590  13.990   9.920
 2654DOPG   C4B53712  22.750  13.590   9.990
 2655DOPG   GL053713  19.120  17.770  18.340
 2655DOPG   PO453714  19.060  18.150  18.490
 2655DOPG   GL153715  19.110  18.280  18.080
 2655DOPG   GL253716  19.160  18.080  17.870
 2655DOPG   C1A53717  18.910  18.370  17.560
 2655DOPG   D2A53718  18.920  18.080  17.230
 2655DOPG   C3A53719  18.580  17.990  16.930
 2655DOPG   C4A53720  18.500  17.710  16.780
 2655DOPG   C1B53721  19.590  17.840  17.950
 2655DOPG   D2B53722  19.740  17.410  18.140
 2655DOPG   C3B53723  20.090  17.350  18.100
 2655DOPG   C4B53724  20.540  17.490  17.980
 2656DOPG   GL053725  19.400  18.240   8.590
 2656DOPG   PO453726  19.320  18.080   8.230
 2656DOPG   GL153727  19.080  17.780   8.460
 2656DOPG   GL253728  19.340  17.530   8.610
 2656DOPG   C1A53729  18.880  17.600   8.890
 2656DOPG   D2A53730  18.710  17.250   9.160
 2656DOPG   C3A53731  18.630  17.300   9.640
 2656DOPG   C4A53732  18.850  17.440  10.010
 2656DOPG   C1B53733  19.520  17.710   8.890
 2656DOPG   D2B53734  19.680  18.010   9.160
 2656DOPG   C3B53735  19.460  18.410   9.020
 2656DOPG   C4B53736  19.240  18.750   9.200
 2657DOPG   GL053737  12.310  10.930  23.080
 2657DOPG   PO453738  12.730  10.900  22.940
 2657DOPG   GL153739  12.900  10.980  22.560
 2657DOPG   GL253740  12.920  11.330  22.470
 2657DOPG   C1A53741  13.030  11.020  22.090
 2657DOPG   D2A53742  13.350  10.780  21.870
 2657DOPG   C3A53743  13.670  10.910  21.460
 2657DOPG   C4A53744  13.910  11.390  21.390
 2657DOPG   C1B53745  13.370  11.360  22.250
 2657DOPG   D2B53746  13.560  11.290  21.960
 2657DOPG   C3B53747  13.970  11.210  21.930
 2657DOPG   C4B53748  14.290  11.270  21.620
 2658DOPG   GL053749  13.240  17.920  10.140
 2658DOPG   PO453750  13.510  18.210  10.310
 2658DOPG   GL153751  13.650  17.930  10.620
 2658DOPG   GL253752  13.700  17.670  10.540
 2658DOPG   C1A53753  13.630  18.050  11.080
 2658DOPG   D2A53754  13.910  18.320  11.330
 2658DOPG   C3A53755  14.110  18.310  11.770
 2658DOPG   C4A53756  14.560  18.430  11.850
 2658DOPG   C1B53757  13.700  17.320  10.740
 2658DOPG   D2B53758  13.880  16.920  10.800
 2658DOPG   C3B53759  14.140  16.890  11.150
 2658DOPG   C4B53760  14.220  17.120  11.580
 2659DOPG   GL053761  16.930  12.310  17.680
 2659DOPG   PO453762  16.570  12.410  17.880
 2659DOPG   GL153763  16.550  12.710  17.490
 2659DOPG   GL253764  16.730  12.570  17.310
 2659DOPG   C1A53765  16.390  13.010  17.200
 2659DOPG   D2A53766  16.620  13.190  16.860
 2659DOPG   C3A53767  17.080  13.340  16.760
 2659DOPG   C4A53768  17.430  13.430  17.080
 2659DOPG   C1B53769  17.220  12.380  17.150
 2659DOPG   D2B53770  17.480  11.990  17.350
 2659DOPG   C3B53771  17.360  11.550  17.120
 2659DOPG   C4B53772  17.080  11.350  16.820
 2660DOPG   GL053773  12.690   8.990  13.170
 2660DOPG   PO453774  12.340   8.730  13.490
 2660DOPG   GL153775  11.950   8.710  13.390
 2660DOPG   GL253776  11.980   8.410  13.340
 2660DOPG   C1A53777  11.500   8.540  13.270
 2660DOPG   D2A53778  11.330   8.650  12.940
 2660DOPG   C3A53779  11.040   8.490  12.660
 2660DOPG   C4A53780  10.790   8.530  12.310
 2660DOPG   C1B53781  11.810   8.100  13.550
 2660DOPG   D2B53782  11.540   7.870  13.860
 2660DOPG   C3B53783  11.590   7.530  14.130
 2660DOPG   C4B53784  11.640   7.140  13.990
 2661DOPG   GL053785  17.960  17.470  11.960
 2661DOPG   PO453786  17.550  17.380  12.270
 2661DOPG   GL153787  17.510  17.740  12.050
 2661DOPG   GL253788  17.770  18.010  11.960
 2661DOPG   C1A53789  17.090  17.870  11.920
 2661DOPG   D2A53790  16.880  18.340  11.700
 2661DOPG   C3A53791  17.150  18.400  11.200
 2661DOPG   C4A53792  17.020  18.580  10.790
 2661DOPG   C1B53793  17.760  18.500  11.790
 2661DOPG   D2B53794  17.300  18.630  11.660
 2661DOPG   C3B53795  17.010  18.920  11.860
 2661DOPG   C4B53796  16.730  19.180  11.990
 2662DOPG   GL053797  26.790  13.260  17.090
 2662DOPG   PO453798  26.520  13.590  17.070
 2662DOPG   GL153799  26.210  13.620  16.730
 2662DOPG   GL253800  26.370  13.530  16.470
 2662DOPG   C1A53801  25.880  13.500  16.380
 2662DOPG   D2A53802  25.480  13.590  16.230
 2662DOPG   C3A53803  25.370  13.460  15.820
 2662DOPG   C4A53804  25.050  13.150  15.650
 2662DOPG   C1B53805  26.360  13.570  16.060
 2662DOPG   D2B53806  26.180  13.830  15.810
 2662DOPG   C3B53807  25.990  13.570  15.410
 2662DOPG   C4B53808  25.600  13.580  15.100
 2663DOPG   GL053809  13.410  26.050  10.870
 2663DOPG   PO453810  13.050  25.840  10.840
 2663DOPG   GL153811  13.370  25.570  11.120
 2663DOPG   GL253812  13.520  25.290  10.960
 2663DOPG   C1A53813  13.860  25.580  11.220
 2663DOPG   D2A53814  14.180  25.900  11.390
 2663DOPG   C3A53815  14.080  25.900  11.880
 2663DOPG   C4A53816  13.980  25.730  12.270
 2663DOPG   C1B53817  13.850  25.070  10.980
 2663DOPG   D2B53818  14.260  25.110  11.230
 2663DOPG   C3B53819  14.260  25.410  11.610
 2663DOPG   C4B53820  14.310  25.440  11.970
 2664DOPG   GL053821  23.720  17.000   9.550
 2664DOPG   PO453822  23.740  16.690   9.300
 2664DOPG   GL153823  23.310  16.520   9.340
 2664DOPG   GL253824  23.170  16.360   9.130
 2664DOPG   C1A53825  23.170  16.440   9.780
 2664DOPG   D2A53826  23.090  16.620  10.170
 2664DOPG   C3A53827  23.340  16.680  10.530
 2664DOPG   C4A53828  23.640  16.700  10.890
 2664DOPG   C1B53829  22.810  16.190   9.360
 2664DOPG   D2B53830  22.390  16.390   9.470
 2664DOPG   C3B53831  22.290  16.470   9.950
 2664DOPG   C4B53832  22.080  16.570  10.210
 2665DOPG   GL053833  12.540  12.530  22.740
 2665DOPG   PO453834  12.840  12.870  22.960
 2665DOPG   GL153835  12.860  13.010  22.650
 2665DOPG   GL253836  12.780  12.910  22.310
 2665DOPG   C1A53837  13.290  13.130  22.420
 2665DOPG   D2A53838  13.760  13.070  22.490
 2665DOPG   C3A53839  14.030  13.430  22.720
 2665DOPG   C4A53840  13.990  13.920  22.860
 2665DOPG   C1B53841  12.900  12.700  21.930
 2665DOPG   D2B53842  13.250  12.720  21.610
 2665DOPG   C3B53843  13.170  12.650  21.220
 2665DOPG   C4B53844  13.300  12.390  20.860
 2666DOPG   GL053845  25.680  17.040  10.350
 2666DOPG   PO453846  25.580  17.130  10.770
 2666DOPG   GL153847  25.120  17.160  10.960
 2666DOPG   GL253848  24.970  17.410  10.880
 2666DOPG   C1A53849  25.050  17.040  11.300
 2666DOPG   D2A53850  25.280  17.190  11.690
 2666DOPG   C3A53851  25.590  16.900  11.590
 2666DOPG   C4A53852  26.000  16.750  11.850
 2666DOPG   C1B53853  24.640  17.240  11.110
 2666DOPG   D2B53854  24.290  17.190  11.230
 2666DOPG   C3B53855  24.400  16.860  11.520
 2666DOPG   C4B53856  24.300  16.380  11.550
 2667DOPG   GL053857  23.980  14.510  14.690
 2667DOPG   PO453858  23.900  14.880  14.630
 2667DOPG   GL153859  24.360  14.860  14.780
 2667DOPG   GL253860  24.580  14.660  14.880
 2667DOPG   C1A53861  24.380  15.190  15.000
 2667DOPG   D2A53862  24.510  15.490  15.370
 2667DOPG   C3A53863  24.250  15.750  15.630
 2667DOPG   C4A53864  24.200  15.440  15.970
 2667DOPG   C1B53865  24.490  14.340  15.210
 2667DOPG   D2B53866  24.820  14.040  15.350
 2667DOPG   C3B53867  24.590  13.830  15.590
 2667DOPG   C4B53868  24.250  13.620  15.740
 2668DOPG   GL053869  25.030   7.070  17.600
 2668DOPG   PO453870  25.470   7.180  17.360
 2668DOPG   GL153871  25.660   6.980  17.590
 2668DOPG   GL253872  25.560   6.990  17.840
 2668DOPG   C1A53873  25.840   6.590  17.690
 2668DOPG   D2A53874  26.120   6.300  17.570
 2668DOPG   C3A53875  26.060   5.820  17.620
 2668DOPG   C4A53876  26.150   5.450  17.500
 2668DOPG   C1B53877  25.320   6.660  17.880
 2668DOPG   D2B53878  25.310   6.250  18.100
 2668DOPG   C3B53879  24.990   6.040  18.320
 2668DOPG   C4B53880  24.670   5.850  18.670
 2669DOPG   GL053881  17.550   8.060  14.460
 2669DOPG   PO453882  17.210   8.130  14.670
 2669DOPG   GL153883  17.450   8.470  14.630
 2669DOPG   GL253884  17.200   8.760  14.470
 2669DOPG   C1A53885  17.970   8.470  14.590
 2669DOPG   D2A53886  18.350   8.760  14.610
 2669DOPG   C3A53887  18.320   9.120  14.330
 2669DOPG   C4A53888  18.330   9.550  14.480
 2669DOPG   C1B53889  17.430   9.080  14.300
 2669DOPG   D2B53890  17.810   9.380  14.200
 2669DOPG   C3B53891  18.120   9.330  13.910
 2669DOPG   C4B53892  18.240   9.460  13.530
 2670DOPG   GL053893  15.030   9.650   9.020
 2670DOPG   PO453894  15.010   9.370   9.350
 2670DOPG   GL153895  14.790   9.230   8.990
 2670DOPG   GL253896  14.550   8.950   8.970
 2670DOPG   C1A53897  14.580   9.300   8.640
 2670DOPG   D2A53898  14.280   9.470   8.270
 2670DOPG   C3A53899  13.960   9.180   8.380
 2670DOPG   C4A53900  13.610   9.000   8.200
 2670DOPG   C1B53901  14.260   8.750   8.750
 2670DOPG   D2B53902  13.960   8.720   8.390
 2670DOPG   C3B53903  13.540   8.540   8.380
 2670DOPG   C4B53904  13.290   8.200   8.310
 2671DOPG   GL053905  15.670  10.690  10.980
 2671DOPG   PO453906  15.240  10.680  11.070
 2671DOPG   GL153907  15.450  11.170  11.060
 2671DOPG   GL253908  15.410  11.220  11.430
 2671DOPG   C1A53909  15.750  11.520  11.100
 2671DOPG   D2A53910  16.080  11.760  11.150
 2671DOPG   C3A53911  16.190  12.110  11.210
 2671DOPG   C4A53912  16.240  12.410  11.530
 2671DOPG   C1B53913  15.670  11.530  11.600
 2671DOPG   D2B53914  15.890  11.800  11.580
 2671DOPG   C3B53915  16.170  12.000  11.820
 2671DOPG   C4B53916  16.550  12.030  12.080
 2672DOPG   GL053917   7.120  18.070  15.130
 2672DOPG   PO453918   6.650  18.200  15.150
 2672DOPG   GL153919   6.790  17.700  15.230
 2672DOPG   GL253920   6.770  17.380  15.110
 2672DOPG   C1A53921   7.140  17.470  15.540
 2672DOPG   D2A53922   7.540  17.530  15.820
 2672DOPG   C3A53923   7.610  17.310  16.090
 2672DOPG   C4A53924   7.890  17.110  16.030
 2672DOPG   C1B53925   6.860  17.140  15.340
 2672DOPG   D2B53926   6.750  16.780  15.480
 2672DOPG   C3B53927   7.130  16.680  15.840
 2672DOPG   C4B53928   7.110  16.540  16.270
 2673DOPG   GL053929  18.160  12.770  18.870
 2673DOPG   PO453930  17.860  12.570  18.800
 2673DOPG   GL153931  17.960  12.550  18.370
 2673DOPG   GL253932  18.190  12.320  18.130
 2673DOPG   C1A53933  18.150  12.820  18.020
 2673DOPG   D2A53934  18.080  13.160  17.840
 2673DOPG   C3A53935  18.330  13.180  17.510
 2673DOPG   C4A53936  18.350  13.290  17.120
 2673DOPG   C1B53937  18.340  12.180  17.750
 2673DOPG   D2B53938  18.520  12.170  17.290
 2673DOPG   C3B53939  19.000  12.480  17.340
 2673DOPG   C4B53940  19.230  12.750  17.420
 2674DOPG   GL053941  13.270   7.950  11.770
 2674DOPG   PO453942  13.070   8.420  11.870
 2674DOPG   GL153943  12.760   8.190  11.820
 2674DOPG   GL253944  12.790   8.080  11.430
 2674DOPG   C1A53945  12.540   7.760  11.740
 2674DOPG   D2A53946  12.450   7.440  12.020
 2674DOPG   C3A53947  12.480   7.110  11.750
 2674DOPG   C4A53948  12.730   6.960  11.560
 2674DOPG   C1B53949  12.970   7.740  11.080
 2674DOPG   D2B53950  13.160   7.260  10.910
 2674DOPG   C3B53951  12.960   7.060  10.610
 2674DOPG   C4B53952  12.780   6.710  10.340
 2675DOPG   GL053953  27.680  10.390  14.960
 2675DOPG   PO453954  27.310  10.520  15.040
 2675DOPG   GL153955  26.920  10.730  15.070
 2675DOPG   GL253956  26.860  10.760  14.700
 2675DOPG   C1A53957  26.840  11.250  14.800
 2675DOPG   D2A53958  26.390  11.340  14.840
 2675DOPG   C3A53959  26.270  11.740  15.010
 2675DOPG   C4A53960  26.130  12.190  15.100
 2675DOPG   C1B53961  26.460  10.860  14.950
 2675DOPG   D2B53962  25.950  10.920  14.920
 2675DOPG   C3B53963  25.600  11.140  15.040
 2675DOPG   C4B53964  25.140  11.280  14.980
 2676DOPG   GL053965  23.740  26.580  16.450
 2676DOPG   PO453966  23.540  26.290  16.710
 2676DOPG   GL153967  23.580  25.820  16.580
 2676DOPG   GL253968  23.810  25.710  16.240
 2676DOPG   C1A53969  23.340  25.480  16.680
 2676DOPG   D2A53970  23.320  25.020  16.480
 2676DOPG   C3A53971  23.160  24.660  16.570
 2676DOPG   C4A53972  23.200  24.330  16.680
 2676DOPG   C1B53973  23.520  25.410  16.140
 2676DOPG   D2B53974  23.330  25.000  15.950
 2676DOPG   C3B53975  23.030  24.730  16.060
 2676DOPG   C4B53976  23.000  24.350  16.160
 2677DOPG   GL053977  18.670  18.480  11.690
 2677DOPG   PO453978  18.420  18.650  12.020
 2677DOPG   GL153979  18.470  18.910  11.660
 2677DOPG   GL253980  18.200  18.950  11.610
 2677DOPG   C1A53981  18.490  19.220  11.320
 2677DOPG   D2A53982  18.080  19.040  11.020
 2677DOPG   C3A53983  17.640  19.120  10.910
 2677DOPG   C4A53984  17.320  18.870  11.120
 2677DOPG   C1B53985  18.300  18.680  11.270
 2677DOPG   D2B53986  18.490  18.790  10.830
 2677DOPG   C3B53987  18.480  18.500  10.550
 2677DOPG   C4B53988  18.260  18.250  10.170
 2678DOPG   GL053989  15.540   9.740  15.990
 2678DOPG   PO453990  15.640   9.810  15.560
 2678DOPG   GL153991  15.860  10.110  15.440
 2678DOPG   GL253992  16.010  10.210  15.120
 2678DOPG   C1A53993  16.150  10.530  15.460
 2678DOPG   D2A53994  16.340  10.740  15.760
 2678DOPG   C3A53995  16.790  10.860  15.540
 2678DOPG   C4A53996  16.950  11.080  15.120
 2678DOPG   C1B53997  16.350  10.200  14.820
 2678DOPG   D2B53998  16.490  10.100  14.460
 2678DOPG   C3B53999  16.910  10.410  14.220
 2678DOPG   C4B54000  17.260  10.570  14.130
 2679DOPG   GL054001  16.850  16.440  12.570
 2679DOPG   PO454002  16.450  16.630  12.270
 2679DOPG   GL154003  16.260  16.860  11.950
 2679DOPG   GL254004  16.260  17.180  11.900
 2679DOPG   C1A54005  15.920  17.010  11.590
 2679DOPG   D2A54006  15.470  17.130  11.410
 2679DOPG   C3A54007  15.070  17.010  11.530
 2679DOPG   C4A54008  14.670  17.060  11.400
 2679DOPG   C1B54009  16.150  17.630  11.650
 2679DOPG   D2B54010  15.940  17.990  11.450
 2679DOPG   C3B54011  16.200  18.230  11.140
 2679DOPG   C4B54012  16.620  18.400  11.170
 2680DOPG   GL054013  20.060  13.640  11.760
 2680DOPG   PO454014  20.430  13.250  11.830
 2680DOPG   GL154015  20.540  13.220  11.450
 2680DOPG   GL254016  20.290  13.370  11.230
 2680DOPG   C1A54017  20.750  13.080  11.090
 2680DOPG   D2A54018  20.790  13.350  10.690
 2680DOPG   C3A54019  20.340  13.450  10.720
 2680DOPG   C4A54020  19.920  13.550  10.840
 2680DOPG   C1B54021  20.230  12.980  11.050
 2680DOPG   D2B54022  20.210  12.550  10.940
 2680DOPG   C3B54023  20.610  12.580  11.120
 2680DOPG   C4B54024  20.950  12.710  11.330
 2681DOPG   GL054025  21.310  17.400  13.090
 2681DOPG   PO454026  21.700  17.350  13.270
 2681DOPG   GL154027  22.040  17.560  13.180
 2681DOPG   GL254028  22.070  17.780  13.360
 2681DOPG   C1A54029  22.570  17.630  13.200
 2681DOPG   D2A54030  22.960  17.490  13.280
 2681DOPG   C3A54031  23.370  17.690  13.240
 2681DOPG   C4A54032  23.580  18.060  13.280
 2681DOPG   C1B54033  22.310  18.100  13.250
 2681DOPG   D2B54034  22.640  18.430  13.360
 2681DOPG   C3B54035  22.420  18.720  13.670
 2681DOPG   C4B54036  22.260  19.120  13.780
 2682DOPG   GL054037  19.670  10.490  18.250
 2682DOPG   PO454038  19.200  10.490  18.410
 2682DOPG   GL154039  19.050  10.530  18.090
 2682DOPG   GL254040  18.740  10.420  18.050
 2682DOPG   C1A54041  19.290  10.610  17.740
 2682DOPG   D2A54042  19.280  10.610  17.230
 2682DOPG   C3A54043  19.450  10.450  16.840
 2682DOPG   C4A54044  19.520  10.800  16.540
 2682DOPG   C1B54045  18.610  10.690  17.660
 2682DOPG   D2B54046  18.750  10.900  17.320
 2682DOPG   C3B54047  18.570  10.770  16.890
 2682DOPG   C4B54048  18.390  10.800  16.370
 2683DOPG   GL054049  15.250  18.740   8.860
 2683DOPG   PO454050  15.240  18.990   8.490
 2683DOPG   GL154051  15.120  19.160   7.990
 2683DOPG   GL254052  15.310  19.460   8.000
 2683DOPG   C1A54053  15.040  19.300   7.580
 2683DOPG   D2A54054  15.090  19.650   7.340
 2683DOPG   C3A54055  15.000  19.740   6.990
 2683DOPG   C4A54056  14.690  19.870   6.720
 2683DOPG   C1B54057  15.410  19.830   7.690
 2683DOPG   D2B54058  15.330  20.180   7.570
 2683DOPG   C3B54059  15.010  20.580   7.450
 2683DOPG   C4B54060  14.700  20.670   7.210
 2684DOPG   GL054061  21.390  16.480   6.960
 2684DOPG   PO454062  20.850  16.550   6.890
 2684DOPG   GL154063  20.890  16.650   6.540
 2684DOPG   GL254064  21.040  16.940   6.370
 2684DOPG   C1A54065  20.730  16.530   6.200
 2684DOPG   D2A54066  20.940  16.250   5.860
 2684DOPG   C3A54067  20.880  16.500   5.420
 2684DOPG   C4A54068  20.840  16.890   5.150
 2684DOPG   C1B54069  21.250  17.190   6.180
 2684DOPG   D2B54070  21.240  17.370   5.760
 2684DOPG   C3B54071  21.530  17.460   5.480
 2684DOPG   C4B54072  21.570  17.520   5.010
 2685DOPG   GL054073  15.960  17.970  17.530
 2685DOPG   PO454074  16.260  18.140  17.680
 2685DOPG   GL154075  16.500  18.200  17.300
 2685DOPG   GL254076  16.780  18.040  17.300
 2685DOPG   C1A54077  16.560  18.540  17.000
 2685DOPG   D2A54078  16.560  18.690  16.530
 2685DOPG   C3A54079  16.840  18.650  16.250
 2685DOPG   C4A54080  17.050  18.370  16.080
 2685DOPG   C1B54081  16.760  18.110  16.810
 2685DOPG   D2B54082  16.680  18.180  16.350
 2685DOPG   C3B54083  16.380  18.480  16.090
 2685DOPG   C4B54084  16.160  18.200  15.770
 2686DOPG   GL054085  22.310  16.720  14.250
 2686DOPG   PO454086  22.630  16.940  14.210
 2686DOPG   GL154087  22.550  17.380  14.260
 2686DOPG   GL254088  22.780  17.540  14.090
 2686DOPG   C1A54089  22.660  17.640  14.590
 2686DOPG   D2A54090  22.760  17.870  14.930
 2686DOPG   C3A54091  22.550  17.820  15.330
 2686DOPG   C4A54092  22.650  18.110  15.690
 2686DOPG   C1B54093  23.120  17.750  14.020
 2686DOPG   D2B54094  23.240  18.030  13.660
 2686DOPG   C3B54095  22.950  18.000  13.310
 2686DOPG   C4B54096  23.040  17.810  12.900
 2687DOPG   GL054097  21.660  15.650  14.820
 2687DOPG   PO454098  21.590  15.930  15.240
 2687DOPG   GL154099  21.680  15.950  15.650
 2687DOPG   GL254100  21.880  16.130  15.600
 2687DOPG   C1A54101  21.820  15.810  15.990
 2687DOPG   D2A54102  21.900  15.550  16.320
 2687DOPG   C3A54103  21.740  15.500  16.610
 2687DOPG   C4A54104  21.400  15.420  17.010
 2687DOPG   C1B54105  22.260  15.900  15.860
 2687DOPG   D2B54106  22.600  15.810  16.120
 2687DOPG   C3B54107  22.880  15.880  16.310
 2687DOPG   C4B54108  23.280  15.720  16.530
 2688DOPG   GL054109  26.320  12.030  10.940
 2688DOPG   PO454110  26.260  12.290  10.570
 2688DOPG   GL154111  25.960  12.500  10.710
 2688DOPG   GL254112  25.630  12.640  10.600
 2688DOPG   C1A54113  25.670  12.610  11.140
 2688DOPG   D2A54114  25.170  12.550  11.150
 2688DOPG   C3A54115  24.820  12.610  11.530
 2688DOPG   C4A54116  24.590  12.440  11.880
 2688DOPG   C1B54117  25.190  12.900  10.580
 2688DOPG   D2B54118  24.850  12.990  10.930
 2688DOPG   C3B54119  24.460  13.160  10.830
 2688DOPG   C4B54120  24.110  13.320  11.070
 2689DOPG   GL054121  24.540  20.140  13.940
 2689DOPG   PO454122  24.160  20.250  13.840
 2689DOPG   GL154123  23.870  20.130  13.640
 2689DOPG   GL254124  23.920  19.800  13.600
 2689DOPG   C1A54125  23.450  19.920  13.640
 2689DOPG   D2A54126  23.050  19.890  13.930
 2689DOPG   C3A54127  22.730  19.500  13.810
 2689DOPG   C4A54128  22.660  19.110  14.010
 2689DOPG   C1B54129  23.790  19.540  13.350
 2689DOPG   D2B54130  23.640  19.090  13.420
 2689DOPG   C3B54131  23.200  19.030  13.450
 2689DOPG   C4B54132  22.770  19.190  13.420
 2690DOPG   GL054133  22.880  15.440  13.370
 2690DOPG   PO454134  22.920  15.640  12.970
 2690DOPG   GL154135  23.130  15.680  12.490
 2690DOPG   GL254136  22.910  15.550  12.200
 2690DOPG   C1A54137  23.610  15.460  12.350
 2690DOPG   D2A54138  24.010  15.410  12.200
 2690DOPG   C3A54139  24.450  15.420  12.320
 2690DOPG   C4A54140  24.810  15.640  12.110
 2690DOPG   C1B54141  23.190  15.660  11.880
 2690DOPG   D2B54142  23.400  15.920  11.550
 2690DOPG   C3B54143  23.350  16.350  11.610
 2690DOPG   C4B54144  23.610  16.780  11.520
 2691DOPG   GL054145  11.170  23.250  17.700
 2691DOPG   PO454146  11.260  23.640  17.520
 2691DOPG   GL154147  11.600  23.440  17.740
 2691DOPG   GL254148  11.920  23.400  17.910
 2691DOPG   C1A54149  11.660  22.960  17.700
 2691DOPG   D2A54150  11.580  22.680  17.570
 2691DOPG   C3A54151  11.440  22.320  17.390
 2691DOPG   C4A54152  11.690  21.870  17.330
 2691DOPG   C1B54153  12.090  23.000  17.960
 2691DOPG   D2B54154  12.430  22.700  17.830
 2691DOPG   C3B54155  12.700  22.790  17.470
 2691DOPG   C4B54156  12.930  22.510  17.220
 2692DOPG   GL054157  18.310   6.210  19.300
 2692DOPG   PO454158  18.020   6.310  18.940
 2692DOPG   GL154159  18.160   5.900  18.950
 2692DOPG   GL254160  17.950   5.790  18.720
 2692DOPG   C1A54161  18.230   5.550  19.110
 2692DOPG   D2A54162  18.250   5.510  19.450
 2692DOPG   C3A54163  18.290   5.100  19.650
 2692DOPG   C4A54164  18.400   4.680  19.400
 2692DOPG   C1B54165  17.760   5.440  18.790
 2692DOPG   D2B54166  17.580   5.070  18.950
 2692DOPG   C3B54167  17.650   4.660  19.130
 2692DOPG   C4B54168  17.940   4.590  19.500
 2693DOPG   GL054169  29.500   7.110  20.220
 2693DOPG   PO454170  29.290   7.530  20.310
 2693DOPG   GL154171  29.190   7.650  20.020
 2693DOPG   GL254172  28.990   7.920  20.040
 2693DOPG   C1A54173  29.040   7.510  19.620
 2693DOPG   D2A54174  29.000   7.150  19.300
 2693DOPG   C3A54175  28.820   7.310  18.900
 2693DOPG   C4A54176  28.650   7.130  18.500
 2693DOPG   C1B54177  28.760   8.210  19.820
 2693DOPG   D2B54178  28.420   8.440  19.650
 2693DOPG   C3B54179  28.300   8.610  19.180
 2693DOPG   C4B54180  28.170   8.750  18.730
 2694DOPG   GL054181  16.540  15.120  13.150
 2694DOPG   PO454182  16.160  15.050  12.860
 2694DOPG   GL154183  15.940  14.850  12.570
 2694DOPG   GL254184  15.610  14.960  12.530
 2694DOPG   C1A54185  15.790  14.490  12.410
 2694DOPG   D2A54186  15.470  14.330  12.110
 2694DOPG   C3A54187  15.470  14.330  11.630
 2694DOPG   C4A54188  15.170  14.690  11.460
 2694DOPG   C1B54189  15.320  14.640  12.520
 2694DOPG   D2B54190  15.050  14.400  12.420
 2694DOPG   C3B54191  14.880  14.060  12.740
 2694DOPG   C4B54192  14.590  13.800  12.760
 2695DOPG   GL054193  17.340  16.580  18.630
 2695DOPG   PO454194  17.340  16.990  18.540
 2695DOPG   GL154195  17.640  17.180  18.260
 2695DOPG   GL254196  17.880  17.020  18.290
 2695DOPG   C1A54197  17.520  17.090  17.870
 2695DOPG   D2A54198  17.190  16.800  17.790
 2695DOPG   C3A54199  17.060  16.890  17.410
 2695DOPG   C4A54200  17.100  16.950  16.960
 2695DOPG   C1B54201  17.810  16.740  18.120
 2695DOPG   D2B54202  18.000  16.400  17.960
 2695DOPG   C3B54203  18.070  16.480  17.670
 2695DOPG   C4B54204  17.930  16.500  17.200
 2696DOPG   GL054205  18.430  19.210  14.080
 2696DOPG   PO454206  18.440  18.730  14.230
 2696DOPG   GL154207  18.630  19.010  14.470
 2696DOPG   GL254208  18.570  19.040  14.810
 2696DOPG   C1A54209  18.730  19.400  14.540
 2696DOPG   D2A54210  18.800  19.740  14.830
 2696DOPG   C3A54211  19.270  19.800  15.080
 2696DOPG   C4A54212  19.630  20.020  15.400
 2696DOPG   C1B54213  18.590  19.370  15.130
 2696DOPG   D2B54214  18.330  19.380  15.560
 2696DOPG   C3B54215  18.720  19.530  15.790
 2696DOPG   C4B54216  19.000  19.740  15.960
 2697DOPG   GL054217  11.680  10.580  16.550
 2697DOPG   PO454218  12.010  10.340  16.790
 2697DOPG   GL154219  11.650  10.210  16.980
 2697DOPG   GL254220  11.480  10.120  16.850
 2697DOPG   C1A54221  11.290  10.400  17.270
 2697DOPG   D2A54222  11.150  10.190  17.600
 2697DOPG   C3A54223  10.870  10.400  17.810
 2697DOPG   C4A54224  10.550  10.450  18.050
 2697DOPG   C1B54225  11.240   9.870  17.030
 2697DOPG   D2B54226  10.850   9.940  17.290
 2697DOPG   C3B54227  10.710   9.930  17.760
 2697DOPG   C4B54228  10.320   9.990  17.890
 2698DOPG   GL054229  18.360  19.410   8.560
 2698DOPG   PO454230  18.530  19.220   8.350
 2698DOPG   GL154231  18.850  19.130   8.660
 2698DOPG   GL254232  18.790  18.770   8.710
 2698DOPG   C1A54233  19.030  19.130   9.120
 2698DOPG   D2A54234  18.890  19.170   9.390
 2698DOPG   C3A54235  18.960  19.040   9.750
 2698DOPG   C4A54236  19.120  18.620   9.960
 2698DOPG   C1B54237  18.690  18.520   9.090
 2698DOPG   D2B54238  18.360  18.350   9.310
 2698DOPG   C3B54239  18.420  18.180   9.710
 2698DOPG   C4B54240  18.420  17.760  10.010
 2699DOPG   GL054241  22.650   9.820  14.030
 2699DOPG   PO454242  22.580   9.900  14.510
 2699DOPG   GL154243  22.680   9.890  14.930
 2699DOPG   GL254244  23.000   9.960  15.010
 2699DOPG   C1A54245  22.760   9.720  15.320
 2699DOPG   D2A54246  22.960   9.370  15.500
 2699DOPG   C3A54247  23.300   9.100  15.290
 2699DOPG   C4A54248  23.200   8.940  14.860
 2699DOPG   C1B54249  23.080   9.500  14.920
 2699DOPG   D2B54250  22.830   9.240  15.020
 2699DOPG   C3B54251  22.560   9.160  14.850
 2699DOPG   C4B54252  22.340   9.010  14.560
 2700DOPG   GL054253  14.100   7.470  12.480
 2700DOPG   PO454254  13.760   7.280  12.230
 2700DOPG   GL154255  13.650   6.860  12.230
 2700DOPG   GL254256  13.470   6.620  12.330
 2700DOPG   C1A54257  13.620   6.630  11.850
 2700DOPG   D2A54258  13.410   6.450  11.530
 2700DOPG   C3A54259  13.260   6.380  11.130
 2700DOPG   C4A54260  13.440   6.100  10.900
 2700DOPG   C1B54261  13.180   6.330  12.050
 2700DOPG   D2B54262  12.950   6.270  11.640
 2700DOPG   C3B54263  12.650   6.020  11.550
 2700DOPG   C4B54264  12.280   5.830  11.670
 2701DOPG   GL054265  13.360  26.720  14.780
 2701DOPG   PO454266  13.130  26.400  14.860
 2701DOPG   GL154267  13.190  26.100  14.650
 2701DOPG   GL254268  13.420  25.870  14.810
 2701DOPG   C1A54269  13.190  25.740  14.400
 2701DOPG   D2A54270  13.340  25.320  14.170
 2701DOPG   C3A54271  13.350  24.890  14.230
 2701DOPG   C4A54272  13.380  24.530  14.030
 2701DOPG   C1B54273  13.880  25.720  14.870
 2701DOPG   D2B54274  14.120  25.440  14.640
 2701DOPG   C3B54275  14.180  25.040  14.470
 2701DOPG   C4B54276  13.950  24.670  14.440
 2702DOPG   GL054277   8.430   8.580  10.270
 2702DOPG   PO454278   8.820   8.700  10.430
 2702DOPG   GL154279   9.080   8.620  10.840
 2702DOPG   GL254280   9.210   8.370  11.080
 2702DOPG   C1A54281   9.520   8.700  10.780
 2702DOPG   D2A54282   9.800   9.020  11.030
 2702DOPG   C3A54283  10.160   9.110  11.010
 2702DOPG   C4A54284  10.570   9.410  10.950
 2702DOPG   C1B54285   9.480   8.690  11.370
 2702DOPG   D2B54286   9.750   9.000  11.560
 2702DOPG   C3B54287   9.700   9.400  11.410
 2702DOPG   C4B54288   9.570   9.760  11.660
 2703DOPG   GL054289  22.070  23.010  11.680
 2703DOPG   PO454290  21.870  22.800  11.370
 2703DOPG   GL154291  21.860  23.230  11.270
 2703DOPG   GL254292  21.550  23.190  10.980
 2703DOPG   C1A54293  22.030  23.640  11.300
 2703DOPG   D2A54294  22.090  24.000  11.480
 2703DOPG   C3A54295  22.040  24.530  11.350
 2703DOPG   C4A54296  21.750  24.780  11.370
 2703DOPG   C1B54297  21.600  23.580  11.020
 2703DOPG   D2B54298  21.720  24.040  10.890
 2703DOPG   C3B54299  21.700  24.510  10.940
 2703DOPG   C4B54300  21.810  24.870  10.670
 2704DOPG   GL054301  12.090  12.480  10.540
 2704DOPG   PO454302  11.910  12.900  10.670
 2704DOPG   GL154303  11.600  12.590  10.520
 2704DOPG   GL254304  11.360  12.730  10.630
 2704DOPG   C1A54305  11.290  12.790  10.180
 2704DOPG   D2A54306  11.020  12.930  10.070
 2704DOPG   C3A54307  10.580  12.930   9.980
 2704DOPG   C4A54308  10.130  12.700   9.800
 2704DOPG   C1B54309  10.860  12.690  10.460
 2704DOPG   D2B54310  10.690  12.970  10.460
 2704DOPG   C3B54311  10.330  12.860  10.410
 2704DOPG   C4B54312   9.990  13.050  10.310
 2705DOPG   GL054313  13.110  13.330   9.590
 2705DOPG   PO454314  12.950  13.260   9.170
 2705DOPG   GL154315  12.690  13.560   9.020
 2705DOPG   GL254316  12.690  13.710   8.580
 2705DOPG   C1A54317  12.340  13.480   8.720
 2705DOPG   D2A54318  11.880  13.410   8.670
 2705DOPG   C3A54319  11.490  13.430   8.680
 2705DOPG   C4A54320  11.100  13.250   8.650
 2705DOPG   C1B54321  12.540  13.600   8.160
 2705DOPG   D2B54322  12.270  13.480   7.750
 2705DOPG   C3B54323  12.040  13.190   7.410
 2705DOPG   C4B54324  11.730  12.930   7.390
 2706DOPG   GL054325  22.310  22.320   4.990
 2706DOPG   PO454326  22.610  22.470   5.310
 2706DOPG   GL154327  22.750  22.110   5.520
 2706DOPG   GL254328  23.080  21.970   5.430
 2706DOPG   C1A54329  22.590  21.950   5.940
 2706DOPG   D2A54330  22.670  22.090   6.380
 2706DOPG   C3A54331  22.880  22.040   6.690
 2706DOPG   C4A54332  23.090  21.930   7.070
 2706DOPG   C1B54333  23.130  21.800   5.880
 2706DOPG   D2B54334  22.930  21.710   6.220
 2706DOPG   C3B54335  22.570  21.430   6.100
 2706DOPG   C4B54336  22.300  21.160   5.820
 2707DOPG   GL054337  17.460  15.240  15.310
 2707DOPG   PO454338  17.570  15.000  15.670
 2707DOPG   GL154339  17.160  15.210  15.660
 2707DOPG   GL254340  16.950  15.020  15.650
 2707DOPG   C1A54341  16.760  15.450  15.790
 2707DOPG   D2A54342  16.330  15.710  15.750
 2707DOPG   C3A54343  15.900  15.580  15.880
 2707DOPG   C4A54344  15.570  15.230  15.920
 2707DOPG   C1B54345  16.990  14.910  16.030
 2707DOPG   D2B54346  16.770  15.010  16.440
 2707DOPG   C3B54347  16.480  14.790  16.640
 2707DOPG   C4B54348  16.040  14.980  16.940
 2708DOPG   GL054349  18.490  19.860  13.140
 2708DOPG   PO454350  18.550  19.630  13.530
 2708DOPG   GL154351  18.450  20.050  13.700
 2708DOPG   GL254352  18.300  20.180  13.470
 2708DOPG   C1A54353  18.070  20.100  14.060
 2708DOPG   D2A54354  17.720  19.900  14.050
 2708DOPG   C3A54355  17.370  19.910  14.430
 2708DOPG   C4A54356  17.110  20.210  14.630
 2708DOPG   C1B54357  17.850  20.170  13.630
 2708DOPG   D2B54358  17.580  19.860  13.470
 2708DOPG   C3B54359  17.360  20.040  13.200
 2708DOPG   C4B54360  17.220  20.370  13.050
 2709DOPG   GL054361  23.050   7.870  10.880
 2709DOPG   PO454362  23.340   8.140  10.930
 2709DOPG   GL154363  22.960   8.370  11.110
 2709DOPG   GL254364  22.740   8.380  10.880
 2709DOPG   C1A54365  22.920   8.450  11.470
 2709DOPG   D2A54366  23.030   8.700  11.860
 2709DOPG   C3A54367  22.690   8.980  11.980
 2709DOPG   C4A54368  22.530   9.210  12.330
 2709DOPG   C1B54369  22.770   8.850  11.020
 2709DOPG   D2B54370  22.810   9.000  11.440
 2709DOPG   C3B54371  22.590   9.370  11.550
 2709DOPG   C4B54372  22.360   9.480  11.860
 2710DOPG   GL054373  19.200  15.050  19.430
 2710DOPG   PO454374  19.210  14.820  20.030
 2710DOPG   GL154375  19.360  14.990  20.430
 2710DOPG   GL254376  19.680  14.890  20.590
 2710DOPG   C1A54377  19.460  15.160  20.930
 2710DOPG   D2A54378  19.830  15.330  21.330
 2710DOPG   C3A54379  19.750  15.770  21.600
 2710DOPG   C4A54380  20.010  15.880  21.960
 2710DOPG   C1B54381  19.960  15.000  20.930
 2710DOPG   D2B54382  20.160  14.720  20.930
 2710DOPG   C3B54383  20.040  14.410  21.230
 2710DOPG   C4B54384  19.750  14.430  21.650
 2711DOPG   GL054385  18.470  13.690  11.740
 2711DOPG   PO454386  18.150  13.640  12.140
 2711DOPG   GL154387  17.950  13.410  11.800
 2711DOPG   GL254388  17.680  13.530  11.730
 2711DOPG   C1A54389  17.920  12.880  11.650
 2711DOPG   D2A54390  17.510  12.700  11.450
 2711DOPG   C3A54391  17.270  12.910  11.110
 2711DOPG   C4A54392  17.150  13.010  10.730
 2711DOPG   C1B54393  17.500  13.300  11.340
 2711DOPG   D2B54394  17.560  13.290  10.890
 2711DOPG   C3B54395  17.890  13.080  10.670
 2711DOPG   C4B54396  18.080  12.700  10.750
 2712DOPG   GL054397  22.680  10.670  13.380
 2712DOPG   PO454398  22.720  11.060  13.410
 2712DOPG   GL154399  23.090  10.870  13.160
 2712DOPG   GL254400  23.210  10.740  12.730
 2712DOPG   C1A54401  23.250  10.360  13.140
 2712DOPG   D2A54402  23.620  10.100  13.100
 2712DOPG   C3A54403  23.470   9.930  13.470
 2712DOPG   C4A54404  23.720   9.850  13.900
 2712DOPG   C1B54405  22.950  10.590  12.390
 2712DOPG   D2B54406  22.670  10.750  12.150
 2712DOPG   C3B54407  22.630  10.550  11.740
 2712DOPG   C4B54408  22.470  10.560  11.290
 2713DOPG   GL054409  15.940  21.220   9.280
 2713DOPG   PO454410  16.210  21.410   9.170
 2713DOPG   GL154411  16.520  21.720   9.050
 2713DOPG   GL254412  16.770  21.520   9.070
 2713DOPG   C1A54413  16.580  21.960   8.750
 2713DOPG   D2A54414  16.660  22.000   8.330
 2713DOPG   C3A54415  16.380  22.200   8.120
 2713DOPG   C4A54416  16.280  22.450   7.840
 2713DOPG   C1B54417  16.870  21.580   8.550
 2713DOPG   D2B54418  17.050  21.730   8.210
 2713DOPG   C3B54419  17.020  21.440   7.770
 2713DOPG   C4B54420  16.890  21.670   7.460
 2714DOPG   GL054421  20.520   9.910  13.830
 2714DOPG   PO454422  20.230   9.570  14.120
 2714DOPG   GL154423  20.190   9.630  14.610
 2714DOPG   GL254424  20.460   9.840  14.780
 2714DOPG   C1A54425  19.870   9.700  15.060
 2714DOPG   D2A54426  19.840  10.030  15.430
 2714DOPG   C3A54427  19.650  10.110  15.780
 2714DOPG   C4A54428  19.500  10.420  16.000
 2714DOPG   C1B54429  20.280   9.450  15.020
 2714DOPG   D2B54430  20.290   9.150  14.700
 2714DOPG   C3B54431  19.980   9.060  14.400
 2714DOPG   C4B54432  19.760   9.110  14.010
 2715DOPG   GL054433  22.090  26.290   7.410
 2715DOPG   PO454434  21.890  26.090   7.810
 2715DOPG   GL154435  21.660  25.670   7.980
 2715DOPG   GL254436  21.940  25.640   8.100
 2715DOPG   C1A54437  21.380  25.270   8.060
 2715DOPG   D2A54438  21.170  25.100   7.820
 2715DOPG   C3A54439  20.840  25.250   7.610
 2715DOPG   C4A54440  20.440  25.130   7.300
 2715DOPG   C1B54441  22.070  25.440   8.560
 2715DOPG   D2B54442  21.950  25.130   8.790
 2715DOPG   C3B54443  22.130  24.820   9.010
 2715DOPG   C4B54444  22.370  24.850   9.420
 2716DOPG   GL054445  20.380   7.050  15.970
 2716DOPG   PO454446  20.770   7.010  16.170
 2716DOPG   GL154447  20.790   7.370  15.900
 2716DOPG   GL254448  20.870   7.570  16.170
 2716DOPG   C1A54449  20.730   7.710  15.530
 2716DOPG   D2A54450  20.780   8.120  15.350
 2716DOPG   C3A54451  20.500   8.030  14.980
 2716DOPG   C4A54452  20.560   7.950  14.550
 2716DOPG   C1B54453  20.610   7.850  16.000
 2716DOPG   D2B54454  20.450   8.160  15.660
 2716DOPG   C3B54455  20.500   8.510  15.740
 2716DOPG   C4B54456  20.320   8.960  15.690
 2717DOPG   GL054457  21.900  14.440  15.300
 2717DOPG   PO454458  22.030  14.050  15.540
 2717DOPG   GL154459  22.220  14.260  15.750
 2717DOPG   GL254460  22.470  13.980  15.770
 2717DOPG   C1A54461  22.390  14.520  15.970
 2717DOPG   D2A54462  22.510  14.950  16.240
 2717DOPG   C3A54463  22.450  15.040  16.660
 2717DOPG   C4A54464  22.310  14.840  17.000
 2717DOPG   C1B54465  22.510  13.690  16.060
 2717DOPG   D2B54466  22.790  13.400  16.300
 2717DOPG   C3B54467  22.620  13.330  16.750
 2717DOPG   C4B54468  22.380  13.630  17.040
 2718DOPG   GL054469  10.460  13.940  13.780
 2718DOPG   PO454470  10.090  13.830  14.040
 2718DOPG   GL154471   9.610  13.750  14.060
 2718DOPG   GL254472   9.540  14.060  13.860
 2718DOPG   C1A54473   9.350  13.500  14.190
 2718DOPG   D2A54474   8.920  13.570  14.350
 2718DOPG   C3A54475   8.590  13.910  14.330
 2718DOPG   C4A54476   8.200  14.100  14.260
 2718DOPG   C1B54477   9.210  13.720  13.770
 2718DOPG   D2B54478   8.820  13.580  13.830
 2718DOPG   C3B54479   8.420  13.780  13.820
 2718DOPG   C4B54480   8.040  13.640  14.010
 2719DOPG   GL054481  15.880  15.720  13.200
 2719DOPG   PO454482  15.570  15.560  13.450
 2719DOPG   GL154483  15.270  15.550  13.660
 2719DOPG   GL254484  15.290  15.540  13.990
 2719DOPG   C1A54485  14.840  15.520  13.780
 2719DOPG   D2A54486  14.520  15.770  13.790
 2719DOPG   C3A54487  14.590  16.070  14.040
 2719DOPG   C4A54488  14.750  16.170  14.390
 2719DOPG   C1B54489  15.020  15.940  13.770
 2719DOPG   D2B54490  14.730  16.100  13.470
 2719DOPG   C3B54491  14.420  16.320  13.640
 2719DOPG   C4B54492  14.220  16.480  14.070
 2720DOPG   GL054493  21.590  10.230  14.880
 2720DOPG   PO454494  21.810  10.000  14.500
 2720DOPG   GL154495  22.000   9.580  14.500
 2720DOPG   GL254496  22.230   9.550  14.790
 2720DOPG   C1A54497  22.000   9.230  14.300
 2720DOPG   D2A54498  21.780   8.840  14.260
 2720DOPG   C3A54499  21.960   8.630  14.630
 2720DOPG   C4A54500  22.160   8.640  15.020
 2720DOPG   C1B54501  22.230   9.480  15.190
 2720DOPG   D2B54502  22.360   9.330  15.590
 2720DOPG   C3B54503  22.600   9.720  15.810
 2720DOPG   C4B54504  22.640  10.020  16.200
 2721DOPG   GL054505  13.340   7.580  17.390
 2721DOPG   PO454506  13.520   7.880  17.660
 2721DOPG   GL154507  13.070   7.820  17.760
 2721DOPG   GL254508  12.980   8.100  18.000
 2721DOPG   C1A54509  12.660   7.620  17.790
 2721DOPG   D2A54510  12.500   7.230  17.960
 2721DOPG   C3A54511  12.160   7.300  18.300
 2721DOPG   C4A54512  11.980   7.430  18.560
 2721DOPG   C1B54513  12.720   7.860  18.260
 2721DOPG   D2B54514  12.350   7.760  18.340
 2721DOPG   C3B54515  12.210   7.840  18.750
 2721DOPG   C4B54516  11.880   7.790  18.950
 2722DOPG   GL054517  13.440  14.060  22.860
 2722DOPG   PO454518  13.510  13.620  23.100
 2722DOPG   GL154519  13.520  13.530  22.740
 2722DOPG   GL254520  13.340  13.650  22.560
 2722DOPG   C1A54521  13.730  13.580  22.310
 2722DOPG   D2A54522  13.730  13.750  21.900
 2722DOPG   C3A54523  13.730  13.530  21.560
 2722DOPG   C4A54524  13.700  13.520  21.140
 2722DOPG   C1B54525  13.480  14.010  22.340
 2722DOPG   D2B54526  13.930  14.040  22.320
 2722DOPG   C3B54527  14.010  14.210  21.920
 2722DOPG   C4B54528  13.890  14.480  21.530
 2723DOPG   GL054529  20.580  17.420  12.370
 2723DOPG   PO454530  21.000  17.460  12.160
 2723DOPG   GL154531  21.220  17.730  11.990
 2723DOPG   GL254532  20.950  17.990  12.010
 2723DOPG   C1A54533  21.650  17.930  11.810
 2723DOPG   D2A54534  21.960  18.270  11.760
 2723DOPG   C3A54535  21.960  18.570  11.530
 2723DOPG   C4A54536  22.020  19.020  11.550
 2723DOPG   C1B54537  21.120  18.060  11.610
 2723DOPG   D2B54538  21.310  18.040  11.230
 2723DOPG   C3B54539  21.500  18.370  11.040
 2723DOPG   C4B54540  21.570  18.790  11.310
 2724DOPG   GL054541  17.420  23.630  11.840
 2724DOPG   PO454542  17.460  24.000  12.130
 2724DOPG   GL154543  17.520  24.430  12.220
 2724DOPG   GL254544  17.830  24.560  12.470
 2724DOPG   C1A54545  17.320  24.790  12.260
 2724DOPG   D2A54546  17.150  25.150  12.190
 2724DOPG   C3A54547  16.800  25.460  12.170
 2724DOPG   C4A54548  16.890  25.820  12.030
 2724DOPG   C1B54549  17.680  24.930  12.610
 2724DOPG   D2B54550  17.670  25.340  12.870
 2724DOPG   C3B54551  17.580  25.700  12.980
 2724DOPG   C4B54552  17.530  25.790  13.420
 2725DOPG   GL054553  26.770  17.360  15.630
 2725DOPG   PO454554  26.450  17.420  15.470
 2725DOPG   GL154555  26.100  17.400  15.150
 2725DOPG   GL254556  25.760  17.300  15.280
 2725DOPG   C1A54557  25.910  17.060  14.850
 2725DOPG   D2A54558  25.650  16.770  14.760
 2725DOPG   C3A54559  25.340  16.680  14.840
 2725DOPG   C4A54560  25.040  16.430  14.710
 2725DOPG   C1B54561  25.740  16.760  15.260
 2725DOPG   D2B54562  25.780  16.360  15.490
 2725DOPG   C3B54563  25.530  16.120  15.730
 2725DOPG   C4B54564  25.190  15.840  15.760
 2726DOPG   GL054565  21.460  17.860  13.350
 2726DOPG   PO454566  21.450  17.970  12.910
 2726DOPG   GL154567  21.380  18.380  12.770
 2726DOPG   GL254568  21.580  18.510  12.410
 2726DOPG   C1A54569  21.580  18.870  12.820
 2726DOPG   D2A54570  21.750  19.230  12.960
 2726DOPG   C3A54571  21.450  19.580  13.060
 2726DOPG   C4A54572  21.190  19.880  13.250
 2726DOPG   C1B54573  21.470  18.340  12.000
 2726DOPG   D2B54574  21.470  18.380  11.590
 2726DOPG   C3B54575  21.110  18.590  11.350
 2726DOPG   C4B54576  21.140  18.690  10.990
 2727DOPG   GL054577  18.880  10.680   8.310
 2727DOPG   PO454578  18.930  10.650   7.900
 2727DOPG   GL154579  19.030  10.520   7.470
 2727DOPG   GL254580  19.060  10.740   7.300
 2727DOPG   C1A54581  19.090  10.200   7.250
 2727DOPG   D2A54582  19.150  10.130   6.770
 2727DOPG   C3A54583  19.240   9.720   6.610
 2727DOPG   C4A54584  19.380   9.410   6.420
 2727DOPG   C1B54585  18.860  10.560   6.870
 2727DOPG   D2B54586  18.570  10.360   6.510
 2727DOPG   C3B54587  18.180  10.140   6.370
 2727DOPG   C4B54588  17.750  10.140   6.290
 2728DOPG   GL054589  23.360  21.090  16.440
 2728DOPG   PO454590  23.430  21.460  16.290
 2728DOPG   GL154591  23.730  21.680  16.580
 2728DOPG   GL254592  24.090  21.510  16.580
 2728DOPG   C1A54593  24.070  21.840  16.930
 2728DOPG   D2A54594  24.160  22.230  17.160
 2728DOPG   C3A54595  24.410  22.220  17.560
 2728DOPG   C4A54596  24.450  22.020  17.980
 2728DOPG   C1B54597  24.420  21.520  16.780
 2728DOPG   D2B54598  24.820  21.440  16.830
 2728DOPG   C3B54599  25.160  21.470  17.100
 2728DOPG   C4B54600  25.310  21.450  17.570
 2729DOPG   GL054601  20.440  10.200   8.750
 2729DOPG   PO454602  20.320  10.260   9.100
 2729DOPG   GL154603  20.380  10.600   9.420
 2729DOPG   GL254604  20.260  10.940   9.400
 2729DOPG   C1A54605  20.520  10.650   9.910
 2729DOPG   D2A54606  20.740  10.820  10.220
 2729DOPG   C3A54607  20.760  10.500  10.600
 2729DOPG   C4A54608  20.650  10.360  11.000
 2729DOPG   C1B54609  20.390  11.130   9.770
 2729DOPG   D2B54610  20.240  11.130  10.130
 2729DOPG   C3B54611  20.210  10.750  10.300
 2729DOPG   C4B54612  20.440  10.360  10.310
 2730DOPG   GL054613  25.370  18.160  11.370
 2730DOPG   PO454614  25.640  17.820  11.280
 2730DOPG   GL154615  25.250  17.680  11.500
 2730DOPG   GL254616  25.100  17.820  11.750
 2730DOPG   C1A54617  24.860  17.420  11.530
 2730DOPG   D2A54618  24.490  17.330  11.730
 2730DOPG   C3A54619  24.350  17.030  11.980
 2730DOPG   C4A54620  24.020  16.900  12.220
 2730DOPG   C1B54621  24.810  17.620  11.970
 2730DOPG   D2B54622  24.730  17.340  12.250
 2730DOPG   C3B54623  24.660  16.940  12.390
 2730DOPG   C4B54624  24.940  16.680  12.500
 2731DOPG   GL054625  20.910  17.990  14.810
 2731DOPG   PO454626  20.570  18.310  14.490
 2731DOPG   GL154627  20.680  18.620  14.700
 2731DOPG   GL254628  20.700  18.870  14.520
 2731DOPG   C1A54629  21.030  18.970  14.890
 2731DOPG   D2A54630  21.490  19.050  14.800
 2731DOPG   C3A54631  21.720  18.790  14.620
 2731DOPG   C4A54632  22.130  18.610  14.750
 2731DOPG   C1B54633  20.610  19.250  14.820
 2731DOPG   D2B54634  20.820  19.370  15.200
 2731DOPG   C3B54635  20.890  19.190  15.520
 2731DOPG   C4B54636  21.120  19.270  15.940
 2732DOPG   GL054637  21.990   5.390  13.210
 2732DOPG   PO454638  22.200   5.000  13.370
 2732DOPG   GL154639  22.320   4.610  13.610
 2732DOPG   GL254640  22.170   4.510  13.890
 2732DOPG   C1A54641  22.570   4.160  13.650
 2732DOPG   D2A54642  22.770   3.730  13.690
 2732DOPG   C3A54643  22.700   3.420  13.950
 2732DOPG   C4A54644  22.650   3.340  14.440
 2732DOPG   C1B54645  22.030   4.180  13.660
 2732DOPG   D2B54646  22.210   3.820  13.620
 2732DOPG   C3B54647  22.480   3.570  13.280
 2732DOPG   C4B54648  22.470   3.610  12.870
 2733DOPG   GL054649  12.550  19.290  15.820
 2733DOPG   PO454650  12.530  19.080  15.350
 2733DOPG   GL154651  12.930  18.970  15.040
 2733DOPG   GL254652  12.850  18.790  14.740
 2733DOPG   C1A54653  13.290  18.610  14.960
 2733DOPG   D2A54654  13.740  18.330  14.990
 2733DOPG   C3A54655  13.940  18.340  14.600
 2733DOPG   C4A54656  13.960  18.630  14.150
 2733DOPG   C1B54657  12.990  18.520  14.490
 2733DOPG   D2B54658  13.440  18.490  14.430
 2733DOPG   C3B54659  13.650  18.220  14.210
 2733DOPG   C4B54660  14.030  17.990  14.200
 2734DOPG   GL054661  16.860  15.860  18.990
 2734DOPG   PO454662  16.560  15.800  18.640
 2734DOPG   GL154663  16.630  15.840  18.190
 2734DOPG   GL254664  16.670  16.130  18.170
 2734DOPG   C1A54665  16.460  16.000  17.720
 2734DOPG   D2A54666  16.400  16.060  17.200
 2734DOPG   C3A54667  16.750  15.680  17.070
 2734DOPG   C4A54668  16.990  15.420  17.300
 2734DOPG   C1B54669  17.020  16.100  17.940
 2734DOPG   D2B54670  17.310  15.790  17.690
 2734DOPG   C3B54671  17.290  15.830  17.260
 2734DOPG   C4B54672  17.280  15.670  16.860
 2735DOPG   GL054673  12.550  14.830  10.340
 2735DOPG   PO454674  12.800  15.080   9.990
 2735DOPG   GL154675  13.050  15.040  10.440
 2735DOPG   GL254676  13.220  15.310  10.570
 2735DOPG   C1A54677  13.380  14.910  10.850
 2735DOPG   D2A54678  13.780  14.690  11.050
 2735DOPG   C3A54679  13.880  14.300  10.970
 2735DOPG   C4A54680  13.710  13.910  10.920
 2735DOPG   C1B54681  13.450  15.390  10.900
 2735DOPG   D2B54682  13.710  15.450  11.280
 2735DOPG   C3B54683  14.110  15.480  11.070
 2735DOPG   C4B54684  14.580  15.500  11.060
 2736DOPG   GL054685  11.860  12.270  11.410
 2736DOPG   PO454686  11.470  12.210  11.460
 2736DOPG   GL154687  11.360  12.120  11.160
 2736DOPG   GL254688  11.490  11.850  11.010
 2736DOPG   C1A54689  11.210  12.280  10.770
 2736DOPG   D2A54690  10.940  12.130  10.560
 2736DOPG   C3A54691  10.630  12.190  10.410
 2736DOPG   C4A54692  10.550  12.470  10.130
 2736DOPG   C1B54693  11.120  11.730  10.730
 2736DOPG   D2B54694  10.840  11.530  10.460
 2736DOPG   C3B54695  10.480  11.700  10.450
 2736DOPG   C4B54696  10.140  11.940  10.190
 2737DOPG   GL054697  25.660   8.980  12.280
 2737DOPG   PO454698  25.140   8.720  12.100
 2737DOPG   GL154699  24.800   8.880  12.310
 2737DOPG   GL254700  24.780   9.280  12.340
 2737DOPG   C1A54701  24.710   8.850  12.720
 2737DOPG   D2A54702  24.280   8.670  12.880
 2737DOPG   C3A54703  24.180   9.000  13.110
 2737DOPG   C4A54704  24.040   9.420  13.170
 2737DOPG   C1B54705  24.500   9.500  12.180
 2737DOPG   D2B54706  24.210   9.890  12.210
 2737DOPG   C3B54707  24.200  10.140  12.560
 2737DOPG   C4B54708  24.000  10.370  12.850
 2738DOPG   GL054709  14.550   7.150  12.540
 2738DOPG   PO454710  14.410   6.810  12.710
 2738DOPG   GL154711  14.320   6.380  12.620
 2738DOPG   GL254712  14.100   6.250  12.370
 2738DOPG   C1A54713  14.440   5.940  12.420
 2738DOPG   D2A54714  14.380   5.510  12.430
 2738DOPG   C3A54715  14.080   5.130  12.220
 2738DOPG   C4A54716  14.300   4.950  11.830
 2738DOPG   C1B54717  13.630   6.200  12.140
 2738DOPG   D2B54718  13.450   6.000  11.750
 2738DOPG   C3B54719  13.380   5.580  11.770
 2738DOPG   C4B54720  13.250   5.170  11.670
 2739DOPG   GL054721  22.980  11.190  13.960
 2739DOPG   PO454722  23.200  11.040  14.260
 2739DOPG   GL154723  23.520  10.830  14.180
 2739DOPG   GL254724  23.970  10.960  14.170
 2739DOPG   C1A54725  23.630  10.610  14.530
 2739DOPG   D2A54726  23.430  10.290  14.780
 2739DOPG   C3A54727  23.500  10.250  15.250
 2739DOPG   C4A54728  23.600  10.080  15.670
 2739DOPG   C1B54729  24.090  10.740  14.540
 2739DOPG   D2B54730  24.380  10.530  14.880
 2739DOPG   C3B54731  24.450  10.180  15.090
 2739DOPG   C4B54732  24.380   9.700  15.010
 2740DOPG   GL054733  21.120  10.110  13.270
 2740DOPG   PO454734  20.760  10.140  13.460
 2740DOPG   GL154735  20.710   9.690  13.400
 2740DOPG   GL254736  20.970   9.590  13.320
 2740DOPG   C1A54737  20.440   9.290  13.510
 2740DOPG   D2A54738  20.500   8.720  13.610
 2740DOPG   C3A54739  20.360   8.560  14.070
 2740DOPG   C4A54740  20.550   8.460  14.470
 2740DOPG   C1B54741  20.820   9.250  13.250
 2740DOPG   D2B54742  20.780   8.840  13.030
 2740DOPG   C3B54743  20.440   8.490  12.940
 2740DOPG   C4B54744  20.140   8.230  12.790
 2741DOPG   GL054745  24.350  26.290  11.070
 2741DOPG   PO454746  24.300  26.290  11.530
 2741DOPG   GL154747  24.210  25.900  11.330
 2741DOPG   GL254748  24.420  25.780  11.080
 2741DOPG   C1A54749  23.950  25.640  11.160
 2741DOPG   D2A54750  23.870  25.260  11.050
 2741DOPG   C3A54751  24.110  24.870  11.220
 2741DOPG   C4A54752  24.100  24.480  10.970
 2741DOPG   C1B54753  24.190  25.700  10.670
 2741DOPG   D2B54754  24.220  25.360  10.440
 2741DOPG   C3B54755  24.570  25.140  10.400
 2741DOPG   C4B54756  24.620  24.690  10.430
 2742DOPG   GL054757  21.520  16.970  12.610
 2742DOPG   PO454758  21.450  17.280  12.360
 2742DOPG   GL154759  21.810  17.480  12.060
 2742DOPG   GL254760  22.050  17.440  11.990
 2742DOPG   C1A54761  21.820  17.370  11.580
 2742DOPG   D2A54762  22.070  17.110  11.260
 2742DOPG   C3A54763  21.880  16.940  10.850
 2742DOPG   C4A54764  21.460  16.920  10.530
 2742DOPG   C1B54765  22.230  17.810  11.830
 2742DOPG   D2B54766  22.500  17.980  11.620
 2742DOPG   C3B54767  22.250  18.170  11.330
 2742DOPG   C4B54768  21.800  18.060  11.350
 2743DOPG   GL054769  11.700  25.090  16.580
 2743DOPG   PO454770  11.870  24.890  16.250
 2743DOPG   GL154771  11.960  24.550  16.090
 2743DOPG   GL254772  12.190  24.360  16.270
 2743DOPG   C1A54773  12.290  24.310  15.710
 2743DOPG   D2A54774  12.600  24.190  15.570
 2743DOPG   C3A54775  12.850  24.460  15.610
 2743DOPG   C4A54776  12.950  24.880  15.670
 2743DOPG   C1B54777  12.200  23.970  16.100
 2743DOPG   D2B54778  12.450  23.740  15.750
 2743DOPG   C3B54779  12.840  23.780  15.520
 2743DOPG   C4B54780  13.040  23.380  15.230
 2744DOPG   GL054781  14.730   5.780  14.820
 2744DOPG   PO454782  14.810   5.820  15.240
 2744DOPG   GL154783  14.500   5.460  15.210
 2744DOPG   GL254784  14.580   5.220  14.980
 2744DOPG   C1A54785  14.070   5.350  15.200
 2744DOPG   D2A54786  13.670   5.360  15.310
 2744DOPG   C3A54787  13.560   5.050  15.640
 2744DOPG   C4A54788  13.130   4.920  15.710
 2744DOPG   C1B54789  14.360   4.930  15.240
 2744DOPG   D2B54790  14.240   4.570  15.240
 2744DOPG   C3B54791  14.510   4.210  15.390
 2744DOPG   C4B54792  14.750   3.920  15.040
 2745DOPG   GL054793  11.010  14.520  12.010
 2745DOPG   PO454794  10.610  14.420  12.170
 2745DOPG   GL154795  10.180  14.570  12.150
 2745DOPG   GL254796  10.070  14.700  11.860
 2745DOPG   C1A54797   9.760  14.700  12.230
 2745DOPG   D2A54798   9.320  14.640  12.220
 2745DOPG   C3A54799   8.960  14.410  11.870
 2745DOPG   C4A54800   8.550  14.390  11.590
 2745DOPG   C1B54801   9.820  14.910  11.450
 2745DOPG   D2B54802   9.550  15.170  11.280
 2745DOPG   C3B54803   9.060  15.030  11.160
 2745DOPG   C4B54804   8.740  14.880  11.400
 2746DOPG   GL054805  26.130   8.900  13.170
 2746DOPG   PO454806  25.780   8.820  13.310
 2746DOPG   GL154807  25.590   9.150  13.640
 2746DOPG   GL254808  25.830   9.350  13.920
 2746DOPG   C1A54809  25.200   9.250  13.670
 2746DOPG   D2A54810  24.780   9.330  13.670
 2746DOPG   C3A54811  24.620   9.410  14.190
 2746DOPG   C4A54812  24.700   9.780  14.350
 2746DOPG   C1B54813  25.510   9.560  13.880
 2746DOPG   D2B54814  25.450   9.900  13.950
 2746DOPG   C3B54815  25.400  10.330  13.930
 2746DOPG   C4B54816  25.250  10.600  14.180
 2747DOPG   GL054817  22.430  15.040  13.010
 2747DOPG   PO454818  22.850  15.170  12.960
 2747DOPG   GL154819  23.080  15.190  12.650
 2747DOPG   GL254820  23.360  15.080  12.630
 2747DOPG   C1A54821  23.180  15.180  12.200
 2747DOPG   D2A54822  23.530  15.240  11.880
 2747DOPG   C3A54823  23.740  15.630  11.800
 2747DOPG   C4A54824  24.280  15.660  11.760
 2747DOPG   C1B54825  23.680  14.960  12.340
 2747DOPG   D2B54826  24.150  15.000  12.330
 2747DOPG   C3B54827  24.490  15.030  12.090
 2747DOPG   C4B54828  24.610  15.340  11.700
 2748DOPG   GL054829  17.940  13.520  14.450
 2748DOPG   PO454830  17.610  13.550  14.710
 2748DOPG   GL154831  17.240  13.360  15.020
 2748DOPG   GL254832  17.220  13.650  14.970
 2748DOPG   C1A54833  17.030  12.910  14.990
 2748DOPG   D2A54834  16.640  12.770  15.050
 2748DOPG   C3A54835  16.330  12.990  14.850
 2748DOPG   C4A54836  16.190  13.300  15.010
 2748DOPG   C1B54837  16.770  13.580  15.150
 2748DOPG   D2B54838  16.380  13.620  15.340
 2748DOPG   C3B54839  16.310  14.010  15.320
 2748DOPG   C4B54840  16.270  14.470  15.250
 2749DOPG   GL054841  16.200  22.360  13.510
 2749DOPG   PO454842  16.490  22.120  13.400
 2749DOPG   GL154843  16.570  21.700  13.540
 2749DOPG   GL254844  16.310  21.390  13.610
 2749DOPG   C1A54845  16.970  21.520  13.670
 2749DOPG   D2A54846  17.310  21.360  13.940
 2749DOPG   C3A54847  17.240  20.960  13.820
 2749DOPG   C4A54848  17.090  20.820  13.460
 2749DOPG   C1B54849  16.390  21.010  13.290
 2749DOPG   D2B54850  16.150  20.560  13.290
 2749DOPG   C3B54851  15.920  20.310  13.020
 2749DOPG   C4B54852  15.430  20.090  13.090
 2750DOPG   GL054853  13.360  15.000   9.990
 2750DOPG   PO454854  13.680  14.980   9.630
 2750DOPG   GL154855  14.060  14.890   9.900
 2750DOPG   GL254856  13.810  14.580   9.980
 2750DOPG   C1A54857  14.430  14.900  10.290
 2750DOPG   D2A54858  14.810  15.110  10.240
 2750DOPG   C3A54859  14.950  15.060  10.760
 2750DOPG   C4A54860  15.070  15.090  11.120
 2750DOPG   C1B54861  14.300  14.470   9.940
 2750DOPG   D2B54862  14.720  14.540  10.120
 2750DOPG   C3B54863  14.750  14.550  10.550
 2750DOPG   C4B54864  14.730  14.660  11.070
 2751DOPG   GL054865  21.990  17.140  12.920
 2751DOPG   PO454866  22.010  17.290  12.470
 2751DOPG   GL154867  22.040  17.680  12.430
 2751DOPG   GL254868  22.360  17.710  12.610
 2751DOPG   C1A54869  22.010  18.110  12.260
 2751DOPG   D2A54870  22.080  18.410  12.510
 2751DOPG   C3A54871  22.560  18.430  12.620
 2751DOPG   C4A54872  22.740  18.160  12.890
 2751DOPG   C1B54873  22.680  17.970  12.400
 2751DOPG   D2B54874  22.870  18.320  12.260
 2751DOPG   C3B54875  23.150  18.190  11.950
 2751DOPG   C4B54876  23.370  18.200  11.600
 2752DOPG   GL054877  17.010  14.500  12.370
 2752DOPG   PO454878  16.690  14.750  12.010
 2752DOPG   GL154879  16.850  14.300  11.900
 2752DOPG   GL254880  16.560  14.180  12.200
 2752DOPG   C1A54881  16.890  14.100  11.480
 2752DOPG   D2A54882  16.770  14.290  11.090
 2752DOPG   C3A54883  16.600  14.100  10.640
 2752DOPG   C4A54884  16.480  13.600  10.610
 2752DOPG   C1B54885  16.410  14.090  11.740
 2752DOPG   D2B54886  16.320  13.970  11.400
 2752DOPG   C3B54887  16.220  14.130  11.000
 2752DOPG   C4B54888  16.210  14.420  10.660
 2753DOPG   GL054889  19.250  22.170   4.060
 2753DOPG   PO454890  19.320  21.770   4.020
 2753DOPG   GL154891  19.330  21.820   4.390
 2753DOPG   GL254892  19.260  21.950   4.710
 2753DOPG   C1A54893  19.400  21.380   4.650
 2753DOPG   D2A54894  19.430  20.990   4.810
 2753DOPG   C3A54895  19.610  21.010   5.220
 2753DOPG   C4A54896  19.510  21.040   5.630
 2753DOPG   C1B54897  19.530  21.770   4.950
 2753DOPG   D2B54898  19.470  21.490   5.370
 2753DOPG   C3B54899  19.650  21.580   5.750
 2753DOPG   C4B54900  19.490  21.410   6.200
 2754DOPG   GL054901  11.460  16.550  13.040
 2754DOPG   PO454902  11.730  16.280  13.230
 2754DOPG   GL154903  12.150  16.180  13.280
 2754DOPG   GL254904  12.340  16.070  13.040
 2754DOPG   C1A54905  12.510  16.310  13.440
 2754DOPG   D2A54906  13.000  16.360  13.290
 2754DOPG   C3A54907  13.250  16.030  13.350
 2754DOPG   C4A54908  13.550  16.030  13.570
 2754DOPG   C1B54909  12.660  16.380  12.910
 2754DOPG   D2B54910  12.980  16.660  12.890
 2754DOPG   C3B54911  13.250  16.820  13.190
 2754DOPG   C4B54912  13.490  17.070  13.340
 2755DOPG   GL054913  12.560  13.820  13.000
 2755DOPG   PO454914  12.700  13.440  12.740
 2755DOPG   GL154915  13.080  13.670  12.940
 2755DOPG   GL254916  13.170  13.990  12.600
 2755DOPG   C1A54917  13.330  13.770  13.260
 2755DOPG   D2A54918  13.490  13.690  13.540
 2755DOPG   C3A54919  13.880  13.980  13.660
 2755DOPG   C4A54920  13.970  14.310  13.860
 2755DOPG   C1B54921  13.470  14.120  12.810
 2755DOPG   D2B54922  13.840  14.310  12.760
 2755DOPG   C3B54923  13.960  14.590  13.030
 2755DOPG   C4B54924  14.100  14.770  13.370
 2756DOPG   GL054925  14.970   6.270  17.060
 2756DOPG   PO454926  14.700   6.340  16.770
 2756DOPG   GL154927  14.510   6.070  16.940
 2756DOPG   GL254928  14.610   5.760  17.110
 2756DOPG   C1A54929  14.140   6.050  17.200
 2756DOPG   D2A54930  13.970   5.710  17.270
 2756DOPG   C3A54931  13.510   5.840  17.250
 2756DOPG   C4A54932  13.280   5.670  17.610
 2756DOPG   C1B54933  14.740   5.440  17.380
 2756DOPG   D2B54934  14.810   4.990  17.500
 2756DOPG   C3B54935  14.580   4.740  17.760
 2756DOPG   C4B54936  14.440   4.680  18.080
 2757DOPG   GL054937  14.430  19.280  17.190
 2757DOPG   PO454938  14.280  19.070  16.820
 2757DOPG   GL154939  14.580  18.930  16.500
 2757DOPG   GL254940  14.920  18.830  16.620
 2757DOPG   C1A54941  14.800  18.840  16.070
 2757DOPG   D2A54942  15.070  18.520  15.770
 2757DOPG   C3A54943  15.320  18.430  15.440
 2757DOPG   C4A54944  15.630  18.730  15.170
 2757DOPG   C1B54945  14.870  18.400  16.410
 2757DOPG   D2B54946  15.010  18.020  16.020
 2757DOPG   C3B54947  15.200  18.000  15.600
 2757DOPG   C4B54948  15.190  17.970  15.150
 2758DOPG   GL054949  15.720  16.500  18.960
 2758DOPG   PO454950  15.560  16.460  19.350
 2758DOPG   GL154951  15.560  16.730  19.770
 2758DOPG   GL254952  15.620  17.040  19.700
 2758DOPG   C1A54953  15.630  16.810  20.160
 2758DOPG   D2A54954  15.560  16.780  20.510
 2758DOPG   C3A54955  15.280  16.550  20.780
 2758DOPG   C4A54956  15.010  16.510  21.110
 2758DOPG   C1B54957  15.330  17.190  20.000
 2758DOPG   D2B54958  15.330  17.420  20.370
 2758DOPG   C3B54959  15.230  17.200  20.710
 2758DOPG   C4B54960  15.210  16.960  21.120
 2759DOPG   GL054961  11.910  12.200  17.080
 2759DOPG   PO454962  11.580  12.170  17.160
 2759DOPG   GL154963  11.340  11.970  17.400
 2759DOPG   GL254964  11.070  12.000  17.270
 2759DOPG   C1A54965  11.120  11.740  17.710
 2759DOPG   D2A54966  10.870  11.720  18.030
 2759DOPG   C3A54967  10.580  11.710  18.300
 2759DOPG   C4A54968  10.270  11.370  18.420
 2759DOPG   C1B54969  10.750  11.980  17.580
 2759DOPG   D2B54970  10.390  11.960  17.840
 2759DOPG   C3B54971  10.130  11.750  18.040
 2759DOPG   C4B54972   9.860  11.560  18.210
 2760DOPG   GL054973  21.400  10.610  14.030
 2760DOPG   PO454974  21.400  10.310  14.380
 2760DOPG   GL154975  21.170   9.900  14.570
 2760DOPG   GL254976  21.010   9.860  14.810
 2760DOPG   C1A54977  21.410   9.520  14.830
 2760DOPG   D2A54978  21.750   9.570  15.070
 2760DOPG   C3A54979  21.730   9.520  15.420
 2760DOPG   C4A54980  21.660   9.720  15.770
 2760DOPG   C1B54981  20.800   9.580  15.100
 2760DOPG   D2B54982  20.580   9.240  15.410
 2760DOPG   C3B54983  20.870   8.960  15.640
 2760DOPG   C4B54984  20.850   8.790  16.030
 2761DOPG   GL054985  25.980   2.220  14.450
 2761DOPG   PO454986  25.880   1.980  14.840
 2761DOPG   GL154987  25.570   2.310  14.860
 2761DOPG   GL254988  25.420   2.380  14.580
 2761DOPG   C1A54989  25.530   2.720  15.070
 2761DOPG   D2A54990  25.240   2.990  15.290
 2761DOPG   C3A54991  25.270   3.370  15.130
 2761DOPG   C4A54992  25.160   3.860  15.170
 2761DOPG   C1B54993  25.200   2.540  14.230
 2761DOPG   D2B54994  25.190   2.550  13.790
 2761DOPG   C3B54995  25.030   2.970  13.640
 2761DOPG   C4B54996  24.710   3.300  13.550
 2762DOPG   GL054997  21.820   4.530   6.350
 2762DOPG   PO454998  22.020   5.010   6.390
 2762DOPG   GL154999  21.810   5.260   6.740
 2762DOPG   GL255000  21.630   5.480   6.570
 2762DOPG   C1A55001  22.010   5.610   6.930
 2762DOPG   D2A55002  21.890   5.950   7.130
 2762DOPG   C3A55003  21.600   6.380   6.970
 2762DOPG   C4A55004  21.450   6.680   6.870
 2762DOPG   C1B55005  21.630   5.910   6.720
 2762DOPG   D2B55006  21.910   6.220   6.640
 2762DOPG   C3B55007  21.880   6.600   6.360
 2762DOPG   C4B55008  21.900   6.930   6.080
 2763DOPG   GL055009   7.370   9.000  16.310
 2763DOPG   PO455010   7.340   9.500  16.370
 2763DOPG   GL155011   7.720   9.690  16.380
 2763DOPG   GL255012   7.770   9.890  16.650
 2763DOPG   C1A55013   8.140   9.610  16.650
 2763DOPG   D2A55014   8.340   9.790  17.000
 2763DOPG   C3A55015   8.420  10.040  17.160
 2763DOPG   C4A55016   8.500  10.300  17.470
 2763DOPG   C1B55017   8.180  10.090  16.650
 2763DOPG   D2B55018   8.480  10.100  16.490
 2763DOPG   C3B55019   8.780  10.380  16.290
 2763DOPG   C4B55020   9.100  10.570  16.410
 2764DOPG   GL055021  25.940   9.450  13.400
 2764DOPG   PO455022  26.220   9.590  13.710
 2764DOPG   GL155023  26.020   9.880  13.870
 2764DOPG   GL255024  26.020   9.720  14.210
 2764DOPG   C1A55025  25.800  10.130  14.140
 2764DOPG   D2A55026  25.570  10.170  14.500
 2764DOPG   C3A55027  25.250  10.410  14.610
 2764DOPG   C4A55028  24.890  10.730  14.550
 2764DOPG   C1B55029  25.600   9.650  14.370
 2764DOPG   D2B55030  25.230   9.830  14.570
 2764DOPG   C3B55031  25.300  10.050  15.000
 2764DOPG   C4B55032  25.410  10.170  15.360
 2765DOPG   GL055033  20.790  18.950  24.100
 2765DOPG   PO455034  20.430  18.710  23.880
 2765DOPG   GL155035  20.500  18.440  23.480
 2765DOPG   GL255036  20.380  18.650  23.260
 2765DOPG   C1A55037  20.560  18.050  23.210
 2765DOPG   D2A55038  20.660  17.630  23.010
 2765DOPG   C3A55039  20.890  17.580  22.640
 2765DOPG   C4A55040  21.100  17.300  22.250
 2765DOPG   C1B55041  20.580  18.550  22.880
 2765DOPG   D2B55042  20.800  18.610  22.490
 2765DOPG   C3B55043  20.440  18.540  22.150
 2765DOPG   C4B55044  20.490  18.520  21.680
 2766DOPG   GL055045  25.530  13.880  17.910
 2766DOPG   PO455046  25.840  14.110  17.630
 2766DOPG   GL155047  25.720  13.980  17.170
 2766DOPG   GL255048  25.380  14.180  17.050
 2766DOPG   C1A55049  25.740  13.760  16.850
 2766DOPG   D2A55050  25.920  13.980  16.530
 2766DOPG   C3A55051  25.740  14.380  16.650
 2766DOPG   C4A55052  25.310  14.660  16.800
 2766DOPG   C1B55053  25.290  14.040  16.620
 2766DOPG   D2B55054  25.320  14.040  16.120
 2766DOPG   C3B55055  25.010  14.050  15.790
 2766DOPG   C4B55056  24.630  14.060  16.020
 2767DOPG   GL055057  18.550  21.800  15.750
 2767DOPG   PO455058  18.290  21.720  15.730
 2767DOPG   GL155059  18.140  21.310  15.640
 2767DOPG   GL255060  18.220  21.050  15.750
 2767DOPG   C1A55061  17.920  21.080  15.260
 2767DOPG   D2A55062  17.760  20.690  15.200
 2767DOPG   C3A55063  18.080  20.210  15.400
 2767DOPG   C4A55064  17.920  19.870  15.250
 2767DOPG   C1B55065  18.330  20.700  15.390
 2767DOPG   D2B55066  18.570  20.330  15.390
 2767DOPG   C3B55067  18.430  20.000  15.140
 2767DOPG   C4B55068  18.220  19.740  14.840
 2768DOPG   GL055069  23.750  11.080   8.200
 2768DOPG   PO455070  23.570  10.950   7.790
 2768DOPG   GL155071  23.440  10.790   7.510
 2768DOPG   GL255072  23.380  10.570   7.470
 2768DOPG   C1A55073  23.630  11.020   7.130
 2768DOPG   D2A55074  23.690  10.990   6.740
 2768DOPG   C3A55075  23.750  10.750   6.340
 2768DOPG   C4A55076  23.880  10.710   5.900
 2768DOPG   C1B55077  23.280  10.570   7.000
 2768DOPG   D2B55078  23.270  10.730   6.630
 2768DOPG   C3B55079  23.220  10.610   6.310
 2768DOPG   C4B55080  22.920  10.590   5.980
 2769DOPG   GL055081  25.610  19.610   5.280
 2769DOPG   PO455082  25.820  20.000   5.180
 2769DOPG   GL155083  25.570  20.100   5.470
 2769DOPG   GL255084  25.710  19.970   5.640
 2769DOPG   C1A55085  25.520  20.290   5.930
 2769DOPG   D2A55086  25.300  20.300   6.320
 2769DOPG   C3A55087  24.900  20.470   6.400
 2769DOPG   C4A55088  24.700  20.670   6.730
 2769DOPG   C1B55089  25.360  19.790   5.910
 2769DOPG   D2B55090  25.270  19.500   6.190
 2769DOPG   C3B55091  25.340  19.400   6.640
 2769DOPG   C4B55092  25.490  19.650   6.940
 2770DOPG   GL055093   8.920  15.250   7.110
 2770DOPG   PO455094   8.800  14.730   7.330
 2770DOPG   GL155095   9.200  14.840   7.290
 2770DOPG   GL255096   9.420  14.800   7.270
 2770DOPG   C1A55097   9.410  14.990   7.730
 2770DOPG   D2A55098   9.760  15.010   8.060
 2770DOPG   C3A55099   9.980  15.400   8.140
 2770DOPG   C4A55100  10.370  15.530   7.900
 2770DOPG   C1B55101   9.810  14.860   7.450
 2770DOPG   D2B55102  10.140  14.990   7.720
 2770DOPG   C3B55103  10.420  14.710   7.800
 2770DOPG   C4B55104  10.520  14.380   8.130
 2771DOPG   GL055105  22.720  22.100  13.970
 2771DOPG   PO455106  22.550  21.710  14.100
 2771DOPG   GL155107  22.350  21.270  13.990
 2771DOPG   GL255108  22.540  21.230  13.660
 2771DOPG   C1A55109  22.300  20.820  13.760
 2771DOPG   D2A55110  22.410  20.430  13.690
 2771DOPG   C3A55111  22.620  20.290  13.330
 2771DOPG   C4A55112  22.620  20.320  12.810
 2771DOPG   C1B55113  22.150  21.130  13.420
 2771DOPG   D2B55114  21.800  20.910  13.210
 2771DOPG   C3B55115  21.870  20.570  13.010
 2771DOPG   C4B55116  22.110  20.490  12.650
 2772DOPG   GL055117  23.110  22.310  22.240
 2772DOPG   PO455118  23.020  22.540  21.910
 2772DOPG   GL155119  22.680  22.210  21.750
 2772DOPG   GL255120  22.810  22.090  21.410
 2772DOPG   C1A55121  22.220  22.110  21.710
 2772DOPG   D2A55122  21.820  22.160  21.490
 2772DOPG   C3A55123  21.690  22.160  20.980
 2772DOPG   C4A55124  21.420  22.300  20.630
 2772DOPG   C1B55125  22.820  21.710  21.250
 2772DOPG   D2B55126  22.900  21.360  20.990
 2772DOPG   C3B55127  22.450  21.190  20.810
 2772DOPG   C4B55128  22.150  20.980  20.490
 2773DOPG   GL055129  27.380  11.770   4.690
 2773DOPG   PO455130  27.250  11.710   5.020
 2773DOPG   GL155131  27.080  11.530   5.420
 2773DOPG   GL255132  27.110  11.250   5.460
 2773DOPG   C1A55133  26.940  11.620   5.900
 2773DOPG   D2A55134  26.700  11.510   6.340
 2773DOPG   C3A55135  26.270  11.660   6.270
 2773DOPG   C4A55136  26.030  11.830   5.940
 2773DOPG   C1B55137  26.680  11.190   5.370
 2773DOPG   D2B55138  26.570  11.490   5.050
 2773DOPG   C3B55139  26.140  11.680   5.130
 2773DOPG   C4B55140  25.780  11.850   4.950
 2774DOPG   GL055141  20.830  15.060  24.770
 2774DOPG   PO455142  20.670  14.970  24.370
 2774DOPG   GL155143  20.540  14.760  24.060
 2774DOPG   GL255144  20.680  14.510  24.030
 2774DOPG   C1A55145  20.350  14.460  23.620
 2774DOPG   D2A55146  20.280  14.190  23.460
 2774DOPG   C3A55147  20.430  14.030  22.970
 2774DOPG   C4A55148  20.260  14.140  22.570
 2774DOPG   C1B55149  20.760  14.250  23.720
 2774DOPG   D2B55150  20.820  14.090  23.290
 2774DOPG   C3B55151  21.230  14.080  23.050
 2774DOPG   C4B55152  21.420  13.900  22.710
 2775DOPG   GL055153  26.350  15.220   9.690
 2775DOPG   PO455154  26.300  14.840   9.460
 2775DOPG   GL155155  26.650  15.080   9.290
 2775DOPG   GL255156  26.900  15.000   8.990
 2775DOPG   C1A55157  26.890  15.470   9.320
 2775DOPG   D2A55158  27.390  15.580   9.360
 2775DOPG   C3A55159  27.860  15.610   9.190
 2775DOPG   C4A55160  28.150  15.810   8.980
 2775DOPG   C1B55161  26.780  14.880   8.610
 2775DOPG   D2B55162  26.800  15.010   8.250
 2775DOPG   C3B55163  26.950  15.300   7.970
 2775DOPG   C4B55164  26.930  15.750   7.870
 2776DOPG   GL055165  30.670  17.140   8.450
 2776DOPG   PO455166  30.640  17.100   8.890
 2776DOPG   GL155167  30.330  16.860   9.110
 2776DOPG   GL255168  30.260  16.620   9.500
 2776DOPG   C1A55169  29.910  16.690   9.130
 2776DOPG   D2A55170  29.720  16.220   9.230
 2776DOPG   C3A55171  29.320  16.060   9.380
 2776DOPG   C4A55172  29.050  15.770   9.560
 2776DOPG   C1B55173  30.090  16.360   9.900
 2776DOPG   D2B55174  29.730  16.340   9.950
 2776DOPG   C3B55175  29.450  16.290  10.320
 2776DOPG   C4B55176  29.300  15.960  10.540
 2777DOPG   GL055177  19.980   7.640  17.010
 2777DOPG   PO455178  19.810   7.950  16.870
 2777DOPG   GL155179  19.900   8.410  16.870
 2777DOPG   GL255180  19.860   8.390  17.170
 2777DOPG   C1A55181  20.270   8.660  16.580
 2777DOPG   D2A55182  20.530   8.900  16.420
 2777DOPG   C3A55183  20.420   9.210  16.170
 2777DOPG   C4A55184  20.680   9.390  15.840
 2777DOPG   C1B55185  19.880   8.920  17.220
 2777DOPG   D2B55186  19.760   9.130  17.560
 2777DOPG   C3B55187  19.590   9.530  17.510
 2777DOPG   C4B55188  19.170   9.580  17.630
 2778DOPG   GL055189   9.260   6.710  13.330
 2778DOPG   PO455190   9.410   6.790  12.940
 2778DOPG   GL155191   9.730   6.740  12.750
 2778DOPG   GL255192   9.760   6.770  12.410
 2778DOPG   C1A55193  10.170   7.010  12.770
 2778DOPG   D2A55194  10.420   7.240  13.020
 2778DOPG   C3A55195  10.240   7.530  13.430
 2778DOPG   C4A55196  10.380   7.850  13.720
 2778DOPG   C1B55197   9.840   7.170  12.420
 2778DOPG   D2B55198  10.120   7.520  12.480
 2778DOPG   C3B55199  10.200   7.740  12.950
 2778DOPG   C4B55200  10.510   7.980  13.260
 2779DOPG   GL055201  16.390  15.100  13.620
 2779DOPG   PO455202  15.950  14.820  13.710
 2779DOPG   GL155203  15.550  14.540  13.540
 2779DOPG   GL255204  15.290  14.670  13.340
 2779DOPG   C1A55205  15.190  14.440  13.750
 2779DOPG   D2A55206  14.820  14.500  13.730
 2779DOPG   C3A55207  14.850  14.630  14.120
 2779DOPG   C4A55208  14.980  14.850  14.440
 2779DOPG   C1B55209  15.170  14.560  13.030
 2779DOPG   D2B55210  14.800  14.540  12.850
 2779DOPG   C3B55211  14.550  14.580  13.180
 2779DOPG   C4B55212  14.210  14.310  13.360
 2780DOPG   GL055213  20.060   9.980  18.610
 2780DOPG   PO455214  20.490   9.670  18.620
 2780DOPG   GL155215  20.280   9.760  18.200
 2780DOPG   GL255216  20.000   9.580  18.080
 2780DOPG   C1A55217  20.290  10.290  18.050
 2780DOPG   D2A55218  20.140  10.730  18.000
 2780DOPG   C3A55219  20.320  10.950  17.680
 2780DOPG   C4A55220  20.500  11.380  17.680
 2780DOPG   C1B55221  19.940   9.830  17.680
 2780DOPG   D2B55222  20.010   9.960  17.370
 2780DOPG   C3B55223  19.830  10.350  17.200
 2780DOPG   C4B55224  19.910  10.600  16.830
 2781DOPG   GL055225  23.160  19.310   9.800
 2781DOPG   PO455226  23.400  19.610   9.880
 2781DOPG   GL155227  23.220  19.450  10.320
 2781DOPG   GL255228  23.120  19.630  10.630
 2781DOPG   C1A55229  23.040  19.110  10.500
 2781DOPG   D2A55230  23.100  18.700  10.490
 2781DOPG   C3A55231  23.280  18.410  10.700
 2781DOPG   C4A55232  23.410  18.490  11.140
 2781DOPG   C1B55233  23.270  19.360  10.840
 2781DOPG   D2B55234  23.220  18.890  10.950
 2781DOPG   C3B55235  22.890  18.570  10.950
 2781DOPG   C4B55236  22.450  18.420  10.920
 2782DOPG   GL055237  13.430   8.760  17.950
 2782DOPG   PO455238  13.060   8.630  18.020
 2782DOPG   GL155239  12.850   8.430  18.350
 2782DOPG   GL255240  12.980   8.260  18.610
 2782DOPG   C1A55241  12.420   8.310  18.320
 2782DOPG   D2A55242  12.010   8.040  18.180
 2782DOPG   C3A55243  11.890   8.000  17.700
 2782DOPG   C4A55244  11.740   7.490  17.540
 2782DOPG   C1B55245  12.600   8.120  18.770
 2782DOPG   D2B55246  12.220   8.190  19.120
 2782DOPG   C3B55247  12.250   7.920  19.420
 2782DOPG   C4B55248  12.260   7.530  19.600
 2783DOPG   GL055249  24.740  14.890  18.540
 2783DOPG   PO455250  24.810  15.140  18.280
 2783DOPG   GL155251  24.590  14.930  18.010
 2783DOPG   GL255252  24.680  15.110  17.780
 2783DOPG   C1A55253  24.330  14.710  17.650
 2783DOPG   D2A55254  23.920  14.850  17.630
 2783DOPG   C3A55255  23.830  15.290  17.450
 2783DOPG   C4A55256  23.690  15.650  17.410
 2783DOPG   C1B55257  24.210  15.180  17.820
 2783DOPG   D2B55258  23.880  15.230  18.030
 2783DOPG   C3B55259  23.560  15.270  17.870
 2783DOPG   C4B55260  23.290  15.330  17.430
 2784DOPG   GL055261  17.500  14.500  12.260
 2784DOPG   PO455262  17.370  14.280  11.870
 2784DOPG   GL155263  17.470  13.980  11.530
 2784DOPG   GL255264  17.660  14.090  11.350
 2784DOPG   C1A55265  17.310  13.770  11.140
 2784DOPG   D2A55266  17.050  13.350  11.120
 2784DOPG   C3A55267  16.510  13.350  11.040
 2784DOPG   C4A55268  16.120  13.160  11.090
 2784DOPG   C1B55269  17.890  14.130  10.980
 2784DOPG   D2B55270  18.160  14.340  10.770
 2784DOPG   C3B55271  18.120  14.260  10.350
 2784DOPG   C4B55272  17.970  14.330   9.980
 2785DOPG   GL055273  18.710  14.620  15.010
 2785DOPG   PO455274  18.220  14.660  15.160
 2785DOPG   GL155275  18.230  14.460  15.530
 2785DOPG   GL255276  18.450  14.300  15.460
 2785DOPG   C1A55277  17.970  14.410  15.890
 2785DOPG   D2A55278  17.620  14.690  16.080
 2785DOPG   C3A55279  17.600  14.600  16.590
 2785DOPG   C4A55280  17.410  14.830  16.990
 2785DOPG   C1B55281  18.320  14.020  15.730
 2785DOPG   D2B55282  18.170  13.950  16.120
 2785DOPG   C3B55283  17.930  14.030  16.450
 2785DOPG   C4B55284  17.700  14.100  16.860
 2786DOPG   GL055285  18.260  16.770  11.480
 2786DOPG   PO455286  18.230  17.110  11.760
 2786DOPG   GL155287  18.220  17.380  11.440
 2786DOPG   GL255288  18.280  17.210  11.140
 2786DOPG   C1A55289  18.140  17.630  10.960
 2786DOPG   D2A55290  18.300  17.950  10.630
 2786DOPG   C3A55291  18.650  18.060  10.620
 2786DOPG   C4A55292  18.880  18.300  10.830
 2786DOPG   C1B55293  17.840  17.250  10.910
 2786DOPG   D2B55294  17.680  17.100  10.420
 2786DOPG   C3B55295  17.360  16.710  10.490
 2786DOPG   C4B55296  16.960  16.480  10.270
 2787DOPG   GL055297  22.330  14.140  12.690
 2787DOPG   PO455298  22.340  14.460  12.450
 2787DOPG   GL155299  22.560  14.610  12.130
 2787DOPG   GL255300  22.760  14.880  12.050
 2787DOPG   C1A55301  22.800  14.460  11.760
 2787DOPG   D2A55302  22.950  14.420  11.310
 2787DOPG   C3A55303  22.970  14.790  10.970
 2787DOPG   C4A55304  23.250  14.930  10.620
 2787DOPG   C1B55305  22.940  15.220  11.780
 2787DOPG   D2B55306  23.260  15.470  11.470
 2787DOPG   C3B55307  23.680  15.240  11.430
 2787DOPG   C4B55308  24.060  15.070  11.200
 2788DOPG   GL055309  19.200  10.930  12.760
 2788DOPG   PO455310  18.950  10.790  13.170
 2788DOPG   GL155311  18.560  10.560  13.100
 2788DOPG   GL255312  18.530  10.270  13.070
 2788DOPG   C1A55313  18.110  10.630  13.080
 2788DOPG   D2A55314  17.650  10.730  13.230
 2788DOPG   C3A55315  17.430  10.640  13.670
 2788DOPG   C4A55316  16.980  10.620  13.710
 2788DOPG   C1B55317  18.210  10.260  12.730
 2788DOPG   D2B55318  18.180  10.040  12.280
 2788DOPG   C3B55319  18.170   9.820  11.870
 2788DOPG   C4B55320  18.090   9.520  12.100
 2789DOPG   GL055321  18.640  16.040  15.430
 2789DOPG   PO455322  18.490  16.100  14.990
 2789DOPG   GL155323  18.530  16.610  15.190
 2789DOPG   GL255324  18.360  16.870  15.170
 2789DOPG   C1A55325  18.530  16.700  15.700
 2789DOPG   D2A55326  18.580  16.710  16.070
 2789DOPG   C3A55327  18.230  16.570  16.260
 2789DOPG   C4A55328  18.080  16.710  16.680
 2789DOPG   C1B55329  18.350  17.130  15.580
 2789DOPG   D2B55330  18.230  17.100  16.070
 2789DOPG   C3B55331  18.620  17.360  16.230
 2789DOPG   C4B55332  18.850  17.440  16.560
 2790DOPG   GL055333  20.090  10.550  13.990
 2790DOPG   PO455334  20.500  10.310  14.130
 2790DOPG   GL155335  20.610   9.880  14.330
 2790DOPG   GL255336  20.850   9.740  14.200
 2790DOPG   C1A55337  20.660   9.420  14.590
 2790DOPG   D2A55338  20.940   9.150  14.800
 2790DOPG   C3A55339  20.900   8.800  15.170
 2790DOPG   C4A55340  20.570   8.530  15.190
 2790DOPG   C1B55341  21.140   9.380  14.400
 2790DOPG   D2B55342  21.400   8.970  14.580
 2790DOPG   C3B55343  21.850   9.110  14.780
 2790DOPG   C4B55344  21.920   9.110  15.240
 2791DOPG   GL055345  17.350  13.190  12.910
 2791DOPG   PO455346  17.570  13.140  12.590
 2791DOPG   GL155347  17.300  12.820  12.410
 2791DOPG   GL255348  17.020  12.860  12.090
 2791DOPG   C1A55349  17.340  12.470  12.500
 2791DOPG   D2A55350  17.510  12.200  12.870
 2791DOPG   C3A55351  17.450  11.800  12.940
 2791DOPG   C4A55352  17.270  11.470  13.120
 2791DOPG   C1B55353  17.140  12.700  11.680
 2791DOPG   D2B55354  16.860  12.570  11.290
 2791DOPG   C3B55355  16.670  12.230  11.080
 2791DOPG   C4B55356  16.820  12.040  10.680
 2792DOPG   GL055357  17.740  18.630  13.130
 2792DOPG   PO455358  17.800  18.370  12.720
 2792DOPG   GL155359  17.520  18.430  12.470
 2792DOPG   GL255360  17.380  18.580  12.530
 2792DOPG   C1A55361  17.360  18.310  12.030
 2792DOPG   D2A55362  17.430  18.140  11.550
 2792DOPG   C3A55363  17.010  17.970  11.390
 2792DOPG   C4A55364  16.530  17.990  11.420
 2792DOPG   C1B55365  17.410  18.770  12.110
 2792DOPG   D2B55366  17.450  19.090  11.840
 2792DOPG   C3B55367  17.240  19.250  11.550
 2792DOPG   C4B55368  16.970  19.650  11.750
 2793DOPG   GL055369  13.910  20.820  15.200
 2793DOPG   PO455370  13.700  20.910  14.780
 2793DOPG   GL155371  14.160  20.560  14.560
 2793DOPG   GL255372  13.990  20.370  14.200
 2793DOPG   C1A55373  14.460  20.380  14.600
 2793DOPG   D2A55374  14.810  20.320  14.740
 2793DOPG   C3A55375  15.010  19.910  14.750
 2793DOPG   C4A55376  15.340  19.570  14.700
 2793DOPG   C1B55377  14.230  19.960  14.230
 2793DOPG   D2B55378  14.340  19.540  14.100
 2793DOPG   C3B55379  14.680  19.320  13.790
 2793DOPG   C4B55380  14.700  19.250  13.300
 2794DOPG   GL055381  14.970  11.760  16.320
 2794DOPG   PO455382  14.770  11.740  15.910
 2794DOPG   GL155383  15.200  11.880  15.830
 2794DOPG   GL255384  15.430  11.740  15.820
 2794DOPG   C1A55385  15.440  12.270  15.720
 2794DOPG   D2A55386  15.760  12.420  15.440
 2794DOPG   C3A55387  15.690  12.200  14.990
 2794DOPG   C4A55388  15.700  12.130  14.650
 2794DOPG   C1B55389  15.720  11.910  15.600
 2794DOPG   D2B55390  16.160  12.060  15.470
 2794DOPG   C3B55391  16.410  11.960  15.800
 2794DOPG   C4B55392  16.800  11.960  16.140
 2795DOPG   GL055393  17.690  17.240  14.320
 2795DOPG   PO455394  17.630  17.450  14.620
 2795DOPG   GL155395  17.500  17.280  14.960
 2795DOPG   GL255396  17.190  17.240  14.920
 2795DOPG   C1A55397  17.420  16.920  15.190
 2795DOPG   D2A55398  17.500  16.910  15.690
 2795DOPG   C3A55399  17.480  16.440  15.840
 2795DOPG   C4A55400  17.490  15.980  15.930
 2795DOPG   C1B55401  17.100  17.600  14.970
 2795DOPG   D2B55402  17.070  18.070  15.250
 2795DOPG   C3B55403  16.850  18.320  15.060
 2795DOPG   C4B55404  16.640  18.720  15.050
 2796DOPG   GL055405  23.440  21.240  13.150
 2796DOPG   PO455406  23.250  21.210  13.630
 2796DOPG   GL155407  23.110  20.940  13.810
 2796DOPG   GL255408  23.420  20.790  13.820
 2796DOPG   C1A55409  22.790  20.740  13.550
 2796DOPG   D2A55410  22.290  20.680  13.240
 2796DOPG   C3A55411  22.200  20.190  13.080
 2796DOPG   C4A55412  22.360  19.820  12.860
 2796DOPG   C1B55413  23.160  20.410  13.690
 2796DOPG   D2B55414  23.000  19.980  13.460
 2796DOPG   C3B55415  22.660  19.830  13.320
 2796DOPG   C4B55416  22.330  19.550  13.390
 2797DOPG   GL055417  23.530  14.630  14.450
 2797DOPG   PO455418  23.950  14.560  14.160
 2797DOPG   GL155419  24.330  14.890  14.170
 2797DOPG   GL255420  24.330  15.170  14.410
 2797DOPG   C1A55421  24.740  15.100  14.130
 2797DOPG   D2A55422  25.000  15.220  13.940
 2797DOPG   C3A55423  25.200  15.330  13.490
 2797DOPG   C4A55424  25.420  15.330  13.120
 2797DOPG   C1B55425  24.620  15.470  14.460
 2797DOPG   D2B55426  24.890  15.590  14.260
 2797DOPG   C3B55427  25.080  16.060  14.170
 2797DOPG   C4B55428  25.030  16.480  14.210
 2798DOPG   GL055429  23.900  13.110   3.080
 2798DOPG   PO455430  24.020  13.180   3.500
 2798DOPG   GL155431  24.100  13.330   3.900
 2798DOPG   GL255432  24.180  13.140   4.260
 2798DOPG   C1A55433  23.830  13.520   4.190
 2798DOPG   D2A55434  23.730  13.410   4.690
 2798DOPG   C3A55435  24.050  13.450   4.950
 2798DOPG   C4A55436  24.540  13.380   4.840
 2798DOPG   C1B55437  23.710  13.040   4.360
 2798DOPG   D2B55438  23.370  13.300   4.230
 2798DOPG   C3B55439  23.230  13.510   4.590
 2798DOPG   C4B55440  22.860  13.700   4.790
 2799DOPG   GL055441  14.910   6.880  23.390
 2799DOPG   PO455442  15.100   7.260  23.290
 2799DOPG   GL155443  15.500   7.270  23.130
 2799DOPG   GL255444  15.760   7.460  23.340
 2799DOPG   C1A55445  15.620   7.440  22.780
 2799DOPG   D2A55446  15.590   7.560  22.410
 2799DOPG   C3A55447  16.030   7.480  22.240
 2799DOPG   C4A55448  16.440   7.570  22.450
 2799DOPG   C1B55449  16.060   7.610  22.940
 2799DOPG   D2B55450  16.050   7.800  22.600
 2799DOPG   C3B55451  15.740   7.990  22.600
 2799DOPG   C4B55452  15.380   7.960  22.840
 2800DOPG   GL055453  24.940  13.630  23.770
 2800DOPG   PO455454  25.300  13.770  23.940
 2800DOPG   GL155455  25.360  13.780  23.520
 2800DOPG   GL255456  25.570  13.440  23.410
 2800DOPG   C1A55457  25.180  13.620  23.150
 2800DOPG   D2A55458  25.090  13.540  22.640
 2800DOPG   C3A55459  24.980  13.700  22.290
 2800DOPG   C4A55460  24.890  14.100  22.030
 2800DOPG   C1B55461  25.750  13.180  23.150
 2800DOPG   D2B55462  26.010  13.120  22.770
 2800DOPG   C3B55463  25.910  12.960  22.310
 2800DOPG   C4B55464  25.860  12.790  21.780
 2801DOPG   GL055465   6.310  13.140  11.980
 2801DOPG   PO455466   6.450  13.070  12.380
 2801DOPG   GL155467   6.890  13.270  12.380
 2801DOPG   GL255468   7.010  13.500  12.540
 2801DOPG   C1A55469   7.290  13.340  12.200
 2801DOPG   D2A55470   7.660  13.230  12.140
 2801DOPG   C3A55471   8.020  13.270  11.900
 2801DOPG   C4A55472   8.270  13.300  11.420
 2801DOPG   C1B55473   7.510  13.290  12.670
 2801DOPG   D2B55474   7.880  13.170  12.920
 2801DOPG   C3B55475   8.380  13.080  12.930
 2801DOPG   C4B55476   8.720  13.060  13.150
 2802DOPG   GL055477  19.120   1.150  11.450
 2802DOPG   PO455478  18.820   1.410  11.770
 2802DOPG   GL155479  19.160   1.790  11.840
 2802DOPG   GL255480  18.890   2.010  11.750
 2802DOPG   C1A55481  19.380   2.200  11.850
 2802DOPG   D2A55482  19.510   2.570  12.120
 2802DOPG   C3A55483  19.810   3.000  12.110
 2802DOPG   C4A55484  20.070   3.380  12.160
 2802DOPG   C1B55485  18.490   2.240  11.870
 2802DOPG   D2B55486  17.930   2.240  11.890
 2802DOPG   C3B55487  17.520   2.090  11.740
 2802DOPG   C4B55488  17.270   2.300  11.430
 2803DOPG   GL055489  12.940  10.660   5.440
 2803DOPG   PO455490  12.500  10.550   5.390
 2803DOPG   GL155491  12.540  10.530   5.760
 2803DOPG   GL255492  12.320  10.370   5.930
 2803DOPG   C1A55493  12.760  10.820   5.940
 2803DOPG   D2A55494  13.100  10.830   6.200
 2803DOPG   C3A55495  12.970  10.610   6.540
 2803DOPG   C4A55496  13.260  10.270   6.720
 2803DOPG   C1B55497  12.140  10.630   6.100
 2803DOPG   D2B55498  11.850  10.820   6.390
 2803DOPG   C3B55499  11.780  10.740   6.870
 2803DOPG   C4B55500  12.000  10.880   7.180
 2804DOPG   GL055501  22.300  23.730   5.380
 2804DOPG   PO455502  22.520  23.640   5.830
 2804DOPG   GL155503  22.540  23.400   6.110
 2804DOPG   GL255504  22.400  23.360   6.480
 2804DOPG   C1A55505  22.580  22.940   6.240
 2804DOPG   D2A55506  22.350  22.830   6.610
 2804DOPG   C3A55507  22.390  22.350   6.840
 2804DOPG   C4A55508  22.530  22.010   7.050
 2804DOPG   C1B55509  22.410  23.240   6.900
 2804DOPG   D2B55510  22.420  23.410   7.340
 2804DOPG   C3B55511  22.510  23.060   7.580
 2804DOPG   C4B55512  22.660  22.700   7.560
 2805DOPG   GL055513   8.080  20.290  15.060
 2805DOPG   PO455514   7.820  20.030  15.320
 2805DOPG   GL155515   8.240  19.840  15.320
 2805DOPG   GL255516   8.450  19.820  15.590
 2805DOPG   C1A55517   8.350  19.420  15.370
 2805DOPG   D2A55518   8.240  18.980  15.420
 2805DOPG   C3A55519   8.370  18.810  15.030
 2805DOPG   C4A55520   8.730  18.460  15.040
 2805DOPG   C1B55521   8.770  20.060  15.780
 2805DOPG   D2B55522   9.210  20.260  15.890
 2805DOPG   C3B55523   9.260  20.650  16.090
 2805DOPG   C4B55524   9.600  20.880  16.130
 2806DOPG   GL055525  16.070   3.630  21.320
 2806DOPG   PO455526  16.340   3.700  20.940
 2806DOPG   GL155527  16.420   4.160  20.710
 2806DOPG   GL255528  16.160   4.410  20.800
 2806DOPG   C1A55529  16.560   4.550  20.450
 2806DOPG   D2A55530  16.390   4.670  20.000
 2806DOPG   C3A55531  16.490   5.070  19.830
 2806DOPG   C4A55532  16.640   5.250  19.420
 2806DOPG   C1B55533  16.110   4.820  20.590
 2806DOPG   D2B55534  16.270   5.000  20.290
 2806DOPG   C3B55535  16.240   5.500  20.250
 2806DOPG   C4B55536  15.860   5.680  20.100
 2807DOPG   GL055537  23.300   5.920  15.350
 2807DOPG   PO455538  23.580   5.710  15.340
 2807DOPG   GL155539  23.690   5.240  15.550
 2807DOPG   GL255540  23.990   5.100  15.340
 2807DOPG   C1A55541  23.630   4.820  15.770
 2807DOPG   D2A55542  23.660   4.450  15.910
 2807DOPG   C3A55543  23.550   4.150  15.690
 2807DOPG   C4A55544  23.530   3.670  15.660
 2807DOPG   C1B55545  24.310   4.920  15.370
 2807DOPG   D2B55546  24.520   4.620  15.260
 2807DOPG   C3B55547  24.640   4.310  15.590
 2807DOPG   C4B55548  24.820   3.970  15.800
 2808DOPG   GL055549  22.960  20.620  22.690
 2808DOPG   PO455550  22.890  20.830  22.250
 2808DOPG   GL155551  23.000  20.610  21.970
 2808DOPG   GL255552  23.080  20.750  21.610
 2808DOPG   C1A55553  22.960  20.300  21.740
 2808DOPG   D2A55554  22.820  20.060  21.340
 2808DOPG   C3A55555  22.760  20.320  21.050
 2808DOPG   C4A55556  22.620  20.550  20.690
 2808DOPG   C1B55557  23.200  21.210  21.340
 2808DOPG   D2B55558  23.300  21.540  21.190
 2808DOPG   C3B55559  23.460  21.570  20.830
 2808DOPG   C4B55560  23.670  21.690  20.550
 2809DOPG   GL055561   6.170  12.480  17.240
 2809DOPG   PO455562   6.590  12.540  17.420
 2809DOPG   GL155563   7.080  12.650  17.350
 2809DOPG   GL255564   7.220  12.800  17.090
 2809DOPG   C1A55565   7.480  12.780  17.500
 2809DOPG   D2A55566   7.890  12.950  17.520
 2809DOPG   C3A55567   7.870  13.040  17.120
 2809DOPG   C4A55568   8.100  13.270  16.820
 2809DOPG   C1B55569   7.350  13.100  16.780
 2809DOPG   D2B55570   7.060  13.390  16.610
 2809DOPG   C3B55571   7.330  13.570  16.270
 2809DOPG   C4B55572   7.350  13.470  15.860
 2810DOPG   GL055573  13.960   8.350  11.510
 2810DOPG   PO455574  13.770   7.970  11.430
 2810DOPG   GL155575  13.570   7.700  11.220
 2810DOPG   GL255576  13.520   7.340  11.230
 2810DOPG   C1A55577  13.380   7.660  10.820
 2810DOPG   D2A55578  13.190   7.490  10.400
 2810DOPG   C3A55579  13.390   7.100  10.380
 2810DOPG   C4A55580  13.480   7.040   9.990
 2810DOPG   C1B55581  13.060   7.370  11.400
 2810DOPG   D2B55582  12.670   7.460  11.340
 2810DOPG   C3B55583  12.490   7.830  11.150
 2810DOPG   C4B55584  12.620   8.120  10.950
 2811DOPG   GL055585   7.910  15.380  19.000
 2811DOPG   PO455586   7.760  14.980  19.000
 2811DOPG   GL155587   8.040  14.960  18.770
 2811DOPG   GL255588   7.820  14.710  18.560
 2811DOPG   C1A55589   8.250  14.960  18.320
 2811DOPG   D2A55590   8.690  14.870  18.160
 2811DOPG   C3A55591   8.970  14.590  18.120
 2811DOPG   C4A55592   9.330  14.250  18.130
 2811DOPG   C1B55593   8.240  14.430  18.390
 2811DOPG   D2B55594   8.570  14.280  17.990
 2811DOPG   C3B55595   8.670  14.600  17.720
 2811DOPG   C4B55596   8.530  15.050  17.740
 2812DOPG   GL055597  10.050  22.010  18.700
 2812DOPG   PO455598   9.780  21.620  18.570
 2812DOPG   GL155599  10.160  21.310  18.600
 2812DOPG   GL255600  10.390  21.520  18.390
 2812DOPG   C1A55601  10.240  20.900  18.710
 2812DOPG   D2A55602  10.610  20.630  18.790
 2812DOPG   C3A55603  11.010  20.710  18.650
 2812DOPG   C4A55604  11.400  20.960  18.480
 2812DOPG   C1B55605  10.700  21.320  18.070
 2812DOPG   D2B55606  11.000  21.160  17.780
 2812DOPG   C3B55607  11.360  20.930  17.550
 2812DOPG   C4B55608  11.470  20.430  17.700
 2813DOPG   GL055609  18.420   4.370   7.010
 2813DOPG   PO455610  18.380   4.790   7.140
 2813DOPG   GL155611  18.330   5.210   7.230
 2813DOPG   GL255612  18.010   5.320   7.040
 2813DOPG   C1A55613  18.350   5.590   7.480
 2813DOPG   D2A55614  18.450   6.000   7.480
 2813DOPG   C3A55615  18.900   6.100   7.400
 2813DOPG   C4A55616  19.350   5.900   7.410
 2813DOPG   C1B55617  18.150   5.730   6.890
 2813DOPG   D2B55618  18.250   6.220   7.010
 2813DOPG   C3B55619  18.080   6.560   6.950
 2813DOPG   C4B55620  18.000   6.830   7.270
 2814DOPG   GL055621  14.160  19.620   9.590
 2814DOPG   PO455622  14.180  20.010   9.530
 2814DOPG   GL155623  13.940  20.250   9.210
 2814DOPG   GL255624  13.920  20.120   8.810
 2814DOPG   C1A55625  13.910  20.610   8.890
 2814DOPG   D2A55626  14.030  20.910   8.660
 2814DOPG   C3A55627  13.790  20.910   8.320
 2814DOPG   C4A55628  13.470  20.950   7.880
 2814DOPG   C1B55629  13.510  20.340   8.950
 2814DOPG   D2B55630  13.430  20.770   8.680
 2814DOPG   C3B55631  13.490  21.210   8.710
 2814DOPG   C4B55632  13.800  21.390   8.400
 2815DOPG   GL055633  17.300  21.210  22.310
 2815DOPG   PO455634  17.230  20.850  22.500
 2815DOPG   GL155635  17.620  20.770  22.170
 2815DOPG   GL255636  17.550  20.550  21.970
 2815DOPG   C1A55637  17.980  20.690  21.810
 2815DOPG   D2A55638  18.430  20.580  21.580
 2815DOPG   C3A55639  18.440  20.470  21.130
 2815DOPG   C4A55640  18.340  20.590  20.680
 2815DOPG   C1B55641  17.270  20.950  21.810
 2815DOPG   D2B55642  17.060  20.760  21.520
 2815DOPG   C3B55643  17.310  20.400  21.270
 2815DOPG   C4B55644  17.270  20.100  20.880
 2816DOPG   GL055645  13.160  23.710   7.910
 2816DOPG   PO455646  13.430  24.020   7.780
 2816DOPG   GL155647  13.720  23.810   7.950
 2816DOPG   GL255648  13.910  23.750   7.710
 2816DOPG   C1A55649  13.720  23.730   8.380
 2816DOPG   D2A55650  13.810  23.540   8.770
 2816DOPG   C3A55651  14.000  23.340   9.200
 2816DOPG   C4A55652  14.040  23.410   9.660
 2816DOPG   C1B55653  14.320  23.810   7.820
 2816DOPG   D2B55654  14.620  23.880   8.040
 2816DOPG   C3B55655  14.770  24.020   8.370
 2816DOPG   C4B55656  15.000  23.670   8.610
 2817DOPG   GL055657  22.630  21.810  10.560
 2817DOPG   PO455658  23.020  21.860  10.380
 2817DOPG   GL155659  23.190  22.340  10.250
 2817DOPG   GL255660  23.080  22.590  10.420
 2817DOPG   C1A55661  23.490  22.610  10.080
 2817DOPG   D2A55662  23.960  22.670   9.980
 2817DOPG   C3A55663  24.080  22.560   9.550
 2817DOPG   C4A55664  24.140  22.400   9.100
 2817DOPG   C1B55665  23.300  23.010  10.420
 2817DOPG   D2B55666  23.630  23.090  10.120
 2817DOPG   C3B55667  23.540  23.480   9.820
 2817DOPG   C4B55668  23.850  23.620   9.560
 2818DOPG   GL055669  22.170  25.150   6.720
 2818DOPG   PO455670  21.930  25.280   6.460
 2818DOPG   GL155671  21.720  24.960   6.670
 2818DOPG   GL255672  21.400  25.080   6.760
 2818DOPG   C1A55673  21.620  24.470   6.670
 2818DOPG   D2A55674  21.360  24.080   6.370
 2818DOPG   C3A55675  20.980  23.870   6.360
 2818DOPG   C4A55676  20.880  23.410   6.450
 2818DOPG   C1B55677  21.400  24.760   7.030
 2818DOPG   D2B55678  21.400  24.360   7.290
 2818DOPG   C3B55679  21.050  24.460   7.610
 2818DOPG   C4B55680  20.800  24.800   7.840
 2819DOPG   GL055681  19.000  28.560  13.560
 2819DOPG   PO455682  18.930  28.250  13.250
 2819DOPG   GL155683  18.940  27.770  13.350
 2819DOPG   GL255684  18.640  27.590  13.290
 2819DOPG   C1A55685  19.140  27.440  13.530
 2819DOPG   D2A55686  18.980  27.250  13.910
 2819DOPG   C3A55687  18.740  26.730  13.880
 2819DOPG   C4A55688  18.810  26.350  14.040
 2819DOPG   C1B55689  18.840  27.250  12.980
 2819DOPG   D2B55690  18.830  27.010  12.690
 2819DOPG   C3B55691  18.900  26.560  12.800
 2819DOPG   C4B55692  18.960  26.070  13.070
 2820DOPG   GL055693  14.250   6.580   6.560
 2820DOPG   PO455694  14.290   6.800   6.960
 2820DOPG   GL155695  14.350   7.100   7.180
 2820DOPG   GL255696  14.200   7.340   7.100
 2820DOPG   C1A55697  14.660   7.240   7.460
 2820DOPG   D2A55698  15.020   7.120   7.690
 2820DOPG   C3A55699  15.320   7.430   8.000
 2820DOPG   C4A55700  15.500   7.550   8.400
 2820DOPG   C1B55701  14.040   7.650   7.310
 2820DOPG   D2B55702  14.240   7.870   7.530
 2820DOPG   C3B55703  14.500   7.850   8.000
 2820DOPG   C4B55704  14.880   7.620   8.190
 2821DOPG   GL055705  22.160  24.630  19.790
 2821DOPG   PO455706  21.850  24.840  20.130
 2821DOPG   GL155707  21.770  24.440  19.980
 2821DOPG   GL255708  21.780  24.090  20.100
 2821DOPG   C1A55709  21.890  24.290  19.610
 2821DOPG   D2A55710  21.920  24.490  19.250
 2821DOPG   C3A55711  22.320  24.400  18.970
 2821DOPG   C4A55712  22.480  24.390  18.480
 2821DOPG   C1B55713  21.560  24.030  19.750
 2821DOPG   D2B55714  21.470  24.120  19.300
 2821DOPG   C3B55715  21.680  23.810  19.040
 2821DOPG   C4B55716  22.050  24.010  18.860
 2822DOPG   GL055717  19.400   5.140  15.460
 2822DOPG   PO455718  19.610   5.140  15.160
 2822DOPG   GL155719  19.710   4.700  15.250
 2822DOPG   GL255720  19.970   4.520  15.110
 2822DOPG   C1A55721  19.580   4.340  15.400
 2822DOPG   D2A55722  19.250   4.200  15.700
 2822DOPG   C3A55723  19.040   3.880  15.700
 2822DOPG   C4A55724  18.930   3.590  16.140
 2822DOPG   C1B55725  20.000   4.040  15.290
 2822DOPG   D2B55726  20.150   3.490  15.340
 2822DOPG   C3B55727  20.020   3.110  15.190
 2822DOPG   C4B55728  19.890   2.930  14.840
 2823DOPG   GL055729   9.510  17.980  20.480
 2823DOPG   PO455730   9.590  17.780  20.070
 2823DOPG   GL155731   9.920  18.000  19.820
 2823DOPG   GL255732  10.070  18.030  19.470
 2823DOPG   C1A55733  10.230  17.920  19.940
 2823DOPG   D2A55734  10.610  17.650  19.950
 2823DOPG   C3A55735  10.900  17.700  19.610
 2823DOPG   C4A55736  11.010  18.050  19.420
 2823DOPG   C1B55737  10.470  17.940  19.400
 2823DOPG   D2B55738  10.680  17.850  19.040
 2823DOPG   C3B55739  10.980  17.700  19.070
 2823DOPG   C4B55740  11.380  17.750  19.340
 2824DOPG   GL055741  19.990  28.530  14.310
 2824DOPG   PO455742  20.090  28.260  13.930
 2824DOPG   GL155743  19.990  27.810  14.110
 2824DOPG   GL255744  19.710  27.690  13.950
 2824DOPG   C1A55745  20.070  27.610  13.590
 2824DOPG   D2A55746  20.160  27.150  13.530
 2824DOPG   C3A55747  20.160  26.690  13.390
 2824DOPG   C4A55748  20.430  26.410  13.100
 2824DOPG   C1B55749  19.460  27.340  14.000
 2824DOPG   D2B55750  19.300  26.910  13.610
 2824DOPG   C3B55751  19.360  26.550  13.860
 2824DOPG   C4B55752  19.290  26.090  13.930
 2825DOPG   GL055753  12.330   3.990  10.550
 2825DOPG   PO455754  12.520   4.220  10.240
 2825DOPG   GL155755  12.860   4.320  10.480
 2825DOPG   GL255756  12.970   4.170  10.650
 2825DOPG   C1A55757  12.830   4.710  10.900
 2825DOPG   D2A55758  12.830   4.660  11.220
 2825DOPG   C3A55759  12.820   4.900  11.540
 2825DOPG   C4A55760  12.680   5.140  11.880
 2825DOPG   C1B55761  13.260   4.430  10.740
 2825DOPG   D2B55762  13.340   4.780  11.100
 2825DOPG   C3B55763  13.530   4.780  11.590
 2825DOPG   C4B55764  13.230   4.700  11.860
 2826DOPG   GL055765   5.770  14.130  12.910
 2826DOPG   PO455766   6.140  14.040  13.230
 2826DOPG   GL155767   6.510  14.100  13.010
 2826DOPG   GL255768   6.450  14.460  12.990
 2826DOPG   C1A55769   6.990  13.960  13.170
 2826DOPG   D2A55770   7.350  14.000  13.310
 2826DOPG   C3A55771   7.700  14.140  13.200
 2826DOPG   C4A55772   8.020  14.500  13.330
 2826DOPG   C1B55773   6.830  14.390  13.360
 2826DOPG   D2B55774   7.050  14.670  13.550
 2826DOPG   C3B55775   6.880  15.130  13.800
 2826DOPG   C4B55776   6.860  15.410  14.080
 2827DOPG   GL055777  21.000   9.610   3.650
 2827DOPG   PO455778  21.210   9.520   4.140
 2827DOPG   GL155779  21.330   9.420   4.560
 2827DOPG   GL255780  21.010   9.550   4.700
 2827DOPG   C1A55781  21.480   9.620   4.780
 2827DOPG   D2A55782  21.630  10.000   4.900
 2827DOPG   C3A55783  21.580  10.380   4.740
 2827DOPG   C4A55784  21.700  10.870   4.860
 2827DOPG   C1B55785  20.790   9.810   4.930
 2827DOPG   D2B55786  21.110  10.160   4.890
 2827DOPG   C3B55787  21.400  10.530   5.160
 2827DOPG   C4B55788  21.820  10.620   5.310
 2828DOPG   GL055789   6.440  17.540  14.750
 2828DOPG   PO455790   6.360  17.110  14.690
 2828DOPG   GL155791   6.740  16.870  14.830
 2828DOPG   GL255792   6.800  16.910  14.510
 2828DOPG   C1A55793   7.180  16.760  14.740
 2828DOPG   D2A55794   7.550  16.950  14.760
 2828DOPG   C3A55795   7.870  16.790  14.600
 2828DOPG   C4A55796   8.230  16.720  14.290
 2828DOPG   C1B55797   7.270  17.000  14.300
 2828DOPG   D2B55798   7.610  16.870  14.020
 2828DOPG   C3B55799   7.500  16.490  13.760
 2828DOPG   C4B55800   7.810  16.140  13.620
 2829DOPG   GL055801  15.940  10.960   8.600
 2829DOPG   PO455802  15.490  11.070   8.450
 2829DOPG   GL155803  15.490  10.980   7.910
 2829DOPG   GL255804  15.500  10.630   8.060
 2829DOPG   C1A55805  15.380  10.870   7.550
 2829DOPG   D2A55806  15.300  10.520   7.430
 2829DOPG   C3A55807  14.890  10.440   7.360
 2829DOPG   C4A55808  14.520  10.640   7.290
 2829DOPG   C1B55809  15.100  10.630   7.880
 2829DOPG   D2B55810  14.720  10.580   7.810
 2829DOPG   C3B55811  14.560  10.200   7.690
 2829DOPG   C4B55812  14.640   9.760   7.490
 2830DOPG   GL055813  21.460  27.710  11.470
 2830DOPG   PO455814  21.660  27.250  11.290
 2830DOPG   GL155815  21.850  26.760  11.000
 2830DOPG   GL255816  22.080  26.550  11.160
 2830DOPG   C1A55817  21.760  26.450  10.720
 2830DOPG   D2A55818  21.610  25.990  10.640
 2830DOPG   C3A55819  21.800  25.570  10.760
 2830DOPG   C4A55820  21.900  25.360  11.170
 2830DOPG   C1B55821  21.730  26.340  11.250
 2830DOPG   D2B55822  21.530  25.940  11.580
 2830DOPG   C3B55823  21.830  25.580  11.650
 2830DOPG   C4B55824  21.960  25.190  11.640
 2831DOPG   GL055825  11.370  14.080  10.900
 2831DOPG   PO455826  10.920  14.080  10.890
 2831DOPG   GL155827  10.690  14.420  10.700
 2831DOPG   GL255828  10.720  14.610  10.380
 2831DOPG   C1A55829  10.420  14.830  10.770
 2831DOPG   D2A55830  10.040  15.210  10.630
 2831DOPG   C3A55831  10.090  15.650  10.510
 2831DOPG   C4A55832  10.130  15.970  10.240
 2831DOPG   C1B55833  10.320  14.390  10.380
 2831DOPG   D2B55834   9.870  14.380  10.260
 2831DOPG   C3B55835   9.870  14.720   9.940
 2831DOPG   C4B55836  10.120  14.680   9.480
 2832DOPG   GL055837  24.020  15.760   3.270
 2832DOPG   PO455838  23.730  16.090   3.130
 2832DOPG   GL155839  23.540  16.000   3.540
 2832DOPG   GL255840  23.590  15.660   3.560
 2832DOPG   C1A55841  23.360  15.870   3.930
 2832DOPG   D2A55842  23.310  15.750   4.320
 2832DOPG   C3A55843  23.260  15.890   4.650
 2832DOPG   C4A55844  23.300  15.740   5.060
 2832DOPG   C1B55845  24.020  15.530   3.800
 2832DOPG   D2B55846  24.320  15.480   4.100
 2832DOPG   C3B55847  24.290  15.180   4.440
 2832DOPG   C4B55848  24.010  15.190   4.780
 2833DOPG   GL055849  19.380  10.750  20.640
 2833DOPG   PO455850  19.590  11.140  20.550
 2833DOPG   GL155851  19.630  10.900  21.060
 2833DOPG   GL255852  19.870  10.710  20.990
 2833DOPG   C1A55853  19.490  10.700  21.460
 2833DOPG   D2A55854  19.310  10.480  21.810
 2833DOPG   C3A55855  19.240  10.420  22.230
 2833DOPG   C4A55856  19.280  10.240  22.640
 2833DOPG   C1B55857  19.990  10.590  21.390
 2833DOPG   D2B55858  19.920  10.690  21.800
 2833DOPG   C3B55859  19.740  10.510  22.120
 2833DOPG   C4B55860  19.790  10.220  22.450
 2834DOPG   GL055861  13.810  11.910  23.330
 2834DOPG   PO455862  14.120  11.950  23.660
 2834DOPG   GL155863  14.320  11.970  23.320
 2834DOPG   GL255864  14.510  12.150  23.380
 2834DOPG   C1A55865  14.640  11.830  23.050
 2834DOPG   D2A55866  14.860  11.970  22.670
 2834DOPG   C3A55867  15.030  12.120  22.230
 2834DOPG   C4A55868  15.190  11.930  21.860
 2834DOPG   C1B55869  14.630  12.570  23.100
 2834DOPG   D2B55870  14.900  12.870  22.850
 2834DOPG   C3B55871  14.950  13.180  23.040
 2834DOPG   C4B55872  15.160  13.320  23.340
 2835DOPG   GL055873  16.390   1.370  12.270
 2835DOPG   PO455874  16.480   1.600  12.530
 2835DOPG   GL155875  16.650   1.830  12.860
 2835DOPG   GL255876  16.980   2.110  12.860
 2835DOPG   C1A55877  16.670   2.160  13.230
 2835DOPG   D2A55878  16.480   2.560  13.220
 2835DOPG   C3A55879  16.540   2.920  12.980
 2835DOPG   C4A55880  16.720   3.110  12.590
 2835DOPG   C1B55881  17.400   2.360  12.910
 2835DOPG   D2B55882  17.840   2.430  13.020
 2835DOPG   C3B55883  17.970   2.860  13.050
 2835DOPG   C4B55884  17.820   3.280  13.280
 2836DOPG   GL055885  21.210  13.490   8.020
 2836DOPG   PO455886  21.130  13.820   8.300
 2836DOPG   GL155887  20.850  13.790   8.690
 2836DOPG   GL255888  20.600  13.850   8.530
 2836DOPG   C1A55889  20.880  13.600   9.030
 2836DOPG   D2A55890  21.120  13.510   9.440
 2836DOPG   C3A55891  21.480  13.530   9.610
 2836DOPG   C4A55892  21.530  13.230   9.940
 2836DOPG   C1B55893  20.500  14.140   8.810
 2836DOPG   D2B55894  20.810  14.280   9.050
 2836DOPG   C3B55895  20.950  14.030   9.360
 2836DOPG   C4B55896  21.000  13.920   9.720
 2837DOPG   GL055897  16.780  20.040   9.740
 2837DOPG   PO455898  16.650  20.010   9.280
 2837DOPG   GL155899  16.780  19.600   9.440
 2837DOPG   GL255900  16.970  19.410   9.710
 2837DOPG   C1A55901  16.600  19.580   9.950
 2837DOPG   D2A55902  16.260  19.530  10.200
 2837DOPG   C3A55903  15.800  19.330  10.040
 2837DOPG   C4A55904  15.840  18.860   9.850
 2837DOPG   C1B55905  17.290  19.130  10.000
 2837DOPG   D2B55906  17.590  18.830   9.990
 2837DOPG   C3B55907  17.770  18.430  10.190
 2837DOPG   C4B55908  17.760  18.140  10.520
 2838DOPG   GL055909  15.140  16.130  18.440
 2838DOPG   PO455910  15.280  15.830  18.250
 2838DOPG   GL155911  15.400  15.970  17.880
 2838DOPG   GL255912  15.690  15.970  17.960
 2838DOPG   C1A55913  15.440  15.830  17.470
 2838DOPG   D2A55914  15.700  15.890  17.150
 2838DOPG   C3A55915  15.940  16.240  17.030
 2838DOPG   C4A55916  15.890  16.370  17.410
 2838DOPG   C1B55917  15.940  15.850  17.620
 2838DOPG   D2B55918  16.190  15.590  17.260
 2838DOPG   C3B55919  16.200  15.760  16.820
 2838DOPG   C4B55920  15.970  15.980  16.510
 2839DOPG   GL055921  19.740  14.370  18.950
 2839DOPG   PO455922  20.020  14.640  18.870
 2839DOPG   GL155923  20.090  14.640  18.490
 2839DOPG   GL255924  19.950  14.280  18.470
 2839DOPG   C1A55925  20.200  14.800  18.170
 2839DOPG   D2A55926  20.190  14.680  17.740
 2839DOPG   C3A55927  20.040  14.840  17.370
 2839DOPG   C4A55928  19.770  14.770  17.020
 2839DOPG   C1B55929  19.840  14.390  18.070
 2839DOPG   D2B55930  19.680  14.520  17.650
 2839DOPG   C3B55931  19.620  14.320  17.280
 2839DOPG   C4B55932  19.820  14.250  16.850
 2840DOPG   GL055933  19.750   3.010  21.090
 2840DOPG   PO455934  20.070   3.090  20.770
 2840DOPG   GL155935  19.690   3.160  20.590
 2840DOPG   GL255936  19.480   3.110  20.660
 2840DOPG   C1A55937  19.730   3.520  20.380
 2840DOPG   D2A55938  20.010   3.940  20.390
 2840DOPG   C3A55939  20.290   4.180  20.140
 2840DOPG   C4A55940  20.380   4.560  19.870
 2840DOPG   C1B55941  19.250   3.510  20.510
 2840DOPG   D2B55942  19.430   3.910  20.480
 2840DOPG   C3B55943  19.210   4.380  20.310
 2840DOPG   C4B55944  19.180   4.700  20.020
 2841DOPG   GL055945  17.950  17.630  18.750
 2841DOPG   PO455946  18.000  18.030  18.420
 2841DOPG   GL155947  17.940  17.570  18.250
 2841DOPG   GL255948  18.240  17.390  18.180
 2841DOPG   C1A55949  17.920  17.440  17.780
 2841DOPG   D2A55950  17.790  17.310  17.390
 2841DOPG   C3A55951  17.710  16.990  17.230
 2841DOPG   C4A55952  17.590  16.800  16.810
 2841DOPG   C1B55953  18.400  17.320  17.690
 2841DOPG   D2B55954  18.710  17.320  17.460
 2841DOPG   C3B55955  18.850  17.630  17.250
 2841DOPG   C4B55956  19.050  17.810  16.850
 2842DOPG   GL055957  14.300  15.680   9.320
 2842DOPG   PO455958  14.390  16.160   9.110
 2842DOPG   GL155959  14.530  16.300   9.480
 2842DOPG   GL255960  14.360  16.030   9.740
 2842DOPG   C1A55961  14.410  16.700   9.710
 2842DOPG   D2A55962  14.280  16.760  10.200
 2842DOPG   C3A55963  14.460  16.800  10.650
 2842DOPG   C4A55964  14.690  16.780  11.030
 2842DOPG   C1B55965  14.210  15.900  10.200
 2842DOPG   D2B55966  13.880  16.120  10.550
 2842DOPG   C3B55967  13.900  15.970  10.960
 2842DOPG   C4B55968  14.320  15.870  11.300
 2843DOPG   GL055969  23.570  15.840  24.580
 2843DOPG   PO455970  23.470  16.280  24.530
 2843DOPG   GL155971  23.310  16.090  24.210
 2843DOPG   GL255972  23.600  15.930  24.100
 2843DOPG   C1A55973  23.100  16.140  23.870
 2843DOPG   D2A55974  23.000  16.180  23.510
 2843DOPG   C3A55975  23.280  16.430  23.390
 2843DOPG   C4A55976  23.500  16.460  23.000
 2843DOPG   C1B55977  23.440  15.860  23.720
 2843DOPG   D2B55978  23.460  15.870  23.250
 2843DOPG   C3B55979  23.090  15.970  23.080
 2843DOPG   C4B55980  22.830  15.810  22.740
 2844DOPG   GL055981  25.580   9.660  11.540
 2844DOPG   PO455982  25.150   9.430  11.560
 2844DOPG   GL155983  24.890   9.620  11.860
 2844DOPG   GL255984  25.080   9.820  12.000
 2844DOPG   C1A55985  24.530   9.930  11.820
 2844DOPG   D2A55986  24.050  10.040  11.730
 2844DOPG   C3A55987  23.660  10.180  11.850
 2844DOPG   C4A55988  23.300  10.320  12.100
 2844DOPG   C1B55989  24.800   9.940  12.280
 2844DOPG   D2B55990  24.560   9.860  12.700
 2844DOPG   C3B55991  24.550   9.450  12.890
 2844DOPG   C4B55992  24.790   9.120  13.140
 2845DOPG   GL055993  15.790  12.600  17.800
 2845DOPG   PO455994  16.130  12.460  17.580
 2845DOPG   GL155995  16.220  12.520  17.180
 2845DOPG   GL255996  16.000  12.480  16.970
 2845DOPG   C1A55997  16.480  12.660  16.770
 2845DOPG   D2A55998  16.810  12.720  16.400
 2845DOPG   C3A55999  17.220  12.970  16.340
 2845DOPG   C4A56000  17.600  13.190  16.480
 2845DOPG   C1B56001  15.960  12.920  16.860
 2845DOPG   D2B56002  16.030  13.330  16.970
 2845DOPG   C3B56003  16.080  13.580  16.540
 2845DOPG   C4B56004  16.190  13.980  16.310
 2846DOPG   GL056005  17.470  21.120   9.140
 2846DOPG   PO456006  17.010  21.030   9.030
 2846DOPG   GL156007  17.120  21.100   8.660
 2846DOPG   GL256008  17.310  21.080   8.410
 2846DOPG   C1A56009  16.880  21.230   8.230
 2846DOPG   D2A56010  16.560  21.510   8.050
 2846DOPG   C3A56011  16.650  21.890   7.850
 2846DOPG   C4A56012  16.400  22.090   7.580
 2846DOPG   C1B56013  17.410  21.110   7.960
 2846DOPG   D2B56014  17.420  21.280   7.550
 2846DOPG   C3B56015  17.290  21.540   7.240
 2846DOPG   C4B56016  17.110  21.900   6.980
 2847DOPG   GL056017  19.660  13.360   7.810
 2847DOPG   PO456018  19.780  13.620   8.040
 2847DOPG   GL156019  19.930  13.580   8.460
 2847DOPG   GL256020  20.090  13.870   8.660
 2847DOPG   C1A56021  19.640  13.540   8.850
 2847DOPG   D2A56022  19.630  13.470   9.290
 2847DOPG   C3A56023  19.890  13.050   9.380
 2847DOPG   C4A56024  20.330  12.910   9.350
 2847DOPG   C1B56025  19.970  13.830   9.110
 2847DOPG   D2B56026  19.740  13.860   9.490
 2847DOPG   C3B56027  19.820  13.860   9.970
 2847DOPG   C4B56028  19.560  14.030  10.230
 2848DOPG   GL056029   5.890  13.190  15.740
 2848DOPG   PO456030   6.270  13.340  15.890
 2848DOPG   GL156031   6.580  13.390  15.800
 2848DOPG   GL256032   6.820  13.340  15.970
 2848DOPG   C1A56033   6.960  13.510  15.540
 2848DOPG   D2A56034   7.090  13.530  15.100
 2848DOPG   C3A56035   7.040  13.190  14.800
 2848DOPG   C4A56036   6.910  12.810  14.780
 2848DOPG   C1B56037   7.160  13.060  16.160
 2848DOPG   D2B56038   7.480  12.940  15.930
 2848DOPG   C3B56039   7.750  13.180  15.620
 2848DOPG   C4B56040   8.130  13.340  15.720
 2849DOPG   GL056041  12.350  14.280  12.830
 2849DOPG   PO456042  12.080  14.550  12.900
 2849DOPG   GL156043  12.340  14.720  13.120
 2849DOPG   GL256044  12.330  15.090  13.160
 2849DOPG   C1A56045  12.570  14.820  13.550
 2849DOPG   D2A56046  12.940  14.950  13.760
 2849DOPG   C3A56047  13.390  15.070  13.600
 2849DOPG   C4A56048  13.550  15.180  13.210
 2849DOPG   C1B56049  12.890  15.140  13.270
 2849DOPG   D2B56050  13.120  15.540  13.350
 2849DOPG   C3B56051  13.270  15.590  13.790
 2849DOPG   C4B56052  13.640  15.670  14.090
 2850DOPG   GL056053  27.170  14.920  12.500
 2850DOPG   PO456054  26.920  15.190  12.280
 2850DOPG   GL156055  26.580  15.140  12.430
 2850DOPG   GL256056  26.340  15.270  12.250
 2850DOPG   C1A56057  26.240  14.960  12.670
 2850DOPG   D2A56058  25.790  14.970  12.880
 2850DOPG   C3A56059  25.580  14.630  12.730
 2850DOPG   C4A56060  25.270  14.380  12.630
 2850DOPG   C1B56061  25.990  15.410  12.470
 2850DOPG   D2B56062  25.880  15.470  12.840
 2850DOPG   C3B56063  25.720  15.940  13.050
 2850DOPG   C4B56064  25.410  16.180  13.160
 2851DOPG   GL056065  16.420   0.730  14.750
 2851DOPG   PO456066  16.390   1.020  15.200
 2851DOPG   GL156067  16.500   1.470  15.280
 2851DOPG   GL256068  16.120   1.580  15.340
 2851DOPG   C1A56069  16.770   1.830  15.230
 2851DOPG   D2A56070  16.680   2.230  15.100
 2851DOPG   C3A56071  16.810   2.640  15.280
 2851DOPG   C4A56072  16.970   3.010  15.340
 2851DOPG   C1B56073  16.200   1.980  15.500
 2851DOPG   D2B56074  16.440   2.290  15.550
 2851DOPG   C3B56075  16.300   2.640  15.450
 2851DOPG   C4B56076  16.210   2.880  15.190
 2852DOPG   GL056077  20.970  13.330   8.550
 2852DOPG   PO456078  20.390  13.340   8.510
 2852DOPG   GL156079  20.340  13.480   8.900
 2852DOPG   GL256080  20.160  13.290   9.050
 2852DOPG   C1A56081  20.440  13.880   9.200
 2852DOPG   D2A56082  20.220  13.960   9.560
 2852DOPG   C3A56083  20.360  13.810   9.950
 2852DOPG   C4A56084  20.600  13.560  10.180
 2852DOPG   C1B56085  20.150  13.480   9.460
 2852DOPG   D2B56086  20.200  13.270   9.820
 2852DOPG   C3B56087  20.050  13.440  10.210
 2852DOPG   C4B56088  20.100  13.850  10.410
 2853DOPG   GL056089  20.920  20.660   9.810
 2853DOPG   PO456090  20.450  20.700   9.950
 2853DOPG   GL156091  20.600  20.670  10.390
 2853DOPG   GL256092  20.430  20.850  10.650
 2853DOPG   C1A56093  20.620  20.400  10.780
 2853DOPG   D2A56094  20.440  20.010  10.900
 2853DOPG   C3A56095  20.100  20.050  11.170
 2853DOPG   C4A56096  20.330  19.840  11.390
 2853DOPG   C1B56097  20.620  20.710  11.170
 2853DOPG   D2B56098  20.550  20.340  11.330
 2853DOPG   C3B56099  20.240  20.210  11.670
 2853DOPG   C4B56100  20.140  20.430  12.110
 2854DOPG   GL056101  11.330   3.540  15.730
 2854DOPG   PO456102  11.300   3.860  15.420
 2854DOPG   GL156103  11.530   4.360  15.310
 2854DOPG   GL256104  11.810   4.400  15.480
 2854DOPG   C1A56105  11.770   4.760  15.100
 2854DOPG   D2A56106  12.150   5.090  15.080
 2854DOPG   C3A56107  12.470   5.020  14.780
 2854DOPG   C4A56108  12.900   4.970  14.770
 2854DOPG   C1B56109  12.120   4.770  15.450
 2854DOPG   D2B56110  12.270   5.270  15.520
 2854DOPG   C3B56111  12.540   5.470  15.200
 2854DOPG   C4B56112  12.910   5.810  15.260
 2855DOPG   GL056113  31.280  17.780  10.500
 2855DOPG   PO456114  30.900  17.870  10.370
 2855DOPG   GL156115  30.750  17.550  10.660
 2855DOPG   GL256116  30.820  17.700  10.820
 2855DOPG   C1A56117  30.580  17.230  10.910
 2855DOPG   D2A56118  30.690  16.930  11.290
 2855DOPG   C3A56119  30.550  16.970  11.820
 2855DOPG   C4A56120  30.420  17.060  12.260
 2855DOPG   C1B56121  30.300  17.710  11.010
 2855DOPG   D2B56122  29.990  17.790  11.240
 2855DOPG   C3B56123  29.920  17.470  11.460
 2855DOPG   C4B56124  29.670  17.140  11.420
 2856DOPG   GL056125  24.180  11.130   9.170
 2856DOPG   PO456126  24.410  11.410   9.220
 2856DOPG   GL156127  24.090  11.440   9.630
 2856DOPG   GL256128  24.230  11.470   9.980
 2856DOPG   C1A56129  23.690  11.380   9.920
 2856DOPG   D2A56130  23.530  10.970  10.240
 2856DOPG   C3A56131  23.180  11.110  10.630
 2856DOPG   C4A56132  22.650  11.100  10.650
 2856DOPG   C1B56133  24.400  11.520  10.410
 2856DOPG   D2B56134  24.780  11.780  10.430
 2856DOPG   C3B56135  24.500  12.070  10.730
 2856DOPG   C4B56136  24.160  12.200  11.000
 2857DOPG   GL056137   8.860  14.850  19.980
 2857DOPG   PO456138   9.140  14.990  20.240
 2857DOPG   GL156139   9.390  15.240  20.100
 2857DOPG   GL256140   9.300  15.140  19.780
 2857DOPG   C1A56141   9.660  15.390  19.910
 2857DOPG   D2A56142   9.980  15.400  19.560
 2857DOPG   C3A56143  10.290  15.100  19.720
 2857DOPG   C4A56144  10.220  14.650  19.820
 2857DOPG   C1B56145   9.130  14.690  19.630
 2857DOPG   D2B56146   9.290  14.240  19.670
 2857DOPG   C3B56147   9.740  14.310  19.600
 2857DOPG   C4B56148  10.130  14.350  19.350
 2858DOPG   GL056149  21.440   7.470  10.170
 2858DOPG   PO456150  21.190   7.340   9.840
 2858DOPG   GL156151  21.220   7.140   9.490
 2858DOPG   GL256152  21.430   6.850   9.540
 2858DOPG   C1A56153  21.250   7.110   9.090
 2858DOPG   D2A56154  21.270   6.930   8.670
 2858DOPG   C3A56155  21.560   7.080   8.190
 2858DOPG   C4A56156  21.870   6.950   7.940
 2858DOPG   C1B56157  21.480   6.700   9.170
 2858DOPG   D2B56158  21.420   6.520   8.790
 2858DOPG   C3B56159  20.970   6.300   8.630
 2858DOPG   C4B56160  20.740   6.370   8.200
 2859DOPG   GL056161  25.070   9.640  19.010
 2859DOPG   PO456162  24.720   9.330  19.100
 2859DOPG   GL156163  24.540   9.310  19.500
 2859DOPG   GL256164  24.510   8.960  19.560
 2859DOPG   C1A56165  24.830   9.290  19.810
 2859DOPG   D2A56166  25.020   9.230  20.170
 2859DOPG   C3A56167  25.450   9.390  20.400
 2859DOPG   C4A56168  25.700   9.460  20.770
 2859DOPG   C1B56169  24.610   8.900  19.990
 2859DOPG   D2B56170  24.720   8.830  20.430
 2859DOPG   C3B56171  24.660   9.000  20.880
 2859DOPG   C4B56172  24.850   9.300  21.210
 2860DOPG   GL056173  10.410   4.740  12.410
 2860DOPG   PO456174  10.760   5.000  12.590
 2860DOPG   GL156175  10.840   5.440  12.610
 2860DOPG   GL256176  10.800   5.540  12.330
 2860DOPG   C1A56177  11.030   5.710  12.850
 2860DOPG   D2A56178  11.350   5.910  13.140
 2860DOPG   C3A56179  11.730   5.970  13.300
 2860DOPG   C4A56180  11.980   6.100  13.690
 2860DOPG   C1B56181  11.040   5.870  12.120
 2860DOPG   D2B56182  11.130   6.260  12.100
 2860DOPG   C3B56183  11.400   6.570  12.350
 2860DOPG   C4B56184  11.400   6.950  12.610
 2861DOPG   GL056185  18.130  15.230  18.910
 2861DOPG   PO456186  18.030  14.820  18.690
 2861DOPG   GL156187  17.890  15.030  18.430
 2861DOPG   GL256188  17.880  15.430  18.420
 2861DOPG   C1A56189  17.760  14.870  18.040
 2861DOPG   D2A56190  17.670  14.850  17.650
 2861DOPG   C3A56191  17.850  14.770  17.290
 2861DOPG   C4A56192  17.950  14.940  16.890
 2861DOPG   C1B56193  18.150  15.420  18.080
 2861DOPG   D2B56194  18.040  15.200  17.680
 2861DOPG   C3B56195  17.980  15.290  17.250
 2861DOPG   C4B56196  18.340  15.250  16.920
 2862DOPG   GL056197  23.250  17.880   8.180
 2862DOPG   PO456198  23.140  18.100   7.810
 2862DOPG   GL156199  23.150  18.310   7.480
 2862DOPG   GL256200  23.450  18.360   7.370
 2862DOPG   C1A56201  22.830  18.460   7.130
 2862DOPG   D2A56202  22.820  18.550   6.720
 2862DOPG   C3A56203  22.710  18.840   6.500
 2862DOPG   C4A56204  22.520  19.320   6.530
 2862DOPG   C1B56205  23.350  18.490   7.000
 2862DOPG   D2B56206  23.290  18.740   6.640
 2862DOPG   C3B56207  23.020  18.530   6.300
 2862DOPG   C4B56208  22.670  18.500   6.190
 2863DOPG   GL056209   9.340  12.660   6.660
 2863DOPG   PO456210   9.410  12.710   7.090
 2863DOPG   GL156211   9.720  13.070   7.280
 2863DOPG   GL256212   9.480  13.390   7.210
 2863DOPG   C1A56213  10.190  13.140   7.370
 2863DOPG   D2A56214  10.560  13.130   7.440
 2863DOPG   C3A56215  10.870  13.400   7.420
 2863DOPG   C4A56216  11.090  13.630   7.170
 2863DOPG   C1B56217   9.870  13.550   7.170
 2863DOPG   D2B56218   9.950  13.890   7.470
 2863DOPG   C3B56219  10.150  14.020   7.930
 2863DOPG   C4B56220  10.160  13.660   8.230
 2864DOPG   GL056221  18.120  18.690  24.030
 2864DOPG   PO456222  18.240  18.910  23.560
 2864DOPG   GL156223  18.070  18.920  23.190
 2864DOPG   GL256224  17.970  18.600  23.300
 2864DOPG   C1A56225  18.220  18.830  22.780
 2864DOPG   D2A56226  18.390  18.920  22.390
 2864DOPG   C3A56227  18.310  18.620  21.970
 2864DOPG   C4A56228  18.540  18.370  21.770
 2864DOPG   C1B56229  17.700  18.460  23.010
 2864DOPG   D2B56230  17.540  18.070  22.740
 2864DOPG   C3B56231  17.690  17.800  22.400
 2864DOPG   C4B56232  17.560  17.750  22.040
 2865DOPG   GL056233  19.320  23.130  11.740
 2865DOPG   PO456234  19.130  22.700  11.760
 2865DOPG   GL156235  18.900  22.250  11.770
 2865DOPG   GL256236  18.890  22.040  12.130
 2865DOPG   C1A56237  18.730  21.810  11.730
 2865DOPG   D2A56238  18.870  21.480  11.450
 2865DOPG   C3A56239  19.160  21.170  11.340
 2865DOPG   C4A56240  19.160  20.790  11.120
 2865DOPG   C1B56241  18.550  21.750  12.250
 2865DOPG   D2B56242  18.480  21.300  12.360
 2865DOPG   C3B56243  18.140  21.210  12.130
 2865DOPG   C4B56244  17.940  20.900  12.000
 2866DOPG   GL056245  25.560  16.990  16.190
 2866DOPG   PO456246  25.910  16.840  16.110
 2866DOPG   GL156247  25.680  16.740  15.760
 2866DOPG   GL256248  25.590  17.040  15.680
 2866DOPG   C1A56249  25.330  16.510  15.390
 2866DOPG   D2A56250  25.180  16.120  15.320
 2866DOPG   C3A56251  24.930  16.020  14.960
 2866DOPG   C4A56252  24.740  15.990  14.560
 2866DOPG   C1B56253  25.370  17.050  15.420
 2866DOPG   D2B56254  24.970  16.890  15.340
 2866DOPG   C3B56255  24.690  16.910  15.690
 2866DOPG   C4B56256  24.380  16.830  16.060
 2867DOPG   GL056257  31.100  18.680  11.000
 2867DOPG   PO456258  30.800  18.570  10.640
 2867DOPG   GL156259  30.490  18.370  10.820
 2867DOPG   GL256260  30.590  18.050  11.140
 2867DOPG   C1A56261  30.070  18.130  10.720
 2867DOPG   D2A56262  29.770  18.300  10.950
 2867DOPG   C3A56263  29.570  18.080  11.200
 2867DOPG   C4A56264  29.490  17.650  11.390
 2867DOPG   C1B56265  30.240  18.240  11.250
 2867DOPG   D2B56266  29.960  18.440  11.460
 2867DOPG   C3B56267  29.580  18.310  11.670
 2867DOPG   C4B56268  29.240  18.440  11.690
 2868DOPG   GL056269  16.230  11.270   7.860
 2868DOPG   PO456270  15.910  11.600   7.900
 2868DOPG   GL156271  15.640  11.530   7.570
 2868DOPG   GL256272  15.710  11.640   7.260
 2868DOPG   C1A56273  15.280  11.330   7.350
 2868DOPG   D2A56274  15.280  11.480   6.910
 2868DOPG   C3A56275  15.600  11.240   6.610
 2868DOPG   C4A56276  15.750  11.160   6.210
 2868DOPG   C1B56277  15.880  11.400   7.000
 2868DOPG   D2B56278  16.050  11.050   6.800
 2868DOPG   C3B56279  15.890  10.690   6.640
 2868DOPG   C4B56280  15.590  10.330   6.590
 2869DOPG   GL056281  21.480  14.700   7.770
 2869DOPG   PO456282  21.360  14.420   7.450
 2869DOPG   GL156283  21.400  14.220   7.030
 2869DOPG   GL256284  21.290  14.460   6.890
 2869DOPG   C1A56285  21.630  14.140   6.610
 2869DOPG   D2A56286  21.770  14.080   6.220
 2869DOPG   C3A56287  21.660  14.220   5.850
 2869DOPG   C4A56288  21.560  14.400   5.450
 2869DOPG   C1B56289  21.150  14.580   6.450
 2869DOPG   D2B56290  20.900  14.560   6.040
 2869DOPG   C3B56291  20.980  14.590   5.690
 2869DOPG   C4B56292  21.040  14.360   5.350
 2870DOPG   GL056293  28.730   8.000   7.220
 2870DOPG   PO456294  28.650   7.960   7.650
 2870DOPG   GL156295  28.280   8.060   7.570
 2870DOPG   GL256296  27.900   8.040   7.510
 2870DOPG   C1A56297  28.020   7.940   7.910
 2870DOPG   D2A56298  27.650   7.850   8.220
 2870DOPG   C3A56299  27.280   7.860   8.350
 2870DOPG   C4A56300  26.850   7.970   8.570
 2870DOPG   C1B56301  27.960   8.380   7.700
 2870DOPG   D2B56302  28.110   8.690   7.910
 2870DOPG   C3B56303  27.920   8.790   8.310
 2870DOPG   C4B56304  27.730   8.680   8.530
 2871DOPG   GL056305  19.250   9.150  17.740
 2871DOPG   PO456306  19.240   8.740  17.530
 2871DOPG   GL156307  19.160   8.880  17.150
 2871DOPG   GL256308  19.310   9.180  17.260
 2871DOPG   C1A56309  19.530   8.890  16.810
 2871DOPG   D2A56310  19.960   9.140  16.740
 2871DOPG   C3A56311  19.980   9.260  16.350
 2871DOPG   C4A56312  19.820   9.140  15.940
 2871DOPG   C1B56313  19.600   9.360  17.030
 2871DOPG   D2B56314  19.820   9.690  16.850
 2871DOPG   C3B56315  19.560   9.990  16.570
 2871DOPG   C4B56316  19.740  10.350  16.450
 2872DOPG   GL056317  26.590  15.950  11.170
 2872DOPG   PO456318  26.340  16.260  11.280
 2872DOPG   GL156319  25.960  15.980  11.450
 2872DOPG   GL256320  26.020  16.210  11.710
 2872DOPG   C1A56321  25.680  15.850  11.650
 2872DOPG   D2A56322  25.300  15.690  11.460
 2872DOPG   C3A56323  24.870  15.800  11.590
 2872DOPG   C4A56324  24.590  15.810  11.430
 2872DOPG   C1B56325  25.570  16.380  11.810
 2872DOPG   D2B56326  25.210  16.500  11.900
 2872DOPG   C3B56327  24.930  16.240  12.270
 2872DOPG   C4B56328  24.870  16.230  12.750
 2873DOPG   GL056329  23.910  26.720  14.110
 2873DOPG   PO456330  23.630  26.430  14.110
 2873DOPG   GL156331  23.390  26.140  13.900
 2873DOPG   GL256332  23.080  26.210  13.820
 2873DOPG   C1A56333  23.150  25.760  13.950
 2873DOPG   D2A56334  22.970  25.360  13.980
 2873DOPG   C3A56335  23.040  25.000  13.790
 2873DOPG   C4A56336  23.210  24.600  13.980
 2873DOPG   C1B56337  22.970  26.060  14.320
 2873DOPG   D2B56338  22.830  25.630  14.500
 2873DOPG   C3B56339  22.940  25.270  14.520
 2873DOPG   C4B56340  23.390  25.140  14.760
 2874DOPG   GL056341  22.380  21.820  12.370
 2874DOPG   PO456342  22.530  21.420  12.380
 2874DOPG   GL156343  22.270  21.050  12.320
 2874DOPG   GL256344  22.540  20.860  12.490
 2874DOPG   C1A56345  22.020  20.710  12.170
 2874DOPG   D2A56346  21.760  20.360  12.150
 2874DOPG   C3A56347  21.590  20.140  11.820
 2874DOPG   C4A56348  21.470  19.690  11.690
 2874DOPG   C1B56349  22.520  20.450  12.290
 2874DOPG   D2B56350  22.290  19.980  12.390
 2874DOPG   C3B56351  21.880  20.020  12.550
 2874DOPG   C4B56352  21.520  20.410  12.580
 2875DOPG   GL056353  15.220  21.470  12.420
 2875DOPG   PO456354  15.520  21.640  12.700
 2875DOPG   GL156355  15.640  21.220  12.620
 2875DOPG   GL256356  15.970  21.170  12.410
 2875DOPG   C1A56357  15.640  20.840  12.900
 2875DOPG   D2A56358  15.470  20.570  13.170
 2875DOPG   C3A56359  15.650  20.420  13.450
 2875DOPG   C4A56360  15.830  20.020  13.430
 2875DOPG   C1B56361  16.330  20.850  12.470
 2875DOPG   D2B56362  16.420  20.390  12.320
 2875DOPG   C3B56363  16.700  20.210  12.550
 2875DOPG   C4B56364  16.850  20.090  12.970
 2876DOPG   GL056365  19.140   6.890  11.900
 2876DOPG   PO456366  19.510   7.070  11.800
 2876DOPG   GL156367  19.350   7.440  11.990
 2876DOPG   GL256368  19.100   7.520  12.210
 2876DOPG   C1A56369  19.580   7.600  12.340
 2876DOPG   D2A56370  19.800   7.870  12.700
 2876DOPG   C3A56371  19.630   8.240  12.920
 2876DOPG   C4A56372  19.500   8.620  12.870
 2876DOPG   C1B56373  18.890   7.790  11.940
 2876DOPG   D2B56374  18.510   7.880  11.890
 2876DOPG   C3B56375  18.380   8.300  11.990
 2876DOPG   C4B56376  18.310   8.540  12.340
 2877DOPG   GL056377  11.730  10.360   5.820
 2877DOPG   PO456378  12.000  10.030   5.650
 2877DOPG   GL156379  12.160   9.880   6.020
 2877DOPG   GL256380  12.390   9.690   6.110
 2877DOPG   C1A56381  12.070   9.980   6.420
 2877DOPG   D2A56382  12.320  10.120   6.730
 2877DOPG   C3A56383  12.610  10.470   6.890
 2877DOPG   C4A56384  12.970  10.800   7.050
 2877DOPG   C1B56385  12.420   9.610   6.530
 2877DOPG   D2B56386  12.080   9.610   6.850
 2877DOPG   C3B56387  12.120   9.930   7.200
 2877DOPG   C4B56388  12.140  10.020   7.540
 2878DOPG   GL056389  20.420  16.520  18.850
 2878DOPG   PO456390  20.390  16.970  18.850
 2878DOPG   GL156391  20.320  16.820  18.440
 2878DOPG   GL256392  20.240  16.420  18.410
 2878DOPG   C1A56393  19.940  16.890  18.200
 2878DOPG   D2A56394  19.930  16.950  17.680
 2878DOPG   C3A56395  19.750  17.050  17.220
 2878DOPG   C4A56396  19.760  17.380  16.860
 2878DOPG   C1B56397  20.070  16.470  18.020
 2878DOPG   D2B56398  19.840  16.290  17.660
 2878DOPG   C3B56399  19.970  16.560  17.320
 2878DOPG   C4B56400  20.250  16.900  17.200
 2879DOPG   GL056401  17.600   8.970   4.350
 2879DOPG   PO456402  17.270   8.990   4.530
 2879DOPG   GL156403  17.200   9.140   4.930
 2879DOPG   GL256404  17.530   9.130   4.970
 2879DOPG   C1A56405  17.230   9.230   5.380
 2879DOPG   D2A56406  17.200   9.330   5.820
 2879DOPG   C3A56407  17.210   9.670   6.030
 2879DOPG   C4A56408  17.330   9.980   6.070
 2879DOPG   C1B56409  17.670   9.410   5.220
 2879DOPG   D2B56410  17.790   9.810   5.160
 2879DOPG   C3B56411  17.750  10.110   5.380
 2879DOPG   C4B56412  17.620  10.610   5.380
 2880DOPG   GL056413  17.260   9.150  16.610
 2880DOPG   PO456414  17.060   9.040  16.270
 2880DOPG   GL156415  17.390   9.390  16.160
 2880DOPG   GL256416  17.200   9.630  15.980
 2880DOPG   C1A56417  17.690   9.640  16.120
 2880DOPG   D2A56418  18.090   9.460  16.020
 2880DOPG   C3A56419  18.400   9.680  15.770
 2880DOPG   C4A56420  18.620   9.920  15.670
 2880DOPG   C1B56421  17.400   9.770  15.600
 2880DOPG   D2B56422  17.650  10.130  15.390
 2880DOPG   C3B56423  17.550  10.550  15.360
 2880DOPG   C4B56424  17.300  10.710  15.110
 2881DOPG   GL056425  10.920   9.100   6.730
 2881DOPG   PO456426  10.870   9.410   7.120
 2881DOPG   GL156427  10.960   9.570   7.490
 2881DOPG   GL256428  10.780   9.800   7.660
 2881DOPG   C1A56429  11.300   9.430   7.660
 2881DOPG   D2A56430  11.780   9.410   7.800
 2881DOPG   C3A56431  12.130   9.720   7.990
 2881DOPG   C4A56432  12.370  10.010   8.010
 2881DOPG   C1B56433  10.560   9.780   8.090
 2881DOPG   D2B56434  10.590   9.340   8.330
 2881DOPG   C3B56435  10.840   9.280   8.730
 2881DOPG   C4B56436  10.760   9.530   9.120
 2882DOPG   GL056437  24.880  17.050  17.340
 2882DOPG   PO456438  25.160  17.380  17.100
 2882DOPG   GL156439  24.950  17.120  16.740
 2882DOPG   GL256440  24.830  16.840  16.870
 2882DOPG   C1A56441  24.650  17.220  16.440
 2882DOPG   D2A56442  24.680  17.280  16.020
 2882DOPG   C3A56443  24.330  17.220  15.750
 2882DOPG   C4A56444  23.970  16.840  15.630
 2882DOPG   C1B56445  24.410  16.840  16.540
 2882DOPG   D2B56446  23.990  17.000  16.550
 2882DOPG   C3B56447  23.920  17.050  16.090
 2882DOPG   C4B56448  23.890  17.380  15.890
 2883DOPG   GL056449  14.640  11.120  11.660
 2883DOPG   PO456450  14.930  11.370  11.390
 2883DOPG   GL156451  15.170  11.680  11.550
 2883DOPG   GL256452  15.080  11.920  11.730
 2883DOPG   C1A56453  15.470  12.080  11.520
 2883DOPG   D2A56454  15.760  12.340  11.350
 2883DOPG   C3A56455  15.760  12.710  11.490
 2883DOPG   C4A56456  15.950  12.820  11.860
 2883DOPG   C1B56457  15.490  12.040  12.060
 2883DOPG   D2B56458  15.650  11.870  12.490
 2883DOPG   C3B56459  15.470  11.710  12.820
 2883DOPG   C4B56460  15.770  11.830  13.180
 2884DOPG   GL056461  22.370  20.530  16.020
 2884DOPG   PO456462  22.370  20.960  16.310
 2884DOPG   GL156463  21.900  20.890  16.210
 2884DOPG   GL256464  21.810  20.880  15.920
 2884DOPG   C1A56465  21.740  20.480  16.220
 2884DOPG   D2A56466  21.470  20.260  16.180
 2884DOPG   C3A56467  21.110  20.290  16.190
 2884DOPG   C4A56468  20.770  20.120  16.020
 2884DOPG   C1B56469  21.910  20.520  15.730
 2884DOPG   D2B56470  22.210  20.250  15.620
 2884DOPG   C3B56471  22.420  19.920  15.710
 2884DOPG   C4B56472  22.560  19.710  16.100
 2885DOPG   GL056473  17.190  13.700  18.730
 2885DOPG   PO456474  17.110  13.290  18.460
 2885DOPG   GL156475  17.420  13.520  18.200
 2885DOPG   GL256476  17.390  13.880  18.250
 2885DOPG   C1A56477  17.690  13.480  17.790
 2885DOPG   D2A56478  17.930  13.800  17.690
 2885DOPG   C3A56479  18.220  13.770  17.320
 2885DOPG   C4A56480  18.170  13.930  16.910
 2885DOPG   C1B56481  17.800  13.980  18.240
 2885DOPG   D2B56482  18.240  13.910  18.110
 2885DOPG   C3B56483  18.390  13.620  17.770
 2885DOPG   C4B56484  18.740  13.440  17.460
 2886DOPG   GL056485  23.420   6.690  14.810
 2886DOPG   PO456486  23.610   6.980  15.020
 2886DOPG   GL156487  23.550   7.250  14.660
 2886DOPG   GL256488  23.930   7.320  14.470
 2886DOPG   C1A56489  23.310   7.660  14.700
 2886DOPG   D2A56490  23.340   8.100  14.460
 2886DOPG   C3A56491  23.340   8.580  14.580
 2886DOPG   C4A56492  23.350   8.830  14.200
 2886DOPG   C1B56493  23.890   7.670  14.750
 2886DOPG   D2B56494  24.220   7.820  15.140
 2886DOPG   C3B56495  24.020   7.860  15.530
 2886DOPG   C4B56496  23.610   7.800  15.810
 2887DOPG   GL056497  19.310  14.160   8.230
 2887DOPG   PO456498  19.650  14.080   8.520
 2887DOPG   GL156499  19.730  14.240   8.900
 2887DOPG   GL256500  20.050  14.390   8.840
 2887DOPG   C1A56501  19.760  14.400   9.300
 2887DOPG   D2A56502  19.850  14.670   9.570
 2887DOPG   C3A56503  19.660  14.830   9.980
 2887DOPG   C4A56504  19.490  14.840  10.400
 2887DOPG   C1B56505  20.260  14.290   9.230
 2887DOPG   D2B56506  20.580  14.320   9.550
 2887DOPG   C3B56507  20.540  14.530   9.940
 2887DOPG   C4B56508  20.730  14.690  10.260
 2888DOPG   GL056509  22.290   6.460  16.050
 2888DOPG   PO456510  22.010   6.790  16.140
 2888DOPG   GL156511  21.990   7.170  16.010
 2888DOPG   GL256512  21.680   7.150  15.940
 2888DOPG   C1A56513  22.200   7.590  15.900
 2888DOPG   D2A56514  22.130   7.800  15.580
 2888DOPG   C3A56515  22.160   8.270  15.600
 2888DOPG   C4A56516  22.000   8.740  15.540
 2888DOPG   C1B56517  21.790   7.460  15.620
 2888DOPG   D2B56518  21.820   7.470  15.230
 2888DOPG   C3B56519  21.400   7.540  14.890
 2888DOPG   C4B56520  21.220   7.650  14.500
 2889DOPG   GL056521   8.830   6.780  18.040
 2889DOPG   PO456522   8.850   7.100  18.330
 2889DOPG   GL156523   9.370   7.280  18.300
 2889DOPG   GL256524   9.590   7.590  18.420
 2889DOPG   C1A56525   9.690   7.120  17.960
 2889DOPG   D2A56526   9.920   7.210  17.530
 2889DOPG   C3A56527  10.290   7.520  17.490
 2889DOPG   C4A56528  10.470   7.740  17.120
 2889DOPG   C1B56529   9.780   7.690  18.080
 2889DOPG   D2B56530  10.080   7.920  17.870
 2889DOPG   C3B56531  10.180   8.220  18.170
 2889DOPG   C4B56532  10.450   8.510  18.470
 2890DOPG   GL056533  18.100  15.660   7.550
 2890DOPG   PO456534  18.460  15.430   7.810
 2890DOPG   GL156535  18.140  15.600   8.170
 2890DOPG   GL256536  18.320  15.500   8.500
 2890DOPG   C1A56537  17.890  15.750   8.500
 2890DOPG   D2A56538  17.870  15.760   8.940
 2890DOPG   C3A56539  17.850  15.590   9.250
 2890DOPG   C4A56540  17.880  15.800   9.720
 2890DOPG   C1B56541  18.090  15.290   8.820
 2890DOPG   D2B56542  18.220  15.260   9.270
 2890DOPG   C3B56543  18.030  14.890   9.630
 2890DOPG   C4B56544  17.830  14.990  10.070
 2891DOPG   GL056545  24.160   8.800  10.010
 2891DOPG   PO456546  24.370   9.030   9.660
 2891DOPG   GL156547  24.450   8.670   9.300
 2891DOPG   GL256548  24.340   8.450   9.250
 2891DOPG   C1A56549  24.770   8.750   8.900
 2891DOPG   D2A56550  24.870   8.620   8.500
 2891DOPG   C3A56551  25.170   8.650   8.130
 2891DOPG   C4A56552  25.230   8.380   7.870
 2891DOPG   C1B56553  24.320   7.990   9.090
 2891DOPG   D2B56554  24.400   7.550   8.920
 2891DOPG   C3B56555  24.510   7.510   8.480
 2891DOPG   C4B56556  24.770   7.340   8.280
 2892DOPG   GL056557  19.350  18.800   8.710
 2892DOPG   PO456558  19.660  18.860   8.380
 2892DOPG   GL156559  19.840  18.600   8.600
 2892DOPG   GL256560  19.830  18.800   8.900
 2892DOPG   C1A56561  20.010  18.270   8.890
 2892DOPG   D2A56562  20.120  18.260   9.260
 2892DOPG   C3A56563  20.210  17.870   9.370
 2892DOPG   C4A56564  20.090  17.720   9.800
 2892DOPG   C1B56565  19.770  18.650   9.310
 2892DOPG   D2B56566  19.820  18.420   9.640
 2892DOPG   C3B56567  19.600  18.430   9.980
 2892DOPG   C4B56568  19.500  18.570  10.360
 2893DOPG   GL056569  25.170  12.040  10.210
 2893DOPG   PO456570  25.590  12.120  10.360
 2893DOPG   GL156571  25.230  12.320  10.590
 2893DOPG   GL256572  25.420  12.230  10.830
 2893DOPG   C1A56573  24.820  12.510  10.820
 2893DOPG   D2A56574  24.560  12.650  11.120
 2893DOPG   C3A56575  24.200  12.780  10.990
 2893DOPG   C4A56576  23.870  13.000  10.710
 2893DOPG   C1B56577  25.440  12.150  11.220
 2893DOPG   D2B56578  25.320  12.180  11.550
 2893DOPG   C3B56579  25.260  11.670  11.640
 2893DOPG   C4B56580  25.350  11.260  11.750
 2894DOPG   GL056581  30.940  20.150  15.120
 2894DOPG   PO456582  30.860  19.770  14.920
 2894DOPG   GL156583  30.550  19.580  14.640
 2894DOPG   GL256584  30.330  19.490  14.810
 2894DOPG   C1A56585  30.400  19.240  14.380
 2894DOPG   D2A56586  30.200  19.130  13.990
 2894DOPG   C3A56587  29.850  18.920  14.000
 2894DOPG   C4A56588  29.450  18.640  14.020
 2894DOPG   C1B56589  30.100  19.720  14.630
 2894DOPG   D2B56590  29.790  19.920  14.480
 2894DOPG   C3B56591  29.470  19.870  14.120
 2894DOPG   C4B56592  29.140  19.670  13.880
 2895DOPG   GL056593   7.330  14.840  18.790
 2895DOPG   PO456594   7.020  14.510  18.500
 2895DOPG   GL156595   7.420  14.530  18.300
 2895DOPG   GL256596   7.640  14.230  18.120
 2895DOPG   C1A56597   7.840  14.740  18.090
 2895DOPG   D2A56598   8.210  14.630  17.910
 2895DOPG   C3A56599   8.250  14.370  17.630
 2895DOPG   C4A56600   8.570  14.170  17.480
 2895DOPG   C1B56601   7.780  14.230  17.670
 2895DOPG   D2B56602   7.950  14.320  17.210
 2895DOPG   C3B56603   7.870  14.770  17.080
 2895DOPG   C4B56604   8.080  15.060  16.830
 2896DOPG   GL056605  13.800   4.840  21.020
 2896DOPG   PO456606  13.730   4.950  21.390
 2896DOPG   GL156607  13.860   5.320  21.150
 2896DOPG   GL256608  14.060   5.590  21.290
 2896DOPG   C1A56609  13.720   5.500  20.810
 2896DOPG   D2A56610  13.570   5.830  20.650
 2896DOPG   C3A56611  13.540   5.980  20.240
 2896DOPG   C4A56612  13.910   5.990  20.010
 2896DOPG   C1B56613  13.970   5.950  20.880
 2896DOPG   D2B56614  13.660   6.320  20.760
 2896DOPG   C3B56615  13.190   6.230  20.640
 2896DOPG   C4B56616  12.790   6.110  20.770
 2897DOPG   GL056617  12.840  13.600  11.740
 2897DOPG   PO456618  12.650  13.900  12.030
 2897DOPG   GL156619  13.150  13.890  12.070
 2897DOPG   GL256620  13.290  13.810  11.760
 2897DOPG   C1A56621  13.590  14.010  12.300
 2897DOPG   D2A56622  13.960  13.760  12.600
 2897DOPG   C3A56623  14.300  13.970  12.430
 2897DOPG   C4A56624  14.540  14.420  12.450
 2897DOPG   C1B56625  13.600  13.710  11.920
 2897DOPG   D2B56626  14.030  13.840  11.910
 2897DOPG   C3B56627  14.360  13.570  11.870
 2897DOPG   C4B56628  14.520  13.200  11.930
 2898DOPG   GL056629  22.880   6.810  17.140
 2898DOPG   PO456630  22.520   6.850  16.870
 2898DOPG   GL156631  22.380   7.210  16.750
 2898DOPG   GL256632  22.330   7.330  16.430
 2898DOPG   C1A56633  22.510   7.570  16.860
 2898DOPG   D2A56634  22.860   7.810  17.110
 2898DOPG   C3A56635  23.060   8.090  16.840
 2898DOPG   C4A56636  22.980   8.440  16.720
 2898DOPG   C1B56637  22.240   7.740  16.410
 2898DOPG   D2B56638  22.270   8.050  16.080
 2898DOPG   C3B56639  22.550   8.350  15.970
 2898DOPG   C4B56640  22.950   8.550  16.200
 2899DOPG   GL056641  19.220   7.340  11.000
 2899DOPG   PO456642  19.500   7.630  11.120
 2899DOPG   GL156643  19.460   8.100  11.210
 2899DOPG   GL256644  19.810   8.040  11.220
 2899DOPG   C1A56645  19.580   8.400  11.460
 2899DOPG   D2A56646  19.490   8.800  11.300
 2899DOPG   C3A56647  19.180   8.950  11.010
 2899DOPG   C4A56648  18.800   9.190  11.030
 2899DOPG   C1B56649  20.210   8.250  11.470
 2899DOPG   D2B56650  20.330   8.310  11.920
 2899DOPG   C3B56651  20.160   8.520  12.260
 2899DOPG   C4B56652  20.310   8.970  12.380
 2900DOPG   GL056653  24.250  11.820   8.910
 2900DOPG   PO456654  24.110  11.880   9.320
 2900DOPG   GL156655  23.970  11.900   9.730
 2900DOPG   GL256656  23.910  12.220   9.830
 2900DOPG   C1A56657  23.910  11.810  10.140
 2900DOPG   D2A56658  23.650  11.950  10.450
 2900DOPG   C3A56659  23.650  12.090  10.780
 2900DOPG   C4A56660  23.310  12.040  11.160
 2900DOPG   C1B56661  23.590  12.450  10.170
 2900DOPG   D2B56662  23.210  12.300  10.310
 2900DOPG   C3B56663  23.090  12.030  10.680
 2900DOPG   C4B56664  23.190  11.660  10.900
 2901DOPG   GL056665  22.120   6.430  13.330
 2901DOPG   PO456666  22.440   6.450  13.010
 2901DOPG   GL156667  22.090   6.790  12.990
 2901DOPG   GL256668  21.780   6.740  13.000
 2901DOPG   C1A56669  21.980   7.280  13.120
 2901DOPG   D2A56670  22.010   7.630  12.900
 2901DOPG   C3A56671  21.710   7.840  12.730
 2901DOPG   C4A56672  21.390   7.570  12.540
 2901DOPG   C1B56673  21.420   7.030  13.000
 2901DOPG   D2B56674  21.490   7.430  13.020
 2901DOPG   C3B56675  21.330   7.820  13.210
 2901DOPG   C4B56676  21.310   8.180  13.030
 2902DOPG   GL056677  14.210  11.410  11.690
 2902DOPG   PO456678  14.450  11.320  12.130
 2902DOPG   GL156679  14.740  11.610  12.290
 2902DOPG   GL256680  14.960  11.410  12.480
 2902DOPG   C1A56681  14.960  11.990  12.260
 2902DOPG   D2A56682  15.070  12.410  12.000
 2902DOPG   C3A56683  15.510  12.460  11.880
 2902DOPG   C4A56684  15.920  12.410  12.080
 2902DOPG   C1B56685  14.980  11.800  12.700
 2902DOPG   D2B56686  15.310  12.150  12.710
 2902DOPG   C3B56687  15.410  12.460  12.390
 2902DOPG   C4B56688  15.500  12.950  12.190
 2903DOPG   GL056689  17.280  12.120  18.310
 2903DOPG   PO456690  16.930  12.410  18.210
 2903DOPG   GL156691  16.960  12.740  17.980
 2903DOPG   GL256692  17.220  13.030  17.990
 2903DOPG   C1A56693  17.020  12.850  17.580
 2903DOPG   D2A56694  17.390  12.830  17.240
 2903DOPG   C3A56695  17.720  12.930  17.350
 2903DOPG   C4A56696  17.890  13.310  17.350
 2903DOPG   C1B56697  17.460  12.850  17.720
 2903DOPG   D2B56698  17.600  12.490  17.530
 2903DOPG   C3B56699  17.720  12.520  17.060
 2903DOPG   C4B56700  17.920  12.970  16.930
 2904DOPG   GL056701  24.760  12.920   8.790
 2904DOPG   PO456702  24.750  13.070   9.210
 2904DOPG   GL156703  24.470  13.100   9.500
 2904DOPG   GL256704  24.680  13.430   9.800
 2904DOPG   C1A56705  24.220  12.770   9.670
 2904DOPG   D2A56706  23.870  12.940   9.820
 2904DOPG   C3A56707  23.500  13.060   9.510
 2904DOPG   C4A56708  23.120  12.840   9.380
 2904DOPG   C1B56709  24.370  13.130  10.060
 2904DOPG   D2B56710  24.160  13.040  10.350
 2904DOPG   C3B56711  24.080  13.410  10.520
 2904DOPG   C4B56712  23.600  13.600  10.400
 2905DOPG   GL056713  23.860  14.830  18.580
 2905DOPG   PO456714  23.730  15.230  18.520
 2905DOPG   GL156715  23.440  14.990  18.380
 2905DOPG   GL256716  23.140  15.110  18.400
 2905DOPG   C1A56717  23.350  14.730  18.090
 2905DOPG   D2A56718  23.450  14.810  17.690
 2905DOPG   C3A56719  23.280  14.520  17.330
 2905DOPG   C4A56720  23.400  14.540  16.920
 2905DOPG   C1B56721  23.060  15.160  17.950
 2905DOPG   D2B56722  22.970  14.820  17.660
 2905DOPG   C3B56723  23.100  14.390  17.740
 2905DOPG   C4B56724  23.110  14.130  18.190
 2906DOPG   GL056725  21.620  21.040  17.060
 2906DOPG   PO456726  21.660  20.650  16.880
 2906DOPG   GL156727  21.560  20.270  16.640
 2906DOPG   GL256728  21.690  19.990  16.620
 2906DOPG   C1A56729  21.260  19.880  16.450
 2906DOPG   D2A56730  21.200  19.380  16.440
 2906DOPG   C3A56731  20.830  19.200  16.460
 2906DOPG   C4A56732  20.410  19.230  16.440
 2906DOPG   C1B56733  21.650  19.690  16.160
 2906DOPG   D2B56734  21.350  19.840  15.920
 2906DOPG   C3B56735  21.330  19.620  15.470
 2906DOPG   C4B56736  21.320  19.380  15.140
 2907DOPG   GL056737  13.880  19.890  11.970
 2907DOPG   PO456738  13.610  19.820  12.350
 2907DOPG   GL156739  13.560  19.420  12.630
 2907DOPG   GL256740  13.370  19.150  12.470
 2907DOPG   C1A56741  13.750  19.000  12.780
 2907DOPG   D2A56742  13.880  19.070  13.200
 2907DOPG   C3A56743  14.260  18.850  13.230
 2907DOPG   C4A56744  14.550  18.850  13.560
 2907DOPG   C1B56745  13.700  18.910  12.300
 2907DOPG   D2B56746  14.010  18.650  12.110
 2907DOPG   C3B56747  14.400  18.440  12.330
 2907DOPG   C4B56748  14.790  18.620  12.440
 2908DOPG   GL056749  10.460  21.130   7.040
 2908DOPG   PO456750  10.320  20.880   7.270
 2908DOPG   GL156751  10.500  20.870   7.770
 2908DOPG   GL256752  10.660  21.160   7.950
 2908DOPG   C1A56753  10.670  20.510   8.010
 2908DOPG   D2A56754  10.960  20.290   8.220
 2908DOPG   C3A56755  10.980  20.360   8.640
 2908DOPG   C4A56756  11.360  20.550   8.960
 2908DOPG   C1B56757  11.030  20.990   7.640
 2908DOPG   D2B56758  11.550  20.880   7.610
 2908DOPG   C3B56759  11.740  20.660   7.950
 2908DOPG   C4B56760  11.950  20.630   8.330
 2909DOPG   GL056761  17.320   0.710  13.920
 2909DOPG   PO456762  17.690   0.920  13.690
 2909DOPG   GL156763  17.860   1.240  13.890
 2909DOPG   GL256764  17.870   1.260  14.270
 2909DOPG   C1A56765  18.090   1.560  13.880
 2909DOPG   D2A56766  17.990   2.020  13.950
 2909DOPG   C3A56767  17.990   2.350  13.690
 2909DOPG   C4A56768  17.890   2.750  13.550
 2909DOPG   C1B56769  18.090   1.350  14.720
 2909DOPG   D2B56770  18.430   1.710  14.690
 2909DOPG   C3B56771  18.330   2.190  14.680
 2909DOPG   C4B56772  18.280   2.650  14.680
 2910DOPG   GL056773  17.750  27.740  10.530
 2910DOPG   PO456774  17.900  27.240  10.450
 2910DOPG   GL156775  18.000  26.840  10.380
 2910DOPG   GL256776  17.990  26.750  10.090
 2910DOPG   C1A56777  17.680  26.410  10.480
 2910DOPG   D2A56778  17.370  26.270  10.630
 2910DOPG   C3A56779  17.200  25.880  10.470
 2910DOPG   C4A56780  17.080  25.490  10.320
 2910DOPG   C1B56781  17.730  26.370   9.950
 2910DOPG   D2B56782  17.560  26.190   9.670
 2910DOPG   C3B56783  17.750  25.930   9.390
 2910DOPG   C4B56784  17.660  25.690   9.060
 2911DOPG   GL056785  25.030  10.060  18.080
 2911DOPG   PO456786  24.630  10.090  17.820
 2911DOPG   GL156787  24.440  10.250  17.400
 2911DOPG   GL256788  24.350  10.040  17.140
 2911DOPG   C1A56789  24.560  10.600  17.150
 2911DOPG   D2A56790  24.760  10.950  16.840
 2911DOPG   C3A56791  24.440  11.360  16.740
 2911DOPG   C4A56792  24.160  11.390  16.470
 2911DOPG   C1B56793  24.420   9.930  16.690
 2911DOPG   D2B56794  24.370   9.640  16.240
 2911DOPG   C3B56795  24.610   9.700  15.870
 2911DOPG   C4B56796  24.900   9.390  15.710
 2912DOPG   GL056797  19.230  19.590  18.010
 2912DOPG   PO456798  19.640  19.550  18.170
 2912DOPG   GL156799  19.610  19.310  17.740
 2912DOPG   GL256800  19.440  19.570  17.470
 2912DOPG   C1A56801  19.350  19.120  17.500
 2912DOPG   D2A56802  19.190  19.010  17.050
 2912DOPG   C3A56803  18.940  18.620  17.030
 2912DOPG   C4A56804  18.910  18.320  16.690
 2912DOPG   C1B56805  19.550  19.310  17.110
 2912DOPG   D2B56806  19.580  19.030  16.650
 2912DOPG   C3B56807  19.890  18.710  16.700
 2912DOPG   C4B56808  19.890  18.680  16.190
 2913DOPG   GL056809  27.330  13.470  16.520
 2913DOPG   PO456810  27.080  13.560  16.220
 2913DOPG   GL156811  27.010  13.180  16.040
 2913DOPG   GL256812  26.700  13.170  16.210
 2913DOPG   C1A56813  26.860  12.770  16.010
 2913DOPG   D2A56814  26.580  12.630  15.980
 2913DOPG   C3A56815  26.400  12.300  15.760
 2913DOPG   C4A56816  26.510  12.030  15.410
 2913DOPG   C1B56817  26.650  13.070  15.700
 2913DOPG   D2B56818  26.400  13.370  15.590
 2913DOPG   C3B56819  26.560  13.670  15.310
 2913DOPG   C4B56820  26.660  13.860  14.900
 2914DOPG   GL056821  15.730  14.780  18.950
 2914DOPG   PO456822  15.620  14.730  18.480
 2914DOPG   GL156823  15.800  14.860  18.030
 2914DOPG   GL256824  15.580  14.960  17.780
 2914DOPG   C1A56825  16.110  14.930  17.760
 2914DOPG   D2A56826  16.150  14.690  17.410
 2914DOPG   C3A56827  16.420  14.810  17.150
 2914DOPG   C4A56828  16.590  15.200  17.050
 2914DOPG   C1B56829  15.650  14.950  17.350
 2914DOPG   D2B56830  15.690  14.580  17.140
 2914DOPG   C3B56831  15.860  14.600  16.700
 2914DOPG   C4B56832  15.780  14.370  16.320
 2915DOPG   GL056833  13.930  17.170  18.530
 2915DOPG   PO456834  14.190  17.510  18.330
 2915DOPG   GL156835  14.160  17.630  18.780
 2915DOPG   GL256836  14.390  17.850  18.820
 2915DOPG   C1A56837  13.790  17.620  19.060
 2915DOPG   D2A56838  13.490  17.900  19.340
 2915DOPG   C3A56839  13.520  17.910  19.750
 2915DOPG   C4A56840  13.580  17.850  20.160
 2915DOPG   C1B56841  14.430  17.930  19.220
 2915DOPG   D2B56842  14.710  17.980  19.490
 2915DOPG   C3B56843  14.560  18.170  19.880
 2915DOPG   C4B56844  14.550  18.410  20.320
 2916DOPG   GL056845  14.270  19.530  22.350
 2916DOPG   PO456846  14.570  19.740  22.260
 2916DOPG   GL156847  14.440  19.780  21.770
 2916DOPG   GL256848  14.320  20.020  21.500
 2916DOPG   C1A56849  14.740  19.810  21.470
 2916DOPG   D2A56850  14.920  19.790  20.990
 2916DOPG   C3A56851  15.200  20.070  20.740
 2916DOPG   C4A56852  15.330  20.510  20.710
 2916DOPG   C1B56853  14.420  20.070  21.120
 2916DOPG   D2B56854  14.590  20.020  20.720
 2916DOPG   C3B56855  14.910  19.770  20.460
 2916DOPG   C4B56856  15.080  19.610  20.120
 2917DOPG   GL056857  24.130   9.070  24.570
 2917DOPG   PO456858  24.290   9.170  24.190
 2917DOPG   GL156859  24.310   9.260  23.790
 2917DOPG   GL256860  24.430   9.590  23.700
 2917DOPG   C1A56861  24.190   9.170  23.470
 2917DOPG   D2A56862  24.160   8.960  23.120
 2917DOPG   C3A56863  23.840   9.120  22.850
 2917DOPG   C4A56864  23.580   9.110  22.530
 2917DOPG   C1B56865  24.510   9.860  23.260
 2917DOPG   D2B56866  24.460   9.870  22.720
 2917DOPG   C3B56867  24.370  10.340  22.520
 2917DOPG   C4B56868  24.080  10.540  22.390
 2918DOPG   GL056869  17.180  13.250   3.420
 2918DOPG   PO456870  17.340  12.810   3.560
 2918DOPG   GL156871  17.480  12.930   3.950
 2918DOPG   GL256872  17.680  13.120   4.170
 2918DOPG   C1A56873  17.430  12.750   4.400
 2918DOPG   D2A56874  17.500  12.830   4.900
 2918DOPG   C3A56875  17.180  12.740   5.060
 2918DOPG   C4A56876  16.820  12.580   5.300
 2918DOPG   C1B56877  17.810  13.070   4.620
 2918DOPG   D2B56878  17.780  13.180   5.130
 2918DOPG   C3B56879  17.430  13.090   5.340
 2918DOPG   C4B56880  16.970  13.050   5.440
 2919DOPG   GL056881  22.230  21.700  14.560
 2919DOPG   PO456882  22.180  21.850  14.840
 2919DOPG   GL156883  21.860  21.540  14.880
 2919DOPG   GL256884  21.690  21.470  15.210
 2919DOPG   C1A56885  21.570  21.550  14.570
 2919DOPG   D2A56886  21.240  21.560  14.490
 2919DOPG   C3A56887  20.970  21.400  14.210
 2919DOPG   C4A56888  20.900  21.610  13.830
 2919DOPG   C1B56889  21.570  21.130  14.850
 2919DOPG   D2B56890  21.440  21.080  14.450
 2919DOPG   C3B56891  21.810  21.140  14.080
 2919DOPG   C4B56892  21.750  20.980  13.740
 2920DOPG   GL056893  16.960  20.650  17.250
 2920DOPG   PO456894  17.290  20.320  17.160
 2920DOPG   GL156895  17.650  20.060  16.950
 2920DOPG   GL256896  17.760  19.900  17.140
 2920DOPG   C1A56897  17.810  19.700  16.680
 2920DOPG   D2A56898  18.140  19.560  16.260
 2920DOPG   C3A56899  17.980  19.550  15.910
 2920DOPG   C4A56900  17.870  19.960  15.770
 2920DOPG   C1B56901  18.140  19.960  16.870
 2920DOPG   D2B56902  18.520  19.830  16.700
 2920DOPG   C3B56903  18.370  19.420  16.640
 2920DOPG   C4B56904  18.360  19.100  16.230
 2921DOPG   GL056905  25.660  16.030   4.450
 2921DOPG   PO456906  26.070  16.010   4.590
 2921DOPG   GL156907  25.950  15.940   4.960
 2921DOPG   GL256908  25.650  15.710   4.830
 2921DOPG   C1A56909  25.850  15.920   5.350
 2921DOPG   D2A56910  25.660  15.960   5.780
 2921DOPG   C3A56911  25.770  16.300   6.220
 2921DOPG   C4A56912  25.440  16.380   6.560
 2921DOPG   C1B56913  25.550  16.210   4.910
 2921DOPG   D2B56914  25.210  16.460   5.060
 2921DOPG   C3B56915  24.740  16.210   5.280
 2921DOPG   C4B56916  24.440  15.930   5.460
 2922DOPG   GL056917  25.580  18.100   9.860
 2922DOPG   PO456918  25.570  17.830   9.500
 2922DOPG   GL156919  26.040  17.920   9.170
 2922DOPG   GL256920  25.980  18.290   9.140
 2922DOPG   C1A56921  26.370  17.650   8.850
 2922DOPG   D2A56922  26.920  17.730   8.760
 2922DOPG   C3A56923  26.990  17.870   8.350
 2922DOPG   C4A56924  26.980  18.150   7.930
 2922DOPG   C1B56925  26.370  18.170   8.890
 2922DOPG   D2B56926  26.720  18.210   8.520
 2922DOPG   C3B56927  26.710  18.490   8.190
 2922DOPG   C4B56928  26.610  18.710   7.890
 2923DOPG   GL056929  16.350   8.890  12.570
 2923DOPG   PO456930  16.590   8.700  12.330
 2923DOPG   GL156931  16.880   8.960  12.600
 2923DOPG   GL256932  16.830   9.340  12.360
 2923DOPG   C1A56933  17.320   9.100  12.510
 2923DOPG   D2A56934  17.410   9.560  12.570
 2923DOPG   C3A56935  17.670   9.920  12.320
 2923DOPG   C4A56936  17.810  10.360  12.380
 2923DOPG   C1B56937  17.260   9.480  12.110
 2923DOPG   D2B56938  17.200   9.850  12.030
 2923DOPG   C3B56939  17.400  10.360  11.980
 2923DOPG   C4B56940  17.470  10.700  11.850
 2924DOPG   GL056941  32.480  14.990  17.440
 2924DOPG   PO456942  32.290  15.370  17.300
 2924DOPG   GL156943  31.910  15.290  17.030
 2924DOPG   GL256944  31.940  15.510  16.720
 2924DOPG   C1A56945  31.350  15.380  16.960
 2924DOPG   D2A56946  30.940  15.100  16.970
 2924DOPG   C3A56947  30.530  15.090  16.800
 2924DOPG   C4A56948  30.140  14.770  16.740
 2924DOPG   C1B56949  31.520  15.330  16.440
 2924DOPG   D2B56950  31.090  15.100  16.430
 2924DOPG   C3B56951  30.790  15.210  16.150
 2924DOPG   C4B56952  30.400  15.340  15.970
 2925DOPG   GL056953  12.150  15.160  14.890
 2925DOPG   PO456954  12.250  15.190  14.480
 2925DOPG   GL156955  12.670  15.330  14.400
 2925DOPG   GL256956  12.820  15.630  14.310
 2925DOPG   C1A56957  13.030  15.030  14.300
 2925DOPG   D2A56958  13.250  14.710  14.490
 2925DOPG   C3A56959  13.660  14.790  14.260
 2925DOPG   C4A56960  14.060  14.560  14.240
 2925DOPG   C1B56961  13.210  15.550  14.260
 2925DOPG   D2B56962  13.430  15.230  14.080
 2925DOPG   C3B56963  13.720  15.300  13.800
 2925DOPG   C4B56964  13.990  15.280  13.410
 2926DOPG   GL056965  22.070  18.620  18.800
 2926DOPG   PO456966  21.880  18.250  18.780
 2926DOPG   GL156967  21.720  18.100  18.390
 2926DOPG   GL256968  21.800  18.250  18.070
 2926DOPG   C1A56969  21.760  17.590  18.330
 2926DOPG   D2A56970  21.370  17.410  18.170
 2926DOPG   C3A56971  21.400  17.240  17.720
 2926DOPG   C4A56972  21.420  17.040  17.380
 2926DOPG   C1B56973  21.760  18.130  17.630
 2926DOPG   D2B56974  21.810  18.020  17.170
 2926DOPG   C3B56975  21.650  18.000  16.650
 2926DOPG   C4B56976  21.680  18.060  16.270
 2927DOPG   GL056977  17.560   4.110  22.390
 2927DOPG   PO456978  17.310   4.480  22.180
 2927DOPG   GL156979  17.570   4.620  21.880
 2927DOPG   GL256980  17.610   4.470  21.580
 2927DOPG   C1A56981  17.990   4.630  21.780
 2927DOPG   D2A56982  18.310   4.270  21.770
 2927DOPG   C3A56983  18.370   4.230  21.260
 2927DOPG   C4A56984  18.810   4.120  21.090
 2927DOPG   C1B56985  17.900   4.310  21.350
 2927DOPG   D2B56986  17.940   4.040  20.960
 2927DOPG   C3B56987  18.070   4.260  20.690
 2927DOPG   C4B56988  17.970   4.420  20.350
 2928DOPG   GL056989  24.100  10.200  10.120
 2928DOPG   PO456990  23.800  10.100   9.920
 2928DOPG   GL156991  23.480  10.250  10.180
 2928DOPG   GL256992  23.280  10.530  10.090
 2928DOPG   C1A56993  23.360  10.540  10.560
 2928DOPG   D2A56994  22.910  10.630  10.710
 2928DOPG   C3A56995  22.840  10.880  11.040
 2928DOPG   C4A56996  22.850  11.280  11.140
 2928DOPG   C1B56997  22.920  10.910  10.260
 2928DOPG   D2B56998  22.690  11.290   9.950
 2928DOPG   C3B56999  22.790  11.510   9.680
 2928DOPG   C4B57000  22.840  11.930   9.660
 2929DOPG   GL057001  20.380   1.330  12.950
 2929DOPG   PO457002  20.170   0.990  12.680
 2929DOPG   GL157003  20.160   1.490  12.510
 2929DOPG   GL257004  20.600   1.560  12.340
 2929DOPG   C1A57005  20.210   1.870  12.340
 2929DOPG   D2A57006  20.370   2.280  12.490
 2929DOPG   C3A57007  20.250   2.670  12.440
 2929DOPG   C4A57008  19.740   2.740  12.600
 2929DOPG   C1B57009  20.790   2.040  12.380
 2929DOPG   D2B57010  20.860   2.280  12.750
 2929DOPG   C3B57011  20.700   2.660  12.910
 2929DOPG   C4B57012  20.410   3.090  12.980
 2930DOPG   GL057013  16.200  13.350   8.570
 2930DOPG   PO457014  16.190  13.240   8.920
 2930DOPG   GL157015  16.420  13.180   9.240
 2930DOPG   GL257016  16.590  13.480   9.270
 2930DOPG   C1A57017  16.480  13.170   9.690
 2930DOPG   D2A57018  16.540  13.310  10.050
 2930DOPG   C3A57019  16.190  13.310  10.210
 2930DOPG   C4A57020  16.070  13.200  10.650
 2930DOPG   C1B57021  16.460  13.800   9.730
 2930DOPG   D2B57022  16.570  13.820  10.200
 2930DOPG   C3B57023  16.910  13.570  10.290
 2930DOPG   C4B57024  16.950  13.160  10.310
 2931DOPG   GL057025  14.300  20.530  15.060
 2931DOPG   PO457026  14.700  20.730  15.320
 2931DOPG   GL157027  15.140  20.650  15.090
 2931DOPG   GL257028  15.340  20.860  15.230
 2931DOPG   C1A57029  15.320  20.430  14.740
 2931DOPG   D2A57030  15.400  20.150  14.510
 2931DOPG   C3A57031  15.200  20.060  14.140
 2931DOPG   C4A57032  14.930  19.920  13.890
 2931DOPG   C1B57033  15.560  20.540  15.290
 2931DOPG   D2B57034  15.710  20.190  15.050
 2931DOPG   C3B57035  15.750  19.890  14.740
 2931DOPG   C4B57036  15.550  19.760  14.280
 2932DOPG   GL057037  15.340  10.620  14.680
 2932DOPG   PO457038  15.100  10.950  14.690
 2932DOPG   GL157039  15.450  11.190  14.670
 2932DOPG   GL257040  15.510  11.130  14.350
 2932DOPG   C1A57041  15.760  11.530  14.580
 2932DOPG   D2A57042  16.080  11.740  14.620
 2932DOPG   C3A57043  16.170  12.100  14.890
 2932DOPG   C4A57044  16.250  12.450  15.110
 2932DOPG   C1B57045  15.740  11.360  14.030
 2932DOPG   D2B57046  15.830  11.640  13.670
 2932DOPG   C3B57047  16.180  11.850  13.730
 2932DOPG   C4B57048  16.580  11.950  13.740
 2933DOPG   GL057049  14.930   3.610  19.760
 2933DOPG   PO457050  14.550   3.610  19.970
 2933DOPG   GL157051  14.600   4.010  19.870
 2933DOPG   GL257052  14.420   4.270  19.780
 2933DOPG   C1A57053  14.880   4.180  19.510
 2933DOPG   D2A57054  14.900   4.350  19.120
 2933DOPG   C3A57055  15.220   4.760  19.110
 2933DOPG   C4A57056  15.550   5.000  18.910
 2933DOPG   C1B57057  14.560   4.660  19.830
 2933DOPG   D2B57058  14.400   5.030  19.730
 2933DOPG   C3B57059  13.970   5.110  19.810
 2933DOPG   C4B57060  13.550   5.020  20.010
 2934DOPG   GL057061  14.910  21.480   9.840
 2934DOPG   PO457062  15.120  21.830   9.860
 2934DOPG   GL157063  15.150  22.010   9.430
 2934DOPG   GL257064  14.810  21.780   9.360
 2934DOPG   C1A57065  15.140  21.940   9.030
 2934DOPG   D2A57066  15.110  22.260   8.760
 2934DOPG   C3A57067  14.990  22.720   8.930
 2934DOPG   C4A57068  14.980  23.240   8.880
 2934DOPG   C1B57069  14.720  22.180   9.160
 2934DOPG   D2B57070  14.310  22.360   9.190
 2934DOPG   C3B57071  14.490  22.630   9.240
 2934DOPG   C4B57072  14.290  22.880   9.020
 2935DOPG   GL057073  25.660  14.530   8.150
 2935DOPG   PO457074  25.280  14.430   8.150
 2935DOPG   GL157075  25.640  14.080   8.010
 2935DOPG   GL257076  25.710  13.790   8.200
 2935DOPG   C1A57077  25.850  14.130   7.600
 2935DOPG   D2A57078  25.880  14.140   7.190
 2935DOPG   C3A57079  26.080  14.370   6.810
 2935DOPG   C4A57080  25.920  14.770   6.560
 2935DOPG   C1B57081  26.180  13.630   7.910
 2935DOPG   D2B57082  26.530  13.670   7.710
 2935DOPG   C3B57083  26.530  13.700   7.340
 2935DOPG   C4B57084  26.680  13.720   6.850
 2936DOPG   GL057085  21.940  19.240   8.500
 2936DOPG   PO457086  22.030  19.420   8.910
 2936DOPG   GL157087  22.000  19.200   9.270
 2936DOPG   GL257088  22.090  18.810   9.140
 2936DOPG   C1A57089  21.600  19.010   9.400
 2936DOPG   D2A57090  21.300  18.800   9.650
 2936DOPG   C3A57091  21.430  18.400   9.920
 2936DOPG   C4A57092  21.250  18.080  10.180
 2936DOPG   C1B57093  21.970  18.690   9.550
 2936DOPG   D2B57094  21.980  18.580   9.960
 2936DOPG   C3B57095  21.750  18.440  10.290
 2936DOPG   C4B57096  21.420  18.510  10.520
 2937DOPG   GL057097  21.160  11.690   8.270
 2937DOPG   PO457098  21.160  11.490   8.760
 2937DOPG   GL157099  21.010  11.840   9.030
 2937DOPG   GL257100  21.020  12.120   8.980
 2937DOPG   C1A57101  20.820  12.000   9.430
 2937DOPG   D2A57102  20.950  12.240   9.740
 2937DOPG   C3A57103  20.840  12.170  10.160
 2937DOPG   C4A57104  21.020  12.240  10.590
 2937DOPG   C1B57105  21.220  12.350   9.280
 2937DOPG   D2B57106  21.390  12.470   9.620
 2937DOPG   C3B57107  21.670  12.280   9.690
 2937DOPG   C4B57108  21.980  11.940   9.700
 2938DOPG   GL057109  16.040  15.570   8.140
 2938DOPG   PO457110  16.290  15.440   8.500
 2938DOPG   GL157111  16.320  15.410   8.940
 2938DOPG   GL257112  16.330  15.040   9.010
 2938DOPG   C1A57113  16.200  15.670   9.360
 2938DOPG   D2A57114  16.250  16.080   9.560
 2938DOPG   C3A57115  16.520  16.190   9.990
 2938DOPG   C4A57116  16.630  16.180  10.360
 2938DOPG   C1B57117  16.320  15.000   9.450
 2938DOPG   D2B57118  16.420  14.730   9.770
 2938DOPG   C3B57119  16.230  14.720  10.110
 2938DOPG   C4B57120  15.860  14.760  10.450
 2939DOPG   GL057121  22.620  11.390  19.110
 2939DOPG   PO457122  22.270  11.180  18.910
 2939DOPG   GL157123  21.980  11.190  18.510
 2939DOPG   GL257124  21.580  11.070  18.620
 2939DOPG   C1A57125  21.870  11.290  18.110
 2939DOPG   D2A57126  22.000  11.310  17.700
 2939DOPG   C3A57127  22.060  11.530  17.400
 2939DOPG   C4A57128  22.260  11.490  17.040
 2939DOPG   C1B57129  21.860  10.780  18.310
 2939DOPG   D2B57130  22.250  10.920  18.070
 2939DOPG   C3B57131  22.160  10.800  17.730
 2939DOPG   C4B57132  21.810  10.700  17.510
 2940DOPG   GL057133  12.860  23.160  20.370
 2940DOPG   PO457134  13.140  22.930  20.130
 2940DOPG   GL157135  13.060  23.020  19.650
 2940DOPG   GL257136  12.900  22.670  19.630
 2940DOPG   C1A57137  13.040  22.890  19.170
 2940DOPG   D2A57138  12.800  22.780  18.810
 2940DOPG   C3A57139  12.980  22.450  18.560
 2940DOPG   C4A57140  13.290  22.070  18.510
 2940DOPG   C1B57141  13.090  22.220  19.620
 2940DOPG   D2B57142  13.250  21.930  19.890
 2940DOPG   C3B57143  12.920  21.740  20.090
 2940DOPG   C4B57144  12.940  21.490  20.430
 2941DOPG   GL057145  11.170  15.370  21.330
 2941DOPG   PO457146  10.700  15.530  21.340
 2941DOPG   GL157147  10.730  15.320  21.000
 2941DOPG   GL257148  10.600  15.410  20.720
 2941DOPG   C1A57149  11.110  15.080  20.900
 2941DOPG   D2A57150  11.460  14.980  20.740
 2941DOPG   C3A57151  11.470  15.030  20.310
 2941DOPG   C4A57152  11.170  15.070  19.980
 2941DOPG   C1B57153  10.960  15.350  20.440
 2941DOPG   D2B57154  11.230  15.560  20.190
 2941DOPG   C3B57155  11.690  15.370  19.870
 2941DOPG   C4B57156  12.180  15.370  20.040
 2942DOPG   GL057157  13.670  25.030   7.230
 2942DOPG   PO457158  14.050  24.850   7.170
 2942DOPG   GL157159  14.310  24.490   7.330
 2942DOPG   GL257160  14.340  24.290   7.530
 2942DOPG   C1A57161  14.740  24.580   7.560
 2942DOPG   D2A57162  15.100  24.210   7.570
 2942DOPG   C3A57163  15.070  23.940   7.840
 2942DOPG   C4A57164  15.240  23.720   8.110
 2942DOPG   C1B57165  14.450  24.390   7.930
 2942DOPG   D2B57166  14.240  24.420   8.250
 2942DOPG   C3B57167  14.390  24.180   8.630
 2942DOPG   C4B57168  14.600  23.920   8.960
 2943DOPG   GL057169  12.410  16.220  12.490
 2943DOPG   PO457170  12.410  15.930  12.150
 2943DOPG   GL157171  12.830  16.120  12.170
 2943DOPG   GL257172  12.960  15.890  11.830
 2943DOPG   C1A57173  13.270  16.260  12.210
 2943DOPG   D2A57174  13.690  16.090  12.250
 2943DOPG   C3A57175  13.810  16.160  12.630
 2943DOPG   C4A57176  14.090  16.530  12.770
 2943DOPG   C1B57177  13.390  15.860  11.830
 2943DOPG   D2B57178  13.870  15.860  11.690
 2943DOPG   C3B57179  14.110  15.830  11.910
 2943DOPG   C4B57180  14.540  15.880  12.050
 2944DOPG   GL057181  29.980  15.220  20.910
 2944DOPG   PO457182  29.690  14.810  20.860
 2944DOPG   GL157183  29.470  14.540  20.530
 2944DOPG   GL257184  29.620  14.570  20.220
 2944DOPG   C1A57185  29.170  14.890  20.350
 2944DOPG   D2A57186  28.770  14.970  20.090
 2944DOPG   C3A57187  28.470  14.980  19.780
 2944DOPG   C4A57188  28.240  14.880  19.490
 2944DOPG   C1B57189  29.320  14.220  19.980
 2944DOPG   D2B57190  29.380  13.890  19.710
 2944DOPG   C3B57191  29.200  13.780  19.310
 2944DOPG   C4B57192  29.020  13.830  19.020
 2945DOPG   GL057193  13.840  20.520  21.960
 2945DOPG   PO457194  13.740  20.180  22.110
 2945DOPG   GL157195  13.780  20.090  21.690
 2945DOPG   GL257196  13.780  19.860  21.500
 2945DOPG   C1A57197  13.870  20.260  21.220
 2945DOPG   D2A57198  14.040  20.100  20.780
 2945DOPG   C3A57199  14.150  20.290  20.520
 2945DOPG   C4A57200  14.100  20.380  20.170
 2945DOPG   C1B57201  13.990  19.690  21.140
 2945DOPG   D2B57202  13.730  19.660  20.760
 2945DOPG   C3B57203  13.560  19.230  20.690
 2945DOPG   C4B57204  13.400  18.890  20.310
 2946DOPG   GL057205  21.440   6.210  14.330
 2946DOPG   PO457206  21.170   6.380  14.060
 2946DOPG   GL157207  21.200   6.720  13.710
 2946DOPG   GL257208  21.440   6.960  13.770
 2946DOPG   C1A57209  20.830   6.840  13.500
 2946DOPG   D2A57210  20.370   6.840  13.580
 2946DOPG   C3A57211  19.990   6.970  13.910
 2946DOPG   C4A57212  19.680   7.070  14.280
 2946DOPG   C1B57213  21.230   7.290  13.620
 2946DOPG   D2B57214  20.930   7.690  13.620
 2946DOPG   C3B57215  21.040   8.010  13.590
 2946DOPG   C4B57216  21.000   8.510  13.780
 2947DOPG   GL057217  19.430  16.450   7.180
 2947DOPG   PO457218  19.340  16.120   6.950
 2947DOPG   GL157219  19.420  16.090   6.600
 2947DOPG   GL257220  19.680  15.790   6.580
 2947DOPG   C1A57221  19.370  16.170   6.200
 2947DOPG   D2A57222  19.580  15.940   5.840
 2947DOPG   C3A57223  19.500  16.000   5.370
 2947DOPG   C4A57224  19.580  16.260   5.090
 2947DOPG   C1B57225  20.010  15.730   6.220
 2947DOPG   D2B57226  20.120  15.710   5.800
 2947DOPG   C3B57227  20.000  16.000   5.540
 2947DOPG   C4B57228  19.970  15.980   5.090
 2948DOPG   GL057229  23.820  21.970   4.790
 2948DOPG   PO457230  23.850  21.560   4.820
 2948DOPG   GL157231  23.730  21.380   5.220
 2948DOPG   GL257232  24.040  21.230   5.220
 2948DOPG   C1A57233  23.750  21.210   5.620
 2948DOPG   D2A57234  23.960  21.070   5.990
 2948DOPG   C3A57235  23.930  20.700   6.090
 2948DOPG   C4A57236  23.860  20.240   6.140
 2948DOPG   C1B57237  23.630  20.910   5.240
 2948DOPG   D2B57238  23.140  20.900   5.250
 2948DOPG   C3B57239  22.680  20.670   5.430
 2948DOPG   C4B57240  22.400  20.630   5.680
 2949DOPG   GL057241  14.270  19.380  10.080
 2949DOPG   PO457242  13.930  19.480  10.170
 2949DOPG   GL157243  14.040  19.190  10.480
 2949DOPG   GL257244  14.350  19.200  10.520
 2949DOPG   C1A57245  14.120  18.820  10.710
 2949DOPG   D2A57246  14.440  18.560  10.820
 2949DOPG   C3A57247  14.910  18.620  11.080
 2949DOPG   C4A57248  15.370  18.670  11.160
 2949DOPG   C1B57249  14.590  18.790  10.420
 2949DOPG   D2B57250  14.920  18.410  10.510
 2949DOPG   C3B57251  14.650  18.140  10.680
 2949DOPG   C4B57252  14.540  17.730  10.850
 2950DOPG   GL057253  15.310  17.990   8.340
 2950DOPG   PO457254  15.290  17.720   8.630
 2950DOPG   GL157255  15.420  18.050   8.960
 2950DOPG   GL257256  15.470  18.310   8.790
 2950DOPG   C1A57257  15.530  17.990   9.330
 2950DOPG   D2A57258  15.410  18.010   9.740
 2950DOPG   C3A57259  15.390  17.720  10.070
 2950DOPG   C4A57260  15.690  17.390  10.240
 2950DOPG   C1B57261  15.820  18.360   9.050
 2950DOPG   D2B57262  16.090  18.150   9.300
 2950DOPG   C3B57263  16.000  18.000   9.740
 2950DOPG   C4B57264  15.820  17.870  10.110
 2951DOPG   GL057265  18.110  11.050   8.950
 2951DOPG   PO457266  18.080  11.460   8.930
 2951DOPG   GL157267  18.210  11.680   9.350
 2951DOPG   GL257268  18.440  11.750   9.710
 2951DOPG   C1A57269  17.940  11.660   9.830
 2951DOPG   D2A57270  17.690  11.660  10.120
 2951DOPG   C3A57271  17.660  11.890  10.550
 2951DOPG   C4A57272  17.820  12.260  10.650
 2951DOPG   C1B57273  18.380  11.330   9.890
 2951DOPG   D2B57274  18.760  11.370  10.080
 2951DOPG   C3B57275  18.950  11.410  10.440
 2951DOPG   C4B57276  19.080  11.380  10.850
 2952DOPG   GL057277  19.500  22.570  12.400
 2952DOPG   PO457278  19.250  22.760  12.760
 2952DOPG   GL157279  19.080  22.370  12.650
 2952DOPG   GL257280  18.960  22.200  12.770
 2952DOPG   C1A57281  19.250  21.970  12.390
 2952DOPG   D2A57282  19.060  21.550  12.220
 2952DOPG   C3A57283  18.960  21.340  11.920
 2952DOPG   C4A57284  19.140  21.030  11.790
 2952DOPG   C1B57285  18.720  22.180  13.090
 2952DOPG   D2B57286  18.340  21.850  13.190
 2952DOPG   C3B57287  18.320  21.510  12.950
 2952DOPG   C4B57288  18.400  21.080  12.800
 2953DOPG   GL057289  28.650  12.040  14.060
 2953DOPG   PO457290  28.980  11.740  14.050
 2953DOPG   GL157291  29.240  12.080  14.030
 2953DOPG   GL257292  29.070  12.340  13.890
 2953DOPG   C1A57293  29.740  12.250  14.150
 2953DOPG   D2A57294  30.180  12.420  14.320
 2953DOPG   C3A57295  30.470  12.480  13.990
 2953DOPG   C4A57296  30.790  12.410  13.640
 2953DOPG   C1B57297  29.550  12.370  13.700
 2953DOPG   D2B57298  30.000  12.400  13.760
 2953DOPG   C3B57299  30.320  12.070  13.730
 2953DOPG   C4B57300  30.740  11.970  13.860
 2954DOPG   GL057301  21.190  18.730  18.580
 2954DOPG   PO457302  21.230  18.390  18.260
 2954DOPG   GL157303  21.090  18.380  17.820
 2954DOPG   GL257304  21.330  18.630  17.790
 2954DOPG   C1A57305  20.840  18.430  17.450
 2954DOPG   D2A57306  20.900  18.390  17.060
 2954DOPG   C3A57307  20.710  18.050  16.850
 2954DOPG   C4A57308  20.270  17.880  16.760
 2954DOPG   C1B57309  21.390  18.350  17.450
 2954DOPG   D2B57310  21.270  18.010  17.030
 2954DOPG   C3B57311  21.110  17.660  16.950
 2954DOPG   C4B57312  20.770  17.550  16.720
 2955DOPG   GL057313  14.510   7.090  12.010
 2955DOPG   PO457314  14.620   6.710  12.210
 2955DOPG   GL157315  14.520   6.280  12.100
 2955DOPG   GL257316  14.270   6.340  11.930
 2955DOPG   C1A57317  14.400   5.850  11.840
 2955DOPG   D2A57318  14.330   5.470  11.830
 2955DOPG   C3A57319  14.080   5.420  11.450
 2955DOPG   C4A57320  13.580   5.240  11.340
 2955DOPG   C1B57321  13.930   6.090  11.700
 2955DOPG   D2B57322  13.850   5.720  11.830
 2955DOPG   C3B57323  13.980   5.610  12.240
 2955DOPG   C4B57324  13.960   5.750  12.600
 2956DOPG   GL057325  26.050  16.990  16.580
 2956DOPG   PO457326  25.720  16.680  16.590
 2956DOPG   GL157327  25.280  16.840  16.540
 2956DOPG   GL257328  25.160  16.520  16.610
 2956DOPG   C1A57329  24.850  16.820  16.250
 2956DOPG   D2A57330  24.660  16.450  15.960
 2956DOPG   C3A57331  24.740  16.390  15.570
 2956DOPG   C4A57332  24.760  16.480  15.090
 2956DOPG   C1B57333  25.260  16.410  16.120
 2956DOPG   D2B57334  25.160  16.690  15.790
 2956DOPG   C3B57335  25.130  17.160  15.870
 2956DOPG   C4B57336  25.030  17.420  15.440
 2957DOPG   GL057337  26.150   8.270  13.240
 2957DOPG   PO457338  26.500   8.480  12.950
 2957DOPG   GL157339  26.980   8.200  12.900
 2957DOPG   GL257340  27.140   8.140  13.140
 2957DOPG   C1A57341  27.340   8.080  12.660
 2957DOPG   D2A57342  27.650   7.750  12.550
 2957DOPG   C3A57343  27.940   7.610  12.170
 2957DOPG   C4A57344  27.970   7.620  11.730
 2957DOPG   C1B57345  27.560   7.890  13.070
 2957DOPG   D2B57346  27.840   7.550  12.970
 2957DOPG   C3B57347  28.250   7.620  12.610
 2957DOPG   C4B57348  28.300   7.290  12.280
 2958DOPG   GL057349  14.640  25.200   7.400
 2958DOPG   PO457350  14.440  25.590   7.660
 2958DOPG   GL157351  14.750  25.270   7.920
 2958DOPG   GL257352  15.050  25.340   7.960
 2958DOPG   C1A57353  14.780  24.800   8.070
 2958DOPG   D2A57354  14.920  24.370   8.020
 2958DOPG   C3A57355  15.330  24.480   8.000
 2958DOPG   C4A57356  15.610  24.230   8.130
 2958DOPG   C1B57357  15.480  25.160   8.130
 2958DOPG   D2B57358  15.910  25.210   8.050
 2958DOPG   C3B57359  16.270  24.960   8.250
 2958DOPG   C4B57360  16.580  24.660   8.240
 2959DOPG   GL057361  27.820  16.230  14.840
 2959DOPG   PO457362  28.140  16.350  15.080
 2959DOPG   GL157363  28.440  16.290  14.720
 2959DOPG   GL257364  28.250  16.570  14.560
 2959DOPG   C1A57365  28.740  16.330  14.460
 2959DOPG   D2A57366  29.220  16.380  14.320
 2959DOPG   C3A57367  29.590  16.400  14.590
 2959DOPG   C4A57368  29.990  16.470  14.400
 2959DOPG   C1B57369  28.640  16.760  14.600
 2959DOPG   D2B57370  29.130  16.780  14.780
 2959DOPG   C3B57371  29.380  17.000  14.960
 2959DOPG   C4B57372  29.740  17.300  14.960
 2960DOPG   GL057373  18.190  20.230   8.860
 2960DOPG   PO457374  18.000  20.570   9.090
 2960DOPG   GL157375  17.950  20.250   9.390
 2960DOPG   GL257376  17.850  19.940   9.320
 2960DOPG   C1A57377  18.080  20.170   9.760
 2960DOPG   D2A57378  18.170  19.780   9.980
 2960DOPG   C3A57379  18.040  19.370  10.180
 2960DOPG   C4A57380  17.660  19.060  10.430
 2960DOPG   C1B57381  17.670  19.540   9.420
 2960DOPG   D2B57382  17.730  19.300   9.830
 2960DOPG   C3B57383  17.560  19.530  10.260
 2960DOPG   C4B57384  17.500  19.640  10.750
 2961DOPG   GL057385  14.110   5.200  21.600
 2961DOPG   PO457386  14.450   5.240  21.450
 2961DOPG   GL157387  14.790   5.550  21.280
 2961DOPG   GL257388  15.010   5.750  21.500
 2961DOPG   C1A57389  14.960   5.730  20.940
 2961DOPG   D2A57390  14.950   5.920  20.560
 2961DOPG   C3A57391  14.920   6.010  20.150
 2961DOPG   C4A57392  14.780   5.710  19.960
 2961DOPG   C1B57393  14.770   6.020  21.340
 2961DOPG   D2B57394  14.880   6.280  20.970
 2961DOPG   C3B57395  15.120   6.550  20.850
 2961DOPG   C4B57396  15.210   6.900  20.900
 2962DOPG   GL057397  10.760   5.330  18.790
 2962DOPG   PO457398  11.050   5.600  19.110
 2962DOPG   GL157399  11.270   5.930  19.010
 2962DOPG   GL257400  11.530   5.910  19.070
 2962DOPG   C1A57401  11.160   6.390  19.130
 2962DOPG   D2A57402  10.900   6.640  19.260
 2962DOPG   C3A57403  11.180   6.930  19.420
 2962DOPG   C4A57404  11.430   6.840  19.820
 2962DOPG   C1B57405  12.100   5.790  19.080
 2962DOPG   D2B57406  12.350   5.860  18.810
 2962DOPG   C3B57407  12.120   6.200  18.570
 2962DOPG   C4B57408  12.140   6.260  18.070
 2963DOPG   GL057409  16.230   9.880  10.140
 2963DOPG   PO457410  16.150  10.270  10.040
 2963DOPG   GL157411  16.390  10.600  10.020
 2963DOPG   GL257412  16.700  10.710   9.920
 2963DOPG   C1A57413  16.450  10.970  10.300
 2963DOPG   D2A57414  16.590  10.930  10.800
 2963DOPG   C3A57415  17.110  10.950  10.920
 2963DOPG   C4A57416  17.520  10.840  10.870
 2963DOPG   C1B57417  16.840  10.550  10.230
 2963DOPG   D2B57418  16.670  10.500  10.520
 2963DOPG   C3B57419  16.890  10.520  10.890
 2963DOPG   C4B57420  17.070  10.420  11.230
 2964DOPG   GL057421  15.070   4.870   7.440
 2964DOPG   PO457422  15.280   5.050   7.280
 2964DOPG   GL157423  15.450   5.480   7.480
 2964DOPG   GL257424  15.730   5.390   7.660
 2964DOPG   C1A57425  15.330   5.830   7.800
 2964DOPG   D2A57426  15.410   6.240   8.070
 2964DOPG   C3A57427  15.480   6.260   8.520
 2964DOPG   C4A57428  15.610   6.520   8.900
 2964DOPG   C1B57429  15.660   5.520   8.070
 2964DOPG   D2B57430  15.790   5.950   8.200
 2964DOPG   C3B57431  15.870   6.470   8.240
 2964DOPG   C4B57432  16.120   6.830   8.300
 2965DOPG   GL057433   6.880  10.730  16.210
 2965DOPG   PO457434   6.830  11.200  16.390
 2965DOPG   GL157435   7.140  11.560  16.630
 2965DOPG   GL257436   7.460  11.540  16.760
 2965DOPG   C1A57437   7.270  11.960  16.550
 2965DOPG   D2A57438   7.660  12.250  16.690
 2965DOPG   C3A57439   8.090  12.110  16.680
 2965DOPG   C4A57440   8.460  12.370  16.830
 2965DOPG   C1B57441   7.760  11.850  16.940
 2965DOPG   D2B57442   7.880  12.150  17.220
 2965DOPG   C3B57443   8.140  12.580  17.270
 2965DOPG   C4B57444   8.300  12.860  17.010
 2966DOPG   GL057445  22.660  24.590  20.860
 2966DOPG   PO457446  22.430  24.140  20.630
 2966DOPG   GL157447  22.520  23.670  20.540
 2966DOPG   GL257448  22.730  23.290  20.540
 2966DOPG   C1A57449  22.500  23.510  20.140
 2966DOPG   D2A57450  22.680  23.340  19.930
 2966DOPG   C3A57451  22.920  23.500  19.610
 2966DOPG   C4A57452  23.140  23.240  19.430
 2966DOPG   C1B57453  22.560  22.980  20.260
 2966DOPG   D2B57454  22.420  22.950  19.890
 2966DOPG   C3B57455  22.160  22.910  19.460
 2966DOPG   C4B57456  22.060  23.040  19.070
 2967DOPG   GL057457  20.660  15.220   7.770
 2967DOPG   PO457458  20.660  15.280   8.100
 2967DOPG   GL157459  20.940  15.200   8.440
 2967DOPG   GL257460  21.220  15.110   8.450
 2967DOPG   C1A57461  20.870  15.150   8.920
 2967DOPG   D2A57462  20.680  15.180   9.280
 2967DOPG   C3A57463  21.010  15.370   9.620
 2967DOPG   C4A57464  21.460  15.510   9.880
 2967DOPG   C1B57465  21.350  15.090   8.830
 2967DOPG   D2B57466  21.600  14.680   8.970
 2967DOPG   C3B57467  21.730  14.790   9.350
 2967DOPG   C4B57468  21.770  14.600   9.770
 2968DOPG   GL057469  14.480  14.500   8.810
 2968DOPG   PO457470  14.540  14.160   9.100
 2968DOPG   GL157471  14.710  14.280   9.580
 2968DOPG   GL257472  14.950  14.150   9.420
 2968DOPG   C1A57473  14.600  14.040  10.010
 2968DOPG   D2A57474  14.350  13.690  10.330
 2968DOPG   C3A57475  14.520  13.440  10.590
 2968DOPG   C4A57476  14.770  13.690  10.860
 2968DOPG   C1B57477  15.340  14.180   9.420
 2968DOPG   D2B57478  15.830  14.160   9.390
 2968DOPG   C3B57479  16.060  14.310   9.840
 2968DOPG   C4B57480  15.950  14.320  10.240
 2969DOPG   GL057481  23.690  19.730  18.020
 2969DOPG   PO457482  23.790  19.900  17.610
 2969DOPG   GL157483  24.120  20.050  17.960
 2969DOPG   GL257484  24.180  19.750  18.150
 2969DOPG   C1A57485  24.530  20.190  18.070
 2969DOPG   D2A57486  24.920  20.220  18.030
 2969DOPG   C3A57487  24.940  20.550  18.270
 2969DOPG   C4A57488  25.280  20.760  18.440
 2969DOPG   C1B57489  24.230  19.930  18.560
 2969DOPG   D2B57490  24.390  20.040  18.980
 2969DOPG   C3B57491  24.830  20.160  19.090
 2969DOPG   C4B57492  25.110  20.370  19.500
 2970DOPG   GL057493  24.820  10.720  18.560
 2970DOPG   PO457494  25.050  11.030  18.200
 2970DOPG   GL157495  25.010  11.460  17.960
 2970DOPG   GL257496  24.700  11.720  17.950
 2970DOPG   C1A57497  24.990  11.660  17.530
 2970DOPG   D2A57498  24.490  11.910  17.540
 2970DOPG   C3A57499  24.190  11.670  17.280
 2970DOPG   C4A57500  23.980  11.600  16.900
 2970DOPG   C1B57501  24.310  11.440  17.780
 2970DOPG   D2B57502  24.280  11.090  17.520
 2970DOPG   C3B57503  24.180  11.130  17.070
 2970DOPG   C4B57504  24.100  11.020  16.800
 2971DOPG   GL057505  26.230   9.870  17.110
 2971DOPG   PO457506  26.340  10.120  16.700
 2971DOPG   GL157507  26.030  10.320  16.360
 2971DOPG   GL257508  25.800  10.100  16.290
 2971DOPG   C1A57509  25.920  10.470  15.970
 2971DOPG   D2A57510  25.810  10.530  15.550
 2971DOPG   C3A57511  25.550  10.800  15.460
 2971DOPG   C4A57512  25.200  11.040  15.430
 2971DOPG   C1B57513  25.560  10.520  16.390
 2971DOPG   D2B57514  25.440  10.950  16.530
 2971DOPG   C3B57515  25.270  11.070  16.870
 2971DOPG   C4B57516  25.120  11.340  17.090
 2972DOPG   GL057517  25.270  18.550  16.520
 2972DOPG   PO457518  25.010  18.190  16.370
 2972DOPG   GL157519  24.680  17.830  16.260
 2972DOPG   GL257520  24.840  17.740  15.980
 2972DOPG   C1A57521  24.330  17.670  15.970
 2972DOPG   D2A57522  24.090  17.690  15.570
 2972DOPG   C3A57523  24.000  17.410  15.380
 2972DOPG   C4A57524  24.040  17.020  15.230
 2972DOPG   C1B57525  24.620  17.610  15.530
 2972DOPG   D2B57526  24.500  17.300  15.280
 2972DOPG   C3B57527  24.340  17.420  14.890
 2972DOPG   C4B57528  24.220  17.540  14.580
 2973DOPG   GL057529  25.180  26.140  12.460
 2973DOPG   PO457530  25.020  25.680  12.610
 2973DOPG   GL157531  24.590  25.540  12.560
 2973DOPG   GL257532  24.350  25.670  12.700
 2973DOPG   C1A57533  24.300  25.180  12.500
 2973DOPG   D2A57534  24.070  24.920  12.730
 2973DOPG   C3A57535  24.060  24.530  12.820
 2973DOPG   C4A57536  24.030  24.070  13.020
 2973DOPG   C1B57537  24.350  25.190  12.990
 2973DOPG   D2B57538  24.670  24.960  13.210
 2973DOPG   C3B57539  24.540  24.770  13.650
 2973DOPG   C4B57540  24.140  24.980  13.800
 2974DOPG   GL057541  22.740  15.960  19.030
 2974DOPG   PO457542  22.950  15.560  19.000
 2974DOPG   GL157543  22.940  15.580  18.660
 2974DOPG   GL257544  22.770  15.350  18.530
 2974DOPG   C1A57545  23.250  15.560  18.280
 2974DOPG   D2A57546  23.510  15.560  18.240
 2974DOPG   C3A57547  23.480  15.760  17.850
 2974DOPG   C4A57548  23.270  16.020  17.480
 2974DOPG   C1B57549  22.720  15.560  18.180
 2974DOPG   D2B57550  22.450  15.770  17.870
 2974DOPG   C3B57551  22.230  15.520  17.450
 2974DOPG   C4B57552  22.160  15.070  17.600
 2975DOPG   GL057553  24.300  20.450  14.340
 2975DOPG   PO457554  24.190  20.230  14.690
 2975DOPG   GL157555  24.090  19.840  14.520
 2975DOPG   GL257556  24.050  20.000  14.210
 2975DOPG   C1A57557  23.880  19.410  14.620
 2975DOPG   D2A57558  23.410  19.390  14.600
 2975DOPG   C3A57559  23.260  19.740  14.590
 2975DOPG   C4A57560  23.170  20.140  14.340
 2975DOPG   C1B57561  23.510  19.810  14.170
 2975DOPG   D2B57562  23.260  19.490  14.140
 2975DOPG   C3B57563  23.210  19.130  13.940
 2975DOPG   C4B57564  22.960  18.760  13.770
 2976DOPG   GL057565  21.850  10.570   8.960
 2976DOPG   PO457566  21.470  10.660   8.870
 2976DOPG   GL157567  21.370  10.740   9.290
 2976DOPG   GL257568  21.260  11.030   9.350
 2976DOPG   C1A57569  21.390  10.700   9.760
 2976DOPG   D2A57570  20.990  10.460   9.890
 2976DOPG   C3A57571  21.080  10.280  10.310
 2976DOPG   C4A57572  21.170  10.340  10.790
 2976DOPG   C1B57573  21.220  11.430   9.620
 2976DOPG   D2B57574  20.960  11.640   9.850
 2976DOPG   C3B57575  20.710  11.330  10.060
 2976DOPG   C4B57576  20.710  11.250  10.560
 2977DOPG   GL057577  23.900   9.680  17.450
 2977DOPG   PO457578  23.930  10.110  17.690
 2977DOPG   GL157579  23.820  10.420  17.490
 2977DOPG   GL257580  23.500  10.510  17.480
 2977DOPG   C1A57581  23.850  10.520  17.060
 2977DOPG   D2A57582  23.700  10.760  16.700
 2977DOPG   C3A57583  23.450  10.680  16.360
 2977DOPG   C4A57584  23.020  10.580  16.210
 2977DOPG   C1B57585  23.090  10.590  17.490
 2977DOPG   D2B57586  22.830  10.880  17.210
 2977DOPG   C3B57587  22.660  10.840  16.820
 2977DOPG   C4B57588  22.650  10.930  16.390
 2978DOPG   GL057589  18.450  23.710  11.910
 2978DOPG   PO457590  18.490  24.080  12.020
 2978DOPG   GL157591  18.420  24.360  11.880
 2978DOPG   GL257592  18.080  24.540  12.000
 2978DOPG   C1A57593  18.810  24.570  11.740
 2978DOPG   D2A57594  18.750  24.700  11.350
 2978DOPG   C3A57595  18.900  25.110  11.150
 2978DOPG   C4A57596  18.830  25.500  10.890
 2978DOPG   C1B57597  18.540  24.750  12.170
 2978DOPG   D2B57598  18.740  25.000  12.370
 2978DOPG   C3B57599  18.590  25.320  12.090
 2978DOPG   C4B57600  18.680  25.630  11.900
 2979DOPG   GL057601  27.750  23.650  16.330
 2979DOPG   PO457602  27.560  23.900  16.020
 2979DOPG   GL157603  27.260  23.670  16.020
 2979DOPG   GL257604  27.340  23.360  16.140
 2979DOPG   C1A57605  26.860  23.450  15.960
 2979DOPG   D2A57606  26.350  23.590  15.860
 2979DOPG   C3A57607  26.130  23.260  15.640
 2979DOPG   C4A57608  26.030  22.880  15.490
 2979DOPG   C1B57609  27.090  23.020  15.870
 2979DOPG   D2B57610  26.740  22.670  15.990
 2979DOPG   C3B57611  26.530  22.340  16.110
 2979DOPG   C4B57612  26.390  21.940  15.970
 2980DOPG   GL057613  24.560   1.880  17.920
 2980DOPG   PO457614  24.470   2.230  17.790
 2980DOPG   GL157615  24.050   2.380  17.720
 2980DOPG   GL257616  24.030   2.620  17.540
 2980DOPG   C1A57617  23.660   2.290  17.610
 2980DOPG   D2A57618  23.260   2.340  17.650
 2980DOPG   C3A57619  22.990   2.720  17.550
 2980DOPG   C4A57620  22.760   3.010  17.440
 2980DOPG   C1B57621  23.950   2.470  17.130
 2980DOPG   D2B57622  23.630   2.500  16.690
 2980DOPG   C3B57623  23.290   2.800  16.600
 2980DOPG   C4B57624  23.000   3.100  16.380
 2981DOPG   GL057625  11.580  16.300   4.800
 2981DOPG   PO457626  11.880  16.060   4.820
 2981DOPG   GL157627  11.940  15.990   5.180
 2981DOPG   GL257628  12.220  15.820   5.150
 2981DOPG   C1A57629  11.960  15.850   5.560
 2981DOPG   D2A57630  12.240  16.040   5.940
 2981DOPG   C3A57631  12.320  15.700   6.110
 2981DOPG   C4A57632  12.600  15.400   6.050
 2981DOPG   C1B57633  12.290  15.470   5.500
 2981DOPG   D2B57634  12.320  15.170   5.680
 2981DOPG   C3B57635  12.550  14.910   6.000
 2981DOPG   C4B57636  12.780  14.850   6.290
 2982DOPG   GL057637  17.510  11.960  19.950
 2982DOPG   PO457638  17.440  12.090  20.260
 2982DOPG   GL157639  17.200  11.880  20.650
 2982DOPG   GL257640  17.380  11.740  20.860
 2982DOPG   C1A57641  16.890  11.990  20.970
 2982DOPG   D2A57642  16.510  12.160  20.860
 2982DOPG   C3A57643  16.270  12.300  21.260
 2982DOPG   C4A57644  15.990  12.220  21.640
 2982DOPG   C1B57645  17.300  11.540  21.260
 2982DOPG   D2B57646  17.160  11.370  21.630
 2982DOPG   C3B57647  17.140  11.510  22.030
 2982DOPG   C4B57648  17.030  11.820  22.330
 2983DOPG   GL057649  17.880  22.360  13.500
 2983DOPG   PO457650  18.240  22.760  13.780
 2983DOPG   GL157651  18.340  22.340  13.800
 2983DOPG   GL257652  18.520  22.320  13.520
 2983DOPG   C1A57653  18.350  21.860  13.740
 2983DOPG   D2A57654  18.290  21.450  13.500
 2983DOPG   C3A57655  18.550  21.190  13.250
 2983DOPG   C4A57656  18.720  20.750  13.340
 2983DOPG   C1B57657  18.770  21.930  13.520
 2983DOPG   D2B57658  19.000  21.510  13.380
 2983DOPG   C3B57659  19.280  21.540  13.190
 2983DOPG   C4B57660  19.220  21.660  12.770
 2984DOPG   GL057661  13.100  13.010  15.070
 2984DOPG   PO457662  12.820  13.200  14.660
 2984DOPG   GL157663  13.230  13.070  14.600
 2984DOPG   GL257664  13.360  12.730  14.530
 2984DOPG   C1A57665  13.740  13.290  14.360
 2984DOPG   D2A57666  13.990  13.560  13.990
 2984DOPG   C3A57667  14.300  13.760  13.950
 2984DOPG   C4A57668  14.530  14.000  13.660
 2984DOPG   C1B57669  13.820  12.790  14.330
 2984DOPG   D2B57670  14.220  12.920  14.190
 2984DOPG   C3B57671  14.250  13.160  13.870
 2984DOPG   C4B57672  14.600  13.400  13.670
 2985DOPG   GL057673  28.640   3.730  15.390
 2985DOPG   PO457674  28.230   3.730  15.620
 2985DOPG   GL157675  27.890   3.990  15.600
 2985DOPG   GL257676  27.820   4.150  15.890
 2985DOPG   C1A57677  27.470   3.970  15.470
 2985DOPG   D2A57678  27.130   4.230  15.320
 2985DOPG   C3A57679  26.850   3.940  15.040
 2985DOPG   C4A57680  26.550   3.620  15.060
 2985DOPG   C1B57681  27.890   4.620  15.790
 2985DOPG   D2B57682  27.690   4.920  15.530
 2985DOPG   C3B57683  27.450   5.260  15.830
 2985DOPG   C4B57684  27.500   5.660  16.060
 2986DOPG   GL057685  15.250  11.890  17.290
 2986DOPG   PO457686  15.530  12.120  17.050
 2986DOPG   GL157687  15.770  12.240  16.590
 2986DOPG   GL257688  15.620  12.310  16.380
 2986DOPG   C1A57689  16.060  12.530  16.400
 2986DOPG   D2A57690  16.380  12.350  16.170
 2986DOPG   C3A57691  16.800  12.420  15.960
 2986DOPG   C4A57692  17.160  12.270  15.610
 2986DOPG   C1B57693  15.680  12.790  16.480
 2986DOPG   D2B57694  15.870  13.130  16.370
 2986DOPG   C3B57695  16.320  13.010  16.420
 2986DOPG   C4B57696  16.630  13.240  16.320
 2987DOPG   GL057697  31.100  20.890  12.920
 2987DOPG   PO457698  30.670  20.880  13.020
 2987DOPG   GL157699  30.530  20.530  12.940
 2987DOPG   GL257700  30.500  20.160  13.130
 2987DOPG   C1A57701  30.150  20.540  13.100
 2987DOPG   D2A57702  29.790  20.300  13.220
 2987DOPG   C3A57703  29.400  20.450  13.300
 2987DOPG   C4A57704  29.160  20.690  13.220
 2987DOPG   C1B57705  30.170  19.900  13.120
 2987DOPG   D2B57706  29.780  19.650  13.120
 2987DOPG   C3B57707  29.620  19.210  13.100
 2987DOPG   C4B57708  29.560  18.780  13.070
 2988DOPG   GL057709  24.490   8.400  18.350
 2988DOPG   PO457710  24.790   8.080  18.290
 2988DOPG   GL157711  24.790   7.870  18.720
 2988DOPG   GL257712  24.860   7.990  19.060
 2988DOPG   C1A57713  24.740   7.410  18.800
 2988DOPG   D2A57714  24.770   7.050  19.080
 2988DOPG   C3A57715  25.080   6.630  19.260
 2988DOPG   C4A57716  25.520   6.550  19.410
 2988DOPG   C1B57717  24.780   7.600  19.320
 2988DOPG   D2B57718  24.360   7.330  19.400
 2988DOPG   C3B57719  24.440   6.950  19.560
 2988DOPG   C4B57720  24.270   6.590  19.730
 2989DOPG   GL057721  25.260   8.670  11.030
 2989DOPG   PO457722  25.540   8.280  10.970
 2989DOPG   GL157723  25.550   7.870  10.760
 2989DOPG   GL257724  25.850   7.880  10.550
 2989DOPG   C1A57725  25.670   7.450  10.590
 2989DOPG   D2A57726  25.830   7.260  10.350
 2989DOPG   C3A57727  25.930   6.690  10.220
 2989DOPG   C4A57728  25.860   6.230  10.130
 2989DOPG   C1B57729  26.220   7.650  10.450
 2989DOPG   D2B57730  26.650   7.620  10.330
 2989DOPG   C3B57731  26.780   7.270   9.990
 2989DOPG   C4B57732  26.700   6.980   9.760
 2990DOPG   GL057733  28.300  17.990  20.910
 2990DOPG   PO457734  28.750  18.230  20.920
 2990DOPG   GL157735  28.720  17.920  20.630
 2990DOPG   GL257736  28.930  17.750  20.480
 2990DOPG   C1A57737  28.380  17.780  20.400
 2990DOPG   D2A57738  28.060  17.540  20.680
 2990DOPG   C3A57739  28.010  17.080  20.690
 2990DOPG   C4A57740  27.930  16.900  21.060
 2990DOPG   C1B57741  28.710  17.460  20.080
 2990DOPG   D2B57742  28.540  17.260  19.750
 2990DOPG   C3B57743  28.430  17.500  19.430
 2990DOPG   C4B57744  28.300  17.930  19.400
 2991DOPG   GL057745   8.340   9.870  10.530
 2991DOPG   PO457746   8.230   9.430  10.460
 2991DOPG   GL157747   8.610   9.380  10.660
 2991DOPG   GL257748   8.800   9.200  10.560
 2991DOPG   C1A57749   8.830   9.700  11.050
 2991DOPG   D2A57750   9.150   9.670  11.290
 2991DOPG   C3A57751   9.580   9.860  11.200
 2991DOPG   C4A57752   9.920  10.160  11.230
 2991DOPG   C1B57753   9.190   9.340  10.760
 2991DOPG   D2B57754   9.310   9.130  11.130
 2991DOPG   C3B57755   9.160   9.250  11.500
 2991DOPG   C4B57756   8.950   9.220  11.840
 2992DOPG   GL057757   7.630  17.960   8.590
 2992DOPG   PO457758   7.950  18.050   8.660
 2992DOPG   GL157759   8.490  17.870   8.660
 2992DOPG   GL257760   8.630  18.100   8.740
 2992DOPG   C1A57761   8.920  17.670   8.860
 2992DOPG   D2A57762   8.740  17.320   9.010
 2992DOPG   C3A57763   8.610  17.160   9.390
 2992DOPG   C4A57764   8.410  16.770   9.480
 2992DOPG   C1B57765   8.640  17.970   9.130
 2992DOPG   D2B57766   8.940  17.700   9.340
 2992DOPG   C3B57767   9.070  17.260   9.380
 2992DOPG   C4B57768   9.270  17.000   9.270
 2993DOPG   GL057769  23.600  10.670   4.020
 2993DOPG   PO457770  23.920  10.460   4.210
 2993DOPG   GL157771  23.640  10.460   4.560
 2993DOPG   GL257772  23.420  10.240   4.640
 2993DOPG   C1A57773  23.730  10.650   4.980
 2993DOPG   D2A57774  24.170  10.770   5.130
 2993DOPG   C3A57775  24.100  10.930   5.460
 2993DOPG   C4A57776  24.140  11.120   5.760
 2993DOPG   C1B57777  23.580  10.170   4.960
 2993DOPG   D2B57778  23.830  10.410   5.380
 2993DOPG   C3B57779  23.850  10.150   5.760
 2993DOPG   C4B57780  23.850   9.850   6.180
 2994DOPG   GL057781  22.890   9.730   9.040
 2994DOPG   PO457782  22.450   9.780   9.230
 2994DOPG   GL157783  22.460   9.850   9.640
 2994DOPG   GL257784  22.500   9.460   9.660
 2994DOPG   C1A57785  22.320   9.720  10.020
 2994DOPG   D2A57786  22.240   9.390  10.320
 2994DOPG   C3A57787  22.400   9.260  10.690
 2994DOPG   C4A57788  22.430   9.330  11.090
 2994DOPG   C1B57789  22.070   9.340   9.820
 2994DOPG   D2B57790  21.760   9.250  10.210
 2994DOPG   C3B57791  21.710   9.640  10.590
 2994DOPG   C4B57792  21.440   9.560  10.920
 2995DOPG   GL057793  13.450  16.730   4.380
 2995DOPG   PO457794  13.050  16.710   4.560
 2995DOPG   GL157795  13.310  16.810   4.880
 2995DOPG   GL257796  13.590  17.080   4.720
 2995DOPG   C1A57797  13.350  16.680   5.240
 2995DOPG   D2A57798  13.500  16.440   5.570
 2995DOPG   C3A57799  13.890  16.310   5.600
 2995DOPG   C4A57800  14.090  16.030   5.210
 2995DOPG   C1B57801  13.770  16.970   5.100
 2995DOPG   D2B57802  13.920  17.120   5.530
 2995DOPG   C3B57803  13.760  17.460   5.810
 2995DOPG   C4B57804  13.780  17.700   6.040
 2996DOPG   GL057805  16.440  19.940  16.840
 2996DOPG   PO457806  16.090  20.150  16.880
 2996DOPG   GL157807  15.920  19.870  16.590
 2996DOPG   GL257808  16.140  19.860  16.410
 2996DOPG   C1A57809  15.800  19.990  16.120
 2996DOPG   D2A57810  15.970  19.970  15.830
 2996DOPG   C3A57811  15.840  19.720  15.460
 2996DOPG   C4A57812  15.550  19.430  15.420
 2996DOPG   C1B57813  16.180  19.650  16.090
 2996DOPG   D2B57814  16.430  19.500  15.810
 2996DOPG   C3B57815  16.890  19.660  15.690
 2996DOPG   C4B57816  17.090  19.550  15.350
 2997DOPG   GL057817  16.900   9.530  16.390
 2997DOPG   PO457818  16.730   9.490  15.940
 2997DOPG   GL157819  16.880   9.810  15.620
 2997DOPG   GL257820  16.750   9.720  15.350
 2997DOPG   C1A57821  17.050  10.140  15.510
 2997DOPG   D2A57822  16.740  10.430  15.230
 2997DOPG   C3A57823  16.890  10.680  14.830
 2997DOPG   C4A57824  17.100  10.750  14.620
 2997DOPG   C1B57825  16.810   9.940  15.000
 2997DOPG   D2B57826  16.840  10.200  14.750
 2997DOPG   C3B57827  17.200  10.260  14.590
 2997DOPG   C4B57828  17.450  10.260  14.920
 2998DOPG   GL057829  16.290  12.530   8.320
 2998DOPG   PO457830  16.430  12.350   8.790
 2998DOPG   GL157831  16.620  12.550   9.070
 2998DOPG   GL257832  16.880  12.890   9.070
 2998DOPG   C1A57833  16.510  12.680   9.530
 2998DOPG   D2A57834  16.810  12.860   9.920
 2998DOPG   C3A57835  17.240  12.800   9.890
 2998DOPG   C4A57836  17.460  13.000   9.510
 2998DOPG   C1B57837  16.980  13.010   9.420
 2998DOPG   D2B57838  17.070  13.270   9.830
 2998DOPG   C3B57839  17.390  13.590   9.920
 2998DOPG   C4B57840  17.570  13.830  10.150
 2999DOPG   GL057841  22.750   6.360  22.970
 2999DOPG   PO457842  22.960   6.080  22.620
 2999DOPG   GL157843  23.060   5.890  22.290
 2999DOPG   GL257844  23.030   5.560  22.240
 2999DOPG   C1A57845  22.670   5.790  21.980
 2999DOPG   D2A57846  22.460   5.990  21.800
 2999DOPG   C3A57847  22.380   5.990  21.350
 2999DOPG   C4A57848  22.130   6.110  20.960
 2999DOPG   C1B57849  23.040   5.480  21.790
 2999DOPG   D2B57850  22.930   5.550  21.330
 2999DOPG   C3B57851  22.840   5.890  21.030
 2999DOPG   C4B57852  22.860   6.170  20.690
 3000DOPG   GL057853   9.090   6.060  14.400
 3000DOPG   PO457854   8.950   6.260  14.740
 3000DOPG   GL157855   9.090   6.600  15.030
 3000DOPG   GL257856   9.280   6.350  15.160
 3000DOPG   C1A57857   9.440   6.820  14.800
 3000DOPG   D2A57858   9.860   6.790  14.720
 3000DOPG   C3A57859  10.230   7.040  14.980
 3000DOPG   C4A57860  10.400   7.520  14.960
 3000DOPG   C1B57861   9.650   6.430  14.990
 3000DOPG   D2B57862  10.020   6.250  14.670
 3000DOPG   C3B57863  10.380   6.560  14.580
 3000DOPG   C4B57864  10.670   6.870  14.240
 3001DOPG   GL057865  16.730  11.440   8.550
 3001DOPG   PO457866  16.730  11.460   9.010
 3001DOPG   GL157867  16.870  11.780   9.180
 3001DOPG   GL257868  17.210  11.750   9.150
 3001DOPG   C1A57869  17.010  11.840   9.610
 3001DOPG   D2A57870  17.100  11.560   9.900
 3001DOPG   C3A57871  16.870  11.450  10.160
 3001DOPG   C4A57872  16.560  11.630  10.450
 3001DOPG   C1B57873  17.540  11.630   9.470
 3001DOPG   D2B57874  17.930  11.270   9.580
 3001DOPG   C3B57875  17.880  11.110  10.060
 3001DOPG   C4B57876  17.940  11.080  10.480
 3002DOPG   GL057877  29.310   5.020  14.450
 3002DOPG   PO457878  29.430   5.130  14.900
 3002DOPG   GL157879  29.260   5.590  14.710
 3002DOPG   GL257880  29.210   5.540  14.390
 3002DOPG   C1A57881  29.110   6.020  14.580
 3002DOPG   D2A57882  28.980   6.320  14.520
 3002DOPG   C3A57883  29.130   6.620  14.280
 3002DOPG   C4A57884  29.060   7.070  14.210
 3002DOPG   C1B57885  28.810   5.610  14.500
 3002DOPG   D2B57886  28.390   5.710  14.680
 3002DOPG   C3B57887  28.160   6.060  14.940
 3002DOPG   C4B57888  27.860   6.410  15.060
 3003DOPG   GL057889  21.600  22.100  22.740
 3003DOPG   PO457890  21.560  22.290  22.430
 3003DOPG   GL157891  21.820  21.900  22.180
 3003DOPG   GL257892  21.710  21.660  22.440
 3003DOPG   C1A57893  21.940  21.720  21.710
 3003DOPG   D2A57894  21.780  21.720  21.210
 3003DOPG   C3A57895  22.140  21.940  21.010
 3003DOPG   C4A57896  22.480  22.130  21.100
 3003DOPG   C1B57897  21.530  21.520  22.140
 3003DOPG   D2B57898  21.410  21.220  21.700
 3003DOPG   C3B57899  21.380  21.430  21.330
 3003DOPG   C4B57900  21.620  21.370  20.940
 3004DOPG   GL057901  12.310   9.790  22.750
 3004DOPG   PO457902  12.360  10.180  22.430
 3004DOPG   GL157903  12.640  10.110  22.160
 3004DOPG   GL257904  12.530   9.820  21.970
 3004DOPG   C1A57905  12.860  10.310  21.810
 3004DOPG   D2A57906  12.900  10.750  21.660
 3004DOPG   C3A57907  13.170  10.720  21.350
 3004DOPG   C4A57908  13.040  10.810  20.930
 3004DOPG   C1B57909  12.680   9.910  21.620
 3004DOPG   D2B57910  13.130  10.110  21.430
 3004DOPG   C3B57911  13.480   9.980  21.160
 3004DOPG   C4B57912  13.620   9.900  20.710
 3005DOPG   GL057913  27.380  16.080  13.050
 3005DOPG   PO457914  27.240  15.630  13.110
 3005DOPG   GL157915  27.020  15.290  13.340
 3005DOPG   GL257916  26.700  15.130  13.160
 3005DOPG   C1A57917  26.750  15.340  13.630
 3005DOPG   D2A57918  26.440  15.110  13.790
 3005DOPG   C3A57919  26.020  15.290  13.710
 3005DOPG   C4A57920  25.710  15.210  13.460
 3005DOPG   C1B57921  26.210  15.050  13.270
 3005DOPG   D2B57922  25.910  14.760  13.320
 3005DOPG   C3B57923  25.520  14.710  13.530
 3005DOPG   C4B57924  25.530  15.070  13.890
 3006DOPG   GL057925  26.970  18.410  22.530
 3006DOPG   PO457926  27.310  18.220  22.240
 3006DOPG   GL157927  27.220  18.020  21.830
 3006DOPG   GL257928  27.500  18.090  21.510
 3006DOPG   C1A57929  26.740  18.020  21.580
 3006DOPG   D2A57930  26.430  18.250  21.840
 3006DOPG   C3A57931  26.060  18.190  21.860
 3006DOPG   C4A57932  25.780  17.810  22.020
 3006DOPG   C1B57933  27.180  18.240  21.390
 3006DOPG   D2B57934  26.800  18.180  21.140
 3006DOPG   C3B57935  26.610  17.710  21.210
 3006DOPG   C4B57936  26.280  17.530  21.040
 3007DOPG   GL057937  24.700  12.350  18.310
 3007DOPG   PO457938  24.440  12.180  18.100
 3007DOPG   GL157939  24.610  12.420  17.760
 3007DOPG   GL257940  24.440  12.770  17.590
 3007DOPG   C1A57941  24.330  12.360  17.340
 3007DOPG   D2A57942  23.980  12.100  17.140
 3007DOPG   C3A57943  24.060  12.330  16.760
 3007DOPG   C4A57944  24.160  12.340  16.310
 3007DOPG   C1B57945  24.170  12.950  17.370
 3007DOPG   D2B57946  24.220  12.770  17.010
 3007DOPG   C3B57947  23.850  12.890  16.860
 3007DOPG   C4B57948  23.430  12.900  17.000
 3008DOPG   GL057949  10.790   6.080  20.510
 3008DOPG   PO457950  11.070   6.520  20.420
 3008DOPG   GL157951  11.510   6.580  20.460
 3008DOPG   GL257952  11.740   6.870  20.660
 3008DOPG   C1A57953  11.980   6.440  20.290
 3008DOPG   D2A57954  12.140   5.960  20.250
 3008DOPG   C3A57955  12.490   5.870  19.900
 3008DOPG   C4A57956  12.890   6.020  19.670
 3008DOPG   C1B57957  11.890   6.920  20.260
 3008DOPG   D2B57958  12.230   6.830  20.050
 3008DOPG   C3B57959  12.320   7.000  19.670
 3008DOPG   C4B57960  12.120   6.750  19.360
 3009DOPG   GL057961  24.360  19.030  17.010
 3009DOPG   PO457962  24.530  19.470  17.230
 3009DOPG   GL157963  24.730  19.630  17.580
 3009DOPG   GL257964  24.590  19.750  17.850
 3009DOPG   C1A57965  25.150  19.840  17.690
 3009DOPG   D2A57966  25.400  19.930  17.970
 3009DOPG   C3A57967  25.380  20.250  18.260
 3009DOPG   C4A57968  25.680  20.440  18.540
 3009DOPG   C1B57969  24.890  19.740  18.240
 3009DOPG   D2B57970  24.810  20.110  18.530
 3009DOPG   C3B57971  25.210  20.280  18.760
 3009DOPG   C4B57972  25.580  20.070  18.900
 3010DOPG   GL057973  17.810  21.020   9.430
 3010DOPG   PO457974  18.040  21.110   9.800
 3010DOPG   GL157975  18.020  20.980  10.140
 3010DOPG   GL257976  18.140  21.260  10.420
 3010DOPG   C1A57977  18.320  20.740  10.330
 3010DOPG   D2A57978  18.530  20.340  10.610
 3010DOPG   C3A57979  18.980  20.350  10.870
 3010DOPG   C4A57980  18.980  20.120  11.300
 3010DOPG   C1B57981  18.490  21.060  10.660
 3010DOPG   D2B57982  18.720  20.820  10.900
 3010DOPG   C3B57983  18.570  20.500  11.160
 3010DOPG   C4B57984  18.540  20.380  11.530
 3011DOPG   GL057985  24.220   6.330   5.580
 3011DOPG   PO457986  24.400   6.370   5.980
 3011DOPG   GL157987  24.170   6.540   6.330
 3011DOPG   GL257988  24.360   6.330   6.530
 3011DOPG   C1A57989  23.960   6.520   6.800
 3011DOPG   D2A57990  24.030   6.500   7.210
 3011DOPG   C3A57991  23.700   6.750   7.330
 3011DOPG   C4A57992  23.500   6.900   7.620
 3011DOPG   C1B57993  24.230   6.120   6.950
 3011DOPG   D2B57994  24.110   5.970   7.350
 3011DOPG   C3B57995  23.930   6.280   7.640
 3011DOPG   C4B57996  24.030   6.670   7.800
 3012DOPG   GL057997   6.670  19.350  13.710
 3012DOPG   PO457998   7.090  19.300  13.830
 3012DOPG   GL157999   7.400  18.860  13.900
 3012DOPG   GL258000   7.230  18.530  13.760
 3012DOPG   C1A58001   7.720  18.790  13.590
 3012DOPG   D2A58002   8.210  18.880  13.680
 3012DOPG   C3A58003   8.420  18.920  14.020
 3012DOPG   C4A58004   8.700  19.170  14.190
 3012DOPG   C1B58005   7.510  18.460  14.140
 3012DOPG   D2B58006   7.820  18.340  14.440
 3012DOPG   C3B58007   8.130  17.980  14.500
 3012DOPG   C4B58008   8.140  17.490  14.810
 3013DOPG   GL058009  24.930  24.810   8.640
 3013DOPG   PO458010  25.340  24.930   8.850
 3013DOPG   GL158011  25.050  24.790   9.110
 3013DOPG   GL258012  24.700  24.760   9.130
 3013DOPG   C1A58013  24.880  24.950   9.530
 3013DOPG   D2A58014  24.820  24.880  10.040
 3013DOPG   C3A58015  24.390  24.890  10.020
 3013DOPG   C4A58016  24.050  24.750  10.190
 3013DOPG   C1B58017  24.680  24.470   9.460
 3013DOPG   D2B58018  24.640  24.110   9.680
 3013DOPG   C3B58019  24.560  23.760   9.410
 3013DOPG   C4B58020  24.200  23.640   9.160
 3014DOPG   GL058021  22.530  15.310   8.190
 3014DOPG   PO458022  22.110  15.510   8.350
 3014DOPG   GL158023  21.910  15.260   8.700
 3014DOPG   GL258024  22.150  14.910   8.830
 3014DOPG   C1A58025  21.780  15.200   9.070
 3014DOPG   D2A58026  21.630  15.390   9.450
 3014DOPG   C3A58027  21.810  15.230   9.800
 3014DOPG   C4A58028  21.720  15.080  10.160
 3014DOPG   C1B58029  22.330  14.860   9.300
 3014DOPG   D2B58030  22.230  14.940   9.820
 3014DOPG   C3B58031  22.500  14.570   9.970
 3014DOPG   C4B58032  22.580  14.470  10.330
 3015DOPG   GL058033  13.840  11.850  10.160
 3015DOPG   PO458034  14.130  12.060  10.410
 3015DOPG   GL158035  14.330  12.490  10.480
 3015DOPG   GL258036  14.620  12.630  10.290
 3015DOPG   C1A58037  14.370  12.880  10.780
 3015DOPG   D2A58038  14.120  13.090  11.050
 3015DOPG   C3A58039  13.660  13.120  10.800
 3015DOPG   C4A58040  13.320  13.480  10.540
 3015DOPG   C1B58041  14.920  12.690  10.660
 3015DOPG   D2B58042  14.920  12.720  11.120
 3015DOPG   C3B58043  15.430  12.910  11.120
 3015DOPG   C4B58044  15.750  12.740  10.980
 3016DOPG   GL058045  10.770  22.740  18.740
 3016DOPG   PO458046  11.120  22.690  18.930
 3016DOPG   GL158047  11.350  22.450  18.700
 3016DOPG   GL258048  11.600  22.500  18.540
 3016DOPG   C1A58049  11.360  22.000  18.500
 3016DOPG   D2A58050  11.670  21.700  18.530
 3016DOPG   C3A58051  11.990  21.550  18.270
 3016DOPG   C4A58052  12.220  21.410  17.950
 3016DOPG   C1B58053  11.610  22.400  17.960
 3016DOPG   D2B58054  11.920  22.230  17.640
 3016DOPG   C3B58055  12.420  22.270  17.560
 3016DOPG   C4B58056  12.790  22.380  17.720
 3017DOPG   GL058057  17.420  11.540  17.660
 3017DOPG   PO458058  17.590  11.640  18.120
 3017DOPG   GL158059  17.850  11.620  17.810
 3017DOPG   GL258060  17.890  11.930  17.820
 3017DOPG   C1A58061  18.280  11.740  17.520
 3017DOPG   D2A58062  18.510  11.680  17.130
 3017DOPG   C3A58063  18.700  11.310  17.000
 3017DOPG   C4A58064  18.850  11.210  16.620
 3017DOPG   C1B58065  17.990  12.150  17.410
 3017DOPG   D2B58066  17.930  12.060  16.950
 3017DOPG   C3B58067  18.230  12.120  16.790
 3017DOPG   C4B58068  18.760  12.250  16.850
 3018DOPG   GL058069  24.870  11.440   9.510
 3018DOPG   PO458070  24.880  11.660   9.890
 3018DOPG   GL158071  24.710  11.260  10.070
 3018DOPG   GL258072  24.940  11.390  10.330
 3018DOPG   C1A58073  24.390  11.060  10.150
 3018DOPG   D2A58074  24.040  11.090  10.300
 3018DOPG   C3A58075  23.900  11.400  10.370
 3018DOPG   C4A58076  23.470  11.480  10.490
 3018DOPG   C1B58077  24.700  11.030  10.500
 3018DOPG   D2B58078  24.360  11.000  10.640
 3018DOPG   C3B58079  24.150  11.270  10.910
 3018DOPG   C4B58080  23.990  11.700  10.820
 3019DOPG   GL058081  19.980   6.070  17.680
 3019DOPG   PO458082  19.900   5.760  17.980
 3019DOPG   GL158083  20.250   5.420  18.050
 3019DOPG   GL258084  20.570   5.470  18.160
 3019DOPG   C1A58085  20.280   5.020  18.270
 3019DOPG   D2A58086  20.350   4.610  18.460
 3019DOPG   C3A58087  20.040   4.310  18.300
 3019DOPG   C4A58088  19.700   4.060  18.350
 3019DOPG   C1B58089  20.760   5.190  18.580
 3019DOPG   D2B58090  20.970   4.940  18.920
 3019DOPG   C3B58091  20.730   4.940  19.240
 3019DOPG   C4B58092  20.700   4.590  19.490
 3020DOPG   GL058093  16.270  11.410   8.740
 3020DOPG   PO458094  16.210  11.800   8.910
 3020DOPG   GL158095  16.460  12.070   9.200
 3020DOPG   GL258096  16.460  11.910   9.520
 3020DOPG   C1A58097  16.850  12.210   9.370
 3020DOPG   D2A58098  16.970  12.490   9.520
 3020DOPG   C3A58099  17.020  12.340   9.960
 3020DOPG   C4A58100  17.150  12.360  10.270
 3020DOPG   C1B58101  16.560  12.240   9.750
 3020DOPG   D2B58102  16.530  12.460  10.140
 3020DOPG   C3B58103  16.760  12.530  10.550
 3020DOPG   C4B58104  17.140  12.400  10.870
 3021DOPG   GL058105  20.270  20.720  16.770
 3021DOPG   PO458106  19.870  20.970  16.650
 3021DOPG   GL158107  19.950  20.640  16.400
 3021DOPG   GL258108  19.710  20.520  16.420
 3021DOPG   C1A58109  19.990  20.130  16.140
 3021DOPG   D2A58110  19.890  19.860  15.840
 3021DOPG   C3A58111  20.150  19.850  15.470
 3021DOPG   C4A58112  20.630  19.890  15.320
 3021DOPG   C1B58113  19.530  20.310  16.060
 3021DOPG   D2B58114  19.340  20.140  15.820
 3021DOPG   C3B58115  19.160  20.210  15.540
 3021DOPG   C4B58116  19.120  20.280  15.160
 3022DOPG   GL058117  13.080   9.340  23.390
 3022DOPG   PO458118  13.170   8.970  23.110
 3022DOPG   GL158119  13.450   9.040  22.680
 3022DOPG   GL258120  13.240   8.830  22.540
 3022DOPG   C1A58121  13.680   9.290  22.550
 3022DOPG   D2A58122  13.830   9.760  22.580
 3022DOPG   C3A58123  14.300   9.630  22.810
 3022DOPG   C4A58124  14.750   9.480  22.910
 3022DOPG   C1B58125  13.260   8.980  22.190
 3022DOPG   D2B58126  13.260   9.360  21.780
 3022DOPG   C3B58127  13.640   9.210  21.620
 3022DOPG   C4B58128  13.750   9.130  21.200
 3023DOPG   GL058129  20.410  25.110  20.280
 3023DOPG   PO458130  20.270  24.800  20.080
 3023DOPG   GL158131  20.400  24.520  19.980
 3023DOPG   GL258132  20.220  24.490  19.690
 3023DOPG   C1A58133  20.670  24.260  19.910
 3023DOPG   D2A58134  20.730  23.880  19.650
 3023DOPG   C3A58135  20.850  23.480  19.490
 3023DOPG   C4A58136  21.240  23.210  19.450
 3023DOPG   C1B58137  19.990  24.220  19.410
 3023DOPG   D2B58138  19.590  23.920  19.370
 3023DOPG   C3B58139  19.650  23.520  19.250
 3023DOPG   C4B58140  19.610  23.140  18.980
 3024DOPG   GL058141  12.030  25.860  12.110
 3024DOPG   PO458142  12.140  25.520  11.790
 3024DOPG   GL158143  12.420  25.250  12.110
 3024DOPG   GL258144  12.550  25.050  11.890
 3024DOPG   C1A58145  12.610  24.920  12.360
 3024DOPG   D2A58146  12.470  24.550  12.600
 3024DOPG   C3A58147  12.040  24.440  12.490
 3024DOPG   C4A58148  11.620  24.310  12.450
 3024DOPG   C1B58149  12.900  24.770  11.900
 3024DOPG   D2B58150  13.110  24.540  11.510
 3024DOPG   C3B58151  13.530  24.390  11.430
 3024DOPG   C4B58152  13.730  24.090  11.790
 3025DOPG   GL058153  13.750  17.160  17.710
 3025DOPG   PO458154  13.680  16.900  18.130
 3025DOPG   GL158155  13.360  17.120  18.430
 3025DOPG   GL258156  13.500  17.290  18.850
 3025DOPG   C1A58157  12.920  17.110  18.580
 3025DOPG   D2A58158  12.500  17.130  18.710
 3025DOPG   C3A58159  12.130  17.140  19.030
 3025DOPG   C4A58160  11.810  17.180  19.230
 3025DOPG   C1B58161  13.350  17.420  19.190
 3025DOPG   D2B58162  12.970  17.750  19.260
 3025DOPG   C3B58163  13.030  18.000  19.560
 3025DOPG   C4B58164  13.050  17.850  19.990
 3026DOPG   GL058165   8.000   7.500  12.070
 3026DOPG   PO458166   8.420   7.650  12.060
 3026DOPG   GL158167   8.920   7.800  12.160
 3026DOPG   GL258168   9.040   8.090  12.070
 3026DOPG   C1A58169   9.310   7.830  12.440
 3026DOPG   D2A58170   9.590   7.570  12.760
 3026DOPG   C3A58171   9.720   7.910  13.060
 3026DOPG   C4A58172  10.040   8.100  13.330
 3026DOPG   C1B58173   9.400   8.310  12.240
 3026DOPG   D2B58174   9.770   8.510  12.380
 3026DOPG   C3B58175   9.900   9.060  12.180
 3026DOPG   C4B58176   9.840   9.350  11.890
 3027DOPG   GL058177  17.530  18.790   8.010
 3027DOPG   PO458178  17.650  18.870   8.400
 3027DOPG   GL158179  17.890  18.530   8.710
 3027DOPG   GL258180  18.140  18.350   8.900
 3027DOPG   C1A58181  18.000  18.750   9.180
 3027DOPG   D2A58182  18.060  18.460   9.720
 3027DOPG   C3A58183  18.080  18.820  10.150
 3027DOPG   C4A58184  18.000  18.740  10.600
 3027DOPG   C1B58185  17.770  18.250   9.080
 3027DOPG   D2B58186  17.720  18.110   9.470
 3027DOPG   C3B58187  17.910  17.980   9.770
 3027DOPG   C4B58188  17.860  17.810  10.170
 3028DOPG   GL058189  14.810   7.650  23.550
 3028DOPG   PO458190  14.760   7.980  23.520
 3028DOPG   GL158191  14.550   8.110  23.110
 3028DOPG   GL258192  14.870   8.220  22.990
 3028DOPG   C1A58193  14.450   8.250  22.720
 3028DOPG   D2A58194  14.210   8.460  22.560
 3028DOPG   C3A58195  14.100   8.380  22.130
 3028DOPG   C4A58196  14.210   8.430  21.750
 3028DOPG   C1B58197  14.910   8.240  22.610
 3028DOPG   D2B58198  14.790   8.380  22.200
 3028DOPG   C3B58199  14.870   8.780  22.010
 3028DOPG   C4B58200  15.010   8.960  21.620
 3029DOPG   GL058201  15.760   8.150   5.450
 3029DOPG   PO458202  15.600   7.740   5.280
 3029DOPG   GL158203  15.450   7.780   5.690
 3029DOPG   GL258204  15.810   7.780   5.830
 3029DOPG   C1A58205  15.310   8.120   5.960
 3029DOPG   D2A58206  15.090   8.470   6.090
 3029DOPG   C3A58207  15.170   8.920   6.330
 3029DOPG   C4A58208  15.470   9.060   6.590
 3029DOPG   C1B58209  15.880   7.990   6.300
 3029DOPG   D2B58210  16.080   7.920   6.620
 3029DOPG   C3B58211  16.130   7.950   7.100
 3029DOPG   C4B58212  16.510   8.040   7.370
 3030DOPG   GL058213  26.400  16.030  10.690
 3030DOPG   PO458214  26.000  16.050  10.730
 3030DOPG   GL158215  25.670  16.220  10.920
 3030DOPG   GL258216  25.540  16.470  10.810
 3030DOPG   C1A58217  25.400  16.100  11.230
 3030DOPG   D2A58218  25.210  16.180  11.470
 3030DOPG   C3A58219  25.230  15.980  11.850
 3030DOPG   C4A58220  25.270  15.890  12.250
 3030DOPG   C1B58221  25.340  16.700  11.170
 3030DOPG   D2B58222  24.900  16.590  11.270
 3030DOPG   C3B58223  24.800  16.290  11.640
 3030DOPG   C4B58224  24.550  16.050  11.950
 3031DOPG   GL058225   7.990  21.040  12.730
 3031DOPG   PO458226   8.180  20.950  12.290
 3031DOPG   GL158227   8.560  20.700  12.460
 3031DOPG   GL258228   8.540  20.620  12.750
 3031DOPG   C1A58229   8.940  20.480  12.420
 3031DOPG   D2A58230   9.420  20.370  12.420
 3031DOPG   C3A58231   9.700  20.230  12.030
 3031DOPG   C4A58232  10.010  20.040  11.930
 3031DOPG   C1B58233   8.400  20.190  12.580
 3031DOPG   D2B58234   8.260  19.810  12.740
 3031DOPG   C3B58235   8.720  19.560  12.760
 3031DOPG   C4B58236   8.820  19.330  12.430
 3032DOPG   GL058237  11.380   8.850   6.880
 3032DOPG   PO458238  11.500   9.230   6.760
 3032DOPG   GL158239  11.710   9.230   7.140
 3032DOPG   GL258240  11.620   9.430   7.190
 3032DOPG   C1A58241  12.090   9.450   7.330
 3032DOPG   D2A58242  12.450   9.610   7.540
 3032DOPG   C3A58243  12.820   9.890   7.710
 3032DOPG   C4A58244  12.650  10.270   7.550
 3032DOPG   C1B58245  11.620   9.750   7.430
 3032DOPG   D2B58246  11.670   9.970   7.860
 3032DOPG   C3B58247  11.460  10.370   7.830
 3032DOPG   C4B58248  11.120  10.670   7.830
 3033DOPG   GL058249  22.750  25.960  17.480
 3033DOPG   PO458250  22.380  26.000  17.730
 3033DOPG   GL158251  22.090  25.740  17.670
 3033DOPG   GL258252  21.710  25.740  17.720
 3033DOPG   C1A58253  22.110  25.430  17.370
 3033DOPG   D2A58254  22.110  25.130  17.110
 3033DOPG   C3A58255  21.970  24.710  17.040
 3033DOPG   C4A58256  21.520  24.640  17.120
 3033DOPG   C1B58257  21.610  25.500  17.410
 3033DOPG   D2B58258  21.540  25.120  17.220
 3033DOPG   C3B58259  21.120  24.940  17.060
 3033DOPG   C4B58260  20.790  24.680  16.810
 3034DOPG   GL058261  19.880  10.010   9.030
 3034DOPG   PO458262  19.550   9.830   9.240
 3034DOPG   GL158263  19.780  10.140   9.520
 3034DOPG   GL258264  19.940  10.350   9.480
 3034DOPG   C1A58265  19.610  10.460   9.800
 3034DOPG   D2A58266  19.230  10.760   9.780
 3034DOPG   C3A58267  19.020  10.930  10.130
 3034DOPG   C4A58268  19.180  10.900  10.500
 3034DOPG   C1B58269  20.030  10.700   9.830
 3034DOPG   D2B58270  19.770  10.900  10.100
 3034DOPG   C3B58271  19.440  10.620  10.230
 3034DOPG   C4B58272  19.100  10.430  10.420
 3035DOPG   GL058273  21.680   6.520  13.950
 3035DOPG   PO458274  21.630   6.530  13.540
 3035DOPG   GL158275  21.830   6.840  13.470
 3035DOPG   GL258276  21.990   6.950  13.810
 3035DOPG   C1A58277  21.680   7.320  13.480
 3035DOPG   D2A58278  21.850   7.660  13.450
 3035DOPG   C3A58279  22.050   7.970  13.290
 3035DOPG   C4A58280  21.830   8.300  13.000
 3035DOPG   C1B58281  21.750   7.280  13.980
 3035DOPG   D2B58282  21.430   7.690  13.800
 3035DOPG   C3B58283  21.000   7.760  14.080
 3035DOPG   C4B58284  20.910   8.200  14.230
 3036DOPG   GL058285  18.150   8.480  16.570
 3036DOPG   PO458286  17.810   8.420  16.390
 3036DOPG   GL158287  17.980   8.870  16.380
 3036DOPG   GL258288  17.800   9.090  16.220
 3036DOPG   C1A58289  18.260   9.210  16.510
 3036DOPG   D2A58290  18.600   9.360  16.730
 3036DOPG   C3A58291  19.130   9.180  16.730
 3036DOPG   C4A58292  19.530   9.380  16.560
 3036DOPG   C1B58293  18.240   9.000  16.030
 3036DOPG   D2B58294  18.610   8.900  15.610
 3036DOPG   C3B58295  19.010   8.900  15.530
 3036DOPG   C4B58296  19.450   8.960  15.690
 3037DOPG   GL058297  23.130  17.720  18.560
 3037DOPG   PO458298  23.390  17.660  18.240
 3037DOPG   GL158299  23.150  17.620  17.880
 3037DOPG   GL258300  23.340  17.390  17.700
 3037DOPG   C1A58301  22.840  17.830  17.700
 3037DOPG   D2A58302  23.000  18.070  17.410
 3037DOPG   C3A58303  22.730  18.050  17.150
 3037DOPG   C4A58304  22.480  17.840  16.890
 3037DOPG   C1B58305  22.970  17.410  17.360
 3037DOPG   D2B58306  22.660  17.310  17.040
 3037DOPG   C3B58307  22.570  17.370  16.600
 3037DOPG   C4B58308  22.500  17.370  16.240
 3038DOPG   GL058309  14.160  11.300  13.620
 3038DOPG   PO458310  13.920  11.600  13.790
 3038DOPG   GL158311  14.010  12.060  13.810
 3038DOPG   GL258312  13.780  12.270  13.620
 3038DOPG   C1A58313  14.020  12.500  13.980
 3038DOPG   D2A58314  14.430  12.660  13.800
 3038DOPG   C3A58315  14.740  12.950  13.910
 3038DOPG   C4A58316  14.720  13.300  14.170
 3038DOPG   C1B58317  14.190  12.360  13.500
 3038DOPG   D2B58318  14.660  12.320  13.440
 3038DOPG   C3B58319  14.790  12.790  13.380
 3038DOPG   C4B58320  15.070  13.130  13.570
 3039DOPG   GL058321   7.570   9.430  13.540
 3039DOPG   PO458322   7.670   9.640  13.120
 3039DOPG   GL158323   7.670  10.020  13.390
 3039DOPG   GL258324   7.680  10.220  13.100
 3039DOPG   C1A58325   7.710  10.540  13.500
 3039DOPG   D2A58326   7.620  10.760  13.850
 3039DOPG   C3A58327   7.670  10.550  14.330
 3039DOPG   C4A58328   7.930  10.190  14.360
 3039DOPG   C1B58329   8.140  10.300  13.240
 3039DOPG   D2B58330   8.300  10.540  13.570
 3039DOPG   C3B58331   8.370  10.940  13.520
 3039DOPG   C4B58332   8.280  11.380  13.380
 3040DOPG   GL058333  12.620  19.750  13.760
 3040DOPG   PO458334  12.450  19.280  13.800
 3040DOPG   GL158335  12.850  18.990  13.760
 3040DOPG   GL258336  13.020  18.900  14.100
 3040DOPG   C1A58337  13.250  19.150  13.720
 3040DOPG   D2A58338  13.640  19.190  13.770
 3040DOPG   C3A58339  13.960  19.520  13.850
 3040DOPG   C4A58340  13.860  19.930  13.820
 3040DOPG   C1B58341  13.310  18.670  13.950
 3040DOPG   D2B58342  13.710  18.410  13.710
 3040DOPG   C3B58343  14.190  18.400  13.590
 3040DOPG   C4B58344  14.470  18.530  13.940
 3041DOPG   GL058345  15.100  10.160  14.510
 3041DOPG   PO458346  14.820  10.420  14.430
 3041DOPG   GL158347  15.190  10.470  14.170
 3041DOPG   GL258348  15.230  10.800  14.210
 3041DOPG   C1A58349  15.610  10.730  13.990
 3041DOPG   D2A58350  15.970  10.600  13.900
 3041DOPG   C3A58351  16.320  10.690  14.090
 3041DOPG   C4A58352  16.470  10.620  14.490
 3041DOPG   C1B58353  15.300  11.190  13.870
 3041DOPG   D2B58354  15.570  11.130  13.620
 3041DOPG   C3B58355  15.450  11.390  13.240
 3041DOPG   C4B58356  15.160  11.790  13.240
 3042DOPG   GL058357   5.810  12.480  14.080
 3042DOPG   PO458358   6.180  12.870  14.210
 3042DOPG   GL158359   6.490  13.170  14.250
 3042DOPG   GL258360   6.580  13.160  14.620
 3042DOPG   C1A58361   6.930  13.130  14.220
 3042DOPG   D2A58362   7.260  12.910  14.370
 3042DOPG   C3A58363   7.630  12.880  14.390
 3042DOPG   C4A58364   7.950  12.640  14.480
 3042DOPG   C1B58365   6.750  13.560  14.520
 3042DOPG   D2B58366   7.170  13.700  14.660
 3042DOPG   C3B58367   7.540  13.420  14.790
 3042DOPG   C4B58368   7.800  13.380  15.160
 3043DOPG   GL058369  24.750  12.010   8.100
 3043DOPG   PO458370  25.040  12.010   8.410
 3043DOPG   GL158371  25.260  11.970   8.040
 3043DOPG   GL258372  25.190  12.070   7.820
 3043DOPG   C1A58373  25.650  12.250   7.900
 3043DOPG   D2A58374  25.980  12.160   7.750
 3043DOPG   C3A58375  26.230  12.140   7.410
 3043DOPG   C4A58376  26.340  12.190   6.990
 3043DOPG   C1B58377  25.640  11.880   7.520
 3043DOPG   D2B58378  25.800  12.080   7.070
 3043DOPG   C3B58379  25.580  12.150   6.670
 3043DOPG   C4B58380  25.720  12.110   6.260
 3044DOPG   GL058381  14.230  10.750  13.640
 3044DOPG   PO458382  14.460  11.010  13.890
 3044DOPG   GL158383  14.570  11.390  13.840
 3044DOPG   GL258384  14.930  11.480  13.590
 3044DOPG   C1A58385  14.790  11.750  14.100
 3044DOPG   D2A58386  15.170  11.960  14.290
 3044DOPG   C3A58387  15.510  11.770  14.230
 3044DOPG   C4A58388  15.970  11.770  14.140
 3044DOPG   C1B58389  15.330  11.710  13.770
 3044DOPG   D2B58390  15.570  12.130  13.910
 3044DOPG   C3B58391  15.630  12.490  13.770
 3044DOPG   C4B58392  15.980  12.770  13.680
 3045DOPG   GL058393  21.440  21.000  17.530
 3045DOPG   PO458394  21.160  21.180  17.270
 3045DOPG   GL158395  21.120  21.050  16.870
 3045DOPG   GL258396  21.380  21.060  16.590
 3045DOPG   C1A58397  20.810  20.850  16.560
 3045DOPG   D2A58398  20.480  20.580  16.280
 3045DOPG   C3A58399  20.320  20.450  15.910
 3045DOPG   C4A58400  20.450  20.220  15.660
 3045DOPG   C1B58401  21.250  20.720  16.320
 3045DOPG   D2B58402  20.880  20.770  15.990
 3045DOPG   C3B58403  20.900  20.480  15.610
 3045DOPG   C4B58404  20.950  20.130  15.580
 3046DOPG   GL058405  17.040  11.190  17.280
 3046DOPG   PO458406  16.700  11.350  17.430
 3046DOPG   GL158407  16.720  11.630  17.060
 3046DOPG   GL258408  16.800  11.960  17.100
 3046DOPG   C1A58409  16.780  11.810  16.610
 3046DOPG   D2A58410  17.180  11.720  16.420
 3046DOPG   C3A58411  17.320  11.940  16.060
 3046DOPG   C4A58412  17.630  12.210  15.970
 3046DOPG   C1B58413  17.210  11.990  16.900
 3046DOPG   D2B58414  17.510  11.970  16.670
 3046DOPG   C3B58415  17.700  12.390  16.530
 3046DOPG   C4B58416  17.690  12.740  16.250
 3047DOPG   GL058417  12.760   7.410  22.860
 3047DOPG   PO458418  12.810   7.530  22.480
 3047DOPG   GL158419  12.960   7.710  22.230
 3047DOPG   GL258420  13.230   7.910  22.360
 3047DOPG   C1A58421  12.880   7.880  21.940
 3047DOPG   D2A58422  13.040   7.840  21.550
 3047DOPG   C3A58423  13.330   8.100  21.480
 3047DOPG   C4A58424  13.440   8.140  21.020
 3047DOPG   C1B58425  13.350   8.120  21.990
 3047DOPG   D2B58426  13.700   8.350  21.830
 3047DOPG   C3B58427  13.870   8.310  21.400
 3047DOPG   C4B58428  13.910   8.220  20.950
 3048DOPG   GL058429  20.800   5.280  22.400
 3048DOPG   PO458430  20.800   5.500  22.790
 3048DOPG   GL158431  20.400   5.520  22.550
 3048DOPG   GL258432  20.080   5.540  22.700
 3048DOPG   C1A58433  20.340   5.930  22.320
 3048DOPG   D2A58434  20.320   6.150  21.930
 3048DOPG   C3A58435  20.640   6.000  21.630
 3048DOPG   C4A58436  20.670   5.920  21.180
 3048DOPG   C1B58437  19.870   5.470  22.270
 3048DOPG   D2B58438  19.900   5.500  21.820
 3048DOPG   C3B58439  20.190   5.440  21.590
 3048DOPG   C4B58440  20.490   5.520  21.440
 3049DOPG   GL058441  23.030   6.660  15.110
 3049DOPG   PO458442  22.750   6.570  14.730
 3049DOPG   GL158443  22.830   6.940  14.540
 3049DOPG   GL258444  23.210   7.030  14.400
 3049DOPG   C1A58445  22.670   7.410  14.630
 3049DOPG   D2A58446  22.500   7.790  14.860
 3049DOPG   C3A58447  22.400   8.300  14.670
 3049DOPG   C4A58448  22.580   8.660  14.840
 3049DOPG   C1B58449  22.990   7.320  14.280
 3049DOPG   D2B58450  22.920   7.720  14.360
 3049DOPG   C3B58451  22.680   8.000  14.260
 3049DOPG   C4B58452  22.310   8.210  14.040
 3050DOPG   GL058453   6.710  10.850  12.580
 3050DOPG   PO458454   7.140  11.080  12.470
 3050DOPG   GL158455   7.510  10.980  12.530
 3050DOPG   GL258456   7.600  11.200  12.260
 3050DOPG   C1A58457   7.800  11.160  12.780
 3050DOPG   D2A58458   7.850  11.500  13.060
 3050DOPG   C3A58459   8.000  11.910  12.890
 3050DOPG   C4A58460   8.150  12.230  12.870
 3050DOPG   C1B58461   8.060  11.420  12.030
 3050DOPG   D2B58462   8.260  11.660  12.110
 3050DOPG   C3B58463   8.290  12.020  11.980
 3050DOPG   C4B58464   8.380  12.460  12.070
 3051DOPG   GL058465  15.300  11.010  12.200
 3051DOPG   PO458466  15.090  11.370  12.000
 3051DOPG   GL158467  15.470  11.560  12.090
 3051DOPG   GL258468  15.690  11.310  12.270
 3051DOPG   C1A58469  15.960  11.660  12.120
 3051DOPG   D2A58470  16.250  11.820  12.420
 3051DOPG   C3A58471  16.770  11.820  12.500
 3051DOPG   C4A58472  17.060  12.050  12.740
 3051DOPG   C1B58473  16.220  11.250  12.270
 3051DOPG   D2B58474  16.630  11.520  12.020
 3051DOPG   C3B58475  17.080  11.390  12.250
 3051DOPG   C4B58476  17.170  11.490  12.640
 3052DOPG   GL058477  22.990  17.290  18.230
 3052DOPG   PO458478  22.600  17.290  18.380
 3052DOPG   GL158479  22.640  17.410  17.900
 3052DOPG   GL258480  22.410  17.180  17.810
 3052DOPG   C1A58481  22.450  17.580  17.460
 3052DOPG   D2A58482  22.140  17.640  17.240
 3052DOPG   C3A58483  22.160  17.370  16.900
 3052DOPG   C4A58484  21.840  17.450  16.650
 3052DOPG   C1B58485  22.400  16.930  17.520
 3052DOPG   D2B58486  22.240  16.820  17.040
 3052DOPG   C3B58487  22.030  16.940  16.640
 3052DOPG   C4B58488  22.010  16.960  16.200
 3053DOPG   GL058489  25.580   3.020   9.860
 3053DOPG   PO458490  25.670   2.990  10.360
 3053DOPG   GL158491  25.380   3.200  10.680
 3053DOPG   GL258492  25.320   3.210  11.060
 3053DOPG   C1A58493  25.320   3.630  10.750
 3053DOPG   D2A58494  25.240   4.050  11.010
 3053DOPG   C3A58495  25.310   4.240  11.370
 3053DOPG   C4A58496  25.090   4.410  11.780
 3053DOPG   C1B58497  25.070   3.630  11.180
 3053DOPG   D2B58498  24.740   4.000  11.320
 3053DOPG   C3B58499  24.700   4.410  11.370
 3053DOPG   C4B58500  24.550   4.750  11.200
 3054DOPG   GL058501  11.600  19.820  13.530
 3054DOPG   PO458502  11.770  20.150  13.760
 3054DOPG   GL158503  11.370  20.310  13.500
 3054DOPG   GL258504  11.380  20.710  13.460
 3054DOPG   C1A58505  11.020  20.060  13.260
 3054DOPG   D2A58506  10.590  20.170  13.290
 3054DOPG   C3A58507  10.410  20.630  13.370
 3054DOPG   C4A58508  10.110  20.840  13.030
 3054DOPG   C1B58509  11.230  20.980  13.810
 3054DOPG   D2B58510  11.360  21.430  13.790
 3054DOPG   C3B58511  11.230  21.810  13.570
 3054DOPG   C4B58512  11.050  22.190  13.250
 3055DOPG   GL058513  26.600   9.680  15.640
 3055DOPG   PO458514  26.800   9.880  15.290
 3055DOPG   GL158515  26.390  10.050  15.320
 3055DOPG   GL258516  26.200   9.770  15.320
 3055DOPG   C1A58517  26.150  10.140  15.680
 3055DOPG   D2A58518  25.760   9.920  15.810
 3055DOPG   C3A58519  25.440  10.140  15.910
 3055DOPG   C4A58520  25.320  10.580  15.910
 3055DOPG   C1B58521  25.910  10.030  15.190
 3055DOPG   D2B58522  25.690  10.330  14.950
 3055DOPG   C3B58523  25.330  10.640  15.030
 3055DOPG   C4B58524  24.880  10.570  15.020
 3056DOPG   GL058525  15.810   3.830   8.040
 3056DOPG   PO458526  15.570   4.210   8.130
 3056DOPG   GL158527  15.480   4.610   8.190
 3056DOPG   GL258528  15.280   4.880   8.130
 3056DOPG   C1A58529  15.800   4.910   8.200
 3056DOPG   D2A58530  16.200   5.180   8.430
 3056DOPG   C3A58531  16.340   5.260   8.800
 3056DOPG   C4A58532  16.170   5.560   9.050
 3056DOPG   C1B58533  15.490   5.180   8.480
 3056DOPG   D2B58534  15.360   5.350   8.840
 3056DOPG   C3B58535  15.600   5.540   9.100
 3056DOPG   C4B58536  15.790   5.660   9.400
 3057DOPG   GL058537  24.940   9.330  17.560
 3057DOPG   PO458538  24.920   9.720  17.710
 3057DOPG   GL158539  24.810   9.800  17.300
 3057DOPG   GL258540  24.650   9.560  17.150
 3057DOPG   C1A58541  24.850  10.040  16.910
 3057DOPG   D2A58542  24.680  10.360  16.590
 3057DOPG   C3A58543  24.910  10.770  16.340
 3057DOPG   C4A58544  24.970  11.160  16.360
 3057DOPG   C1B58545  24.630   9.500  16.680
 3057DOPG   D2B58546  24.750   9.350  16.250
 3057DOPG   C3B58547  24.700   8.910  15.940
 3057DOPG   C4B58548  24.540   8.540  15.750
 3058DOPG   GL058549   6.990  11.130  13.400
 3058DOPG   PO458550   6.630  11.390  13.420
 3058DOPG   GL158551   7.170  11.610  13.430
 3058DOPG   GL258552   7.310  11.470  13.150
 3058DOPG   C1A58553   7.490  11.870  13.450
 3058DOPG   D2A58554   7.970  11.880  13.380
 3058DOPG   C3A58555   8.280  12.040  13.620
 3058DOPG   C4A58556   8.440  12.070  13.870
 3058DOPG   C1B58557   7.450  11.730  12.760
 3058DOPG   D2B58558   7.610  12.160  12.590
 3058DOPG   C3B58559   7.930  12.250  12.360
 3058DOPG   C4B58560   8.310  12.010  12.460
 3059DOPG   GL058561  17.630  19.750   8.390
 3059DOPG   PO458562  17.680  19.690   7.810
 3059DOPG   GL158563  17.480  19.650   7.390
 3059DOPG   GL258564  17.150  19.850   7.320
 3059DOPG   C1A58565  17.580  19.880   6.970
 3059DOPG   D2A58566  17.540  19.710   6.530
 3059DOPG   C3A58567  17.760  19.340   6.280
 3059DOPG   C4A58568  17.720  19.330   5.790
 3059DOPG   C1B58569  16.940  19.950   6.990
 3059DOPG   D2B58570  16.860  19.950   6.610
 3059DOPG   C3B58571  17.130  20.000   6.270
 3059DOPG   C4B58572  17.450  19.690   6.070
 3060DOPG   GL058573  27.610  13.960  13.300
 3060DOPG   PO458574  27.570  14.050  13.690
 3060DOPG   GL158575  27.140  14.140  13.550
 3060DOPG   GL258576  27.060  14.410  13.570
 3060DOPG   C1A58577  26.870  13.780  13.450
 3060DOPG   D2A58578  26.670  13.520  13.040
 3060DOPG   C3A58579  26.840  13.420  12.670
 3060DOPG   C4A58580  26.700  13.220  12.310
 3060DOPG   C1B58581  26.710  14.220  13.760
 3060DOPG   D2B58582  26.340  14.300  13.920
 3060DOPG   C3B58583  26.000  14.130  14.010
 3060DOPG   C4B58584  25.620  14.040  14.140
 3061DOPG   GL058585  16.080  20.300   9.780
 3061DOPG   PO458586  16.250  20.620   9.910
 3061DOPG   GL158587  16.540  20.420  10.090
 3061DOPG   GL258588  16.460  20.160  10.080
 3061DOPG   C1A58589  16.940  20.180  10.220
 3061DOPG   D2A58590  17.250  19.940  10.470
 3061DOPG   C3A58591  17.050  19.880  10.760
 3061DOPG   C4A58592  17.130  19.860  11.230
 3061DOPG   C1B58593  16.590  19.840  10.510
 3061DOPG   D2B58594  16.680  19.520  10.770
 3061DOPG   C3B58595  16.500  19.280  10.530
 3061DOPG   C4B58596  16.660  19.160  10.180
 3062DOPG   GL058597  22.750   9.730  18.260
 3062DOPG   PO458598  22.960  10.190  18.150
 3062DOPG   GL158599  22.900  10.170  17.760
 3062DOPG   GL258600  23.050  10.060  17.480
 3062DOPG   C1A58601  22.560  10.510  17.660
 3062DOPG   D2A58602  22.380  10.570  17.350
 3062DOPG   C3A58603  22.290  11.020  17.180
 3062DOPG   C4A58604  21.870  11.120  17.240
 3062DOPG   C1B58605  22.810  10.360  17.150
 3062DOPG   D2B58606  22.470  10.320  16.880
 3062DOPG   C3B58607  22.460  10.470  16.500
 3062DOPG   C4B58608  22.170  10.820  16.390
 3063DOPG   GL058609  20.870  19.830   9.540
 3063DOPG   PO458610  21.360  19.810   9.400
 3063DOPG   GL158611  21.230  19.430   9.520
 3063DOPG   GL258612  21.150  19.210   9.350
 3063DOPG   C1A58613  20.990  19.200   9.810
 3063DOPG   D2A58614  20.980  19.220  10.270
 3063DOPG   C3A58615  21.360  19.420  10.500
 3063DOPG   C4A58616  21.710  19.310  10.720
 3063DOPG   C1B58617  20.870  18.960   9.360
 3063DOPG   D2B58618  20.850  18.680   9.700
 3063DOPG   C3B58619  21.090  18.730  10.090
 3063DOPG   C4B58620  21.510  19.010  10.300
 3064DOPG   GL058621  23.550  17.990  17.920
 3064DOPG   PO458622  23.510  18.200  17.540
 3064DOPG   GL158623  23.590  18.180  17.120
 3064DOPG   GL258624  23.950  18.260  16.900
 3064DOPG   C1A58625  23.210  18.210  16.970
 3064DOPG   D2A58626  22.890  18.360  16.810
 3064DOPG   C3A58627  22.740  18.100  16.580
 3064DOPG   C4A58628  22.740  17.820  16.210
 3064DOPG   C1B58629  23.630  18.390  16.650
 3064DOPG   D2B58630  23.240  18.420  16.470
 3064DOPG   C3B58631  23.190  18.000  16.250
 3064DOPG   C4B58632  23.030  17.750  15.820
 3065DOPG   GL058633  19.920   8.560   9.320
 3065DOPG   PO458634  19.690   8.480   8.910
 3065DOPG   GL158635  19.600   8.360   8.550
 3065DOPG   GL258636  19.510   8.070   8.670
 3065DOPG   C1A58637  19.840   8.140   8.300
 3065DOPG   D2A58638  19.830   7.790   7.980
 3065DOPG   C3A58639  20.260   7.630   7.870
 3065DOPG   C4A58640  20.370   7.750   7.450
 3065DOPG   C1B58641  19.280   8.170   8.260
 3065DOPG   D2B58642  19.000   8.030   7.880
 3065DOPG   C3B58643  18.790   7.630   8.150
 3065DOPG   C4B58644  18.680   7.470   8.560
 3066DOPG   GL058645  32.200  16.370  13.510
 3066DOPG   PO458646  32.240  15.950  13.220
 3066DOPG   GL158647  31.830  15.980  13.210
 3066DOPG   GL258648  31.770  16.170  13.420
 3066DOPG   C1A58649  31.560  15.610  13.170
 3066DOPG   D2A58650  31.120  15.560  13.320
 3066DOPG   C3A58651  30.970  15.340  13.650
 3066DOPG   C4A58652  30.980  14.930  13.870
 3066DOPG   C1B58653  31.380  15.960  13.480
 3066DOPG   D2B58654  30.940  15.870  13.690
 3066DOPG   C3B58655  30.770  16.150  13.930
 3066DOPG   C4B58656  30.440  16.130  14.250
 3067DOPG   GL058657  15.590   9.750  12.530
 3067DOPG   PO458658  15.720   9.600  12.240
 3067DOPG   GL158659  16.140   9.860  12.410
 3067DOPG   GL258660  15.960  10.220  12.590
 3067DOPG   C1A58661  16.400  10.160  12.400
 3067DOPG   D2A58662  16.660  10.300  12.720
 3067DOPG   C3A58663  16.990  10.620  12.560
 3067DOPG   C4A58664  17.390  10.790  12.400
 3067DOPG   C1B58665  16.130  10.350  12.070
 3067DOPG   D2B58666  16.470  10.310  11.750
 3067DOPG   C3B58667  16.920  10.420  11.750
 3067DOPG   C4B58668  17.040  10.680  12.050
 3068DOPG   GL058669  20.480  23.830   4.550
 3068DOPG   PO458670  20.090  24.000   4.880
 3068DOPG   GL158671  20.030  23.760   5.270
 3068DOPG   GL258672  20.300  23.610   5.480
 3068DOPG   C1A58673  19.840  23.240   5.440
 3068DOPG   D2A58674  19.550  23.040   5.630
 3068DOPG   C3A58675  19.080  22.860   5.530
 3068DOPG   C4A58676  18.810  22.500   5.730
 3068DOPG   C1B58677  20.150  23.500   5.840
 3068DOPG   D2B58678  19.890  23.230   6.130
 3068DOPG   C3B58679  19.870  23.270   6.640
 3068DOPG   C4B58680  19.570  23.080   6.960
 3069DOPG   GL058681  15.040   8.380  18.640
 3069DOPG   PO458682  15.150   8.430  18.940
 3069DOPG   GL158683  14.880   8.130  19.150
 3069DOPG   GL258684  14.770   7.880  19.010
 3069DOPG   C1A58685  14.750   8.030  19.620
 3069DOPG   D2A58686  14.530   7.770  19.900
 3069DOPG   C3A58687  14.730   7.370  19.950
 3069DOPG   C4A58688  14.740   6.990  20.310
 3069DOPG   C1B58689  14.590   7.600  19.380
 3069DOPG   D2B58690  14.300   7.310  19.670
 3069DOPG   C3B58691  14.040   7.020  19.860
 3069DOPG   C4B58692  13.430   7.040  19.940
 3070DOPG   GL058693  23.650  10.500   9.180
 3070DOPG   PO458694  24.020  10.680   9.350
 3070DOPG   GL158695  24.230  10.680   9.820
 3070DOPG   GL258696  23.950  10.680   9.980
 3070DOPG   C1A58697  24.410  10.600  10.350
 3070DOPG   D2A58698  24.470  10.550  10.730
 3070DOPG   C3A58699  24.280  10.410  11.110
 3070DOPG   C4A58700  23.960  10.480  11.490
 3070DOPG   C1B58701  23.910  10.510  10.410
 3070DOPG   D2B58702  23.950  10.770  10.730
 3070DOPG   C3B58703  23.670  11.140  10.750
 3070DOPG   C4B58704  23.590  11.400  11.020
 3071DOPG   GL058705  20.130   5.070  13.110
 3071DOPG   PO458706  20.310   4.730  13.250
 3071DOPG   GL158707  20.260   4.360  13.070
 3071DOPG   GL258708  20.020   4.260  13.220
 3071DOPG   C1A58709  20.230   4.200  12.680
 3071DOPG   D2A58710  20.360   4.040  12.190
 3071DOPG   C3A58711  20.700   3.800  12.200
 3071DOPG   C4A58712  20.530   3.430  12.040
 3071DOPG   C1B58713  20.160   3.840  13.050
 3071DOPG   D2B58714  20.050   3.450  13.110
 3071DOPG   C3B58715  19.840   3.080  13.020
 3071DOPG   C4B58716  19.480   2.880  13.000
 3072DOPG   GL058717  18.690  21.110  17.900
 3072DOPG   PO458718  18.580  20.950  18.240
 3072DOPG   GL158719  18.310  21.220  18.540
 3072DOPG   GL258720  18.040  21.510  18.550
 3072DOPG   C1A58721  18.070  21.220  18.930
 3072DOPG   D2A58722  17.780  21.600  19.030
 3072DOPG   C3A58723  17.480  21.970  19.100
 3072DOPG   C4A58724  17.140  22.300  19.330
 3072DOPG   C1B58725  17.990  21.910  18.660
 3072DOPG   D2B58726  17.950  22.150  18.990
 3072DOPG   C3B58727  17.800  22.430  19.300
 3072DOPG   C4B58728  18.090  22.800  19.480
 3073DOPG   GL058729  14.480  19.560   3.980
 3073DOPG   PO458730  14.360  19.900   4.250
 3073DOPG   GL158731  14.370  19.630   4.580
 3073DOPG   GL258732  14.080  19.410   4.730
 3073DOPG   C1A58733  14.540  19.270   4.820
 3073DOPG   D2A58734  14.480  18.880   5.060
 3073DOPG   C3A58735  14.870  18.620   4.900
 3073DOPG   C4A58736  15.090  18.330   5.100
 3073DOPG   C1B58737  14.080  18.950   4.850
 3073DOPG   D2B58738  13.950  18.560   4.690
 3073DOPG   C3B58739  14.270  18.380   4.860
 3073DOPG   C4B58740  14.560  18.320   5.190
 3074DOPG   GL058741  25.620   6.930   6.260
 3074DOPG   PO458742  25.310   6.660   6.290
 3074DOPG   GL158743  24.950   6.700   6.470
 3074DOPG   GL258744  24.650   6.820   6.300
 3074DOPG   C1A58745  24.670   6.680   6.790
 3074DOPG   D2A58746  24.450   6.830   7.040
 3074DOPG   C3A58747  24.200   6.990   6.980
 3074DOPG   C4A58748  23.760   6.990   6.850
 3074DOPG   C1B58749  24.330   6.970   6.450
 3074DOPG   D2B58750  23.920   7.070   6.410
 3074DOPG   C3B58751  23.660   7.340   6.140
 3074DOPG   C4B58752  23.450   7.730   6.300
 3075DOPG   GL058753  26.390   8.050  16.250
 3075DOPG   PO458754  26.190   7.830  16.500
 3075DOPG   GL158755  26.620   7.570  16.710
 3075DOPG   GL258756  26.800   7.850  16.990
 3075DOPG   C1A58757  26.970   7.290  17.000
 3075DOPG   D2A58758  27.380   7.230  17.220
 3075DOPG   C3A58759  27.490   7.640  17.440
 3075DOPG   C4A58760  27.320   7.870  17.760
 3075DOPG   C1B58761  27.140   7.980  17.190
 3075DOPG   D2B58762  27.500   8.240  17.430
 3075DOPG   C3B58763  27.840   8.020  17.480
 3075DOPG   C4B58764  28.070   7.630  17.600
 3076DOPG   GL058765  12.330  20.670  14.650
 3076DOPG   PO458766  12.050  20.680  14.920
 3076DOPG   GL158767  11.880  20.950  14.900
 3076DOPG   GL258768  11.570  20.810  14.810
 3076DOPG   C1A58769  11.790  21.260  14.690
 3076DOPG   D2A58770  11.490  21.580  14.650
 3076DOPG   C3A58771  11.670  21.800  14.940
 3076DOPG   C4A58772  11.760  21.790  15.400
 3076DOPG   C1B58773  11.240  21.110  14.680
 3076DOPG   D2B58774  10.950  21.370  14.600
 3076DOPG   C3B58775  11.030  21.840  14.740
 3076DOPG   C4B58776  11.430  22.120  14.600
 3077DOPG   GL058777  24.780   9.210  11.250
 3077DOPG   PO458778  24.260   9.150  11.140
 3077DOPG   GL158779  24.180   9.190  11.520
 3077DOPG   GL258780  24.340   9.500  11.460
 3077DOPG   C1A58781  24.000   9.040  11.890
 3077DOPG   D2A58782  23.730   9.230  12.110
 3077DOPG   C3A58783  23.580   9.420  12.420
 3077DOPG   C4A58784  23.200   9.430  12.740
 3077DOPG   C1B58785  24.080   9.540  11.870
 3077DOPG   D2B58786  23.720   9.770  12.130
 3077DOPG   C3B58787  23.770  10.160  12.380
 3077DOPG   C4B58788  23.530  10.340  12.630
 3078DOPG   GL058789  18.670  13.850  19.380
 3078DOPG   PO458790  18.600  13.930  18.870
 3078DOPG   GL158791  18.980  13.860  18.590
 3078DOPG   GL258792  19.140  14.080  18.240
 3078DOPG   C1A58793  18.740  13.640  18.180
 3078DOPG   D2A58794  18.460  13.280  18.150
 3078DOPG   C3A58795  18.670  13.040  17.870
 3078DOPG   C4A58796  18.630  12.850  17.330
 3078DOPG   C1B58797  19.570  14.050  18.220
 3078DOPG   D2B58798  19.950  13.870  17.970
 3078DOPG   C3B58799  20.050  13.580  17.850
 3078DOPG   C4B58800  19.840  13.430  17.560
 3079DOPG   GL058801  23.300   8.710  18.180
 3079DOPG   PO458802  23.560   8.710  17.860
 3079DOPG   GL158803  23.380   8.850  17.400
 3079DOPG   GL258804  23.340   9.150  17.340
 3079DOPG   C1A58805  23.340   8.710  16.980
 3079DOPG   D2A58806  23.220   8.910  16.590
 3079DOPG   C3A58807  22.750   9.100  16.440
 3079DOPG   C4A58808  22.400   9.360  16.140
 3079DOPG   C1B58809  22.980   9.070  17.140
 3079DOPG   D2B58810  22.750   8.800  16.840
 3079DOPG   C3B58811  22.280   8.980  16.770
 3079DOPG   C4B58812  21.870   8.990  16.830
 3080DOPG   GL058813  20.370   7.370  10.520
 3080DOPG   PO458814  20.300   7.760  10.390
 3080DOPG   GL158815  20.580   8.080  10.530
 3080DOPG   GL258816  20.730   8.170  10.270
 3080DOPG   C1A58817  20.850   8.340  10.730
 3080DOPG   D2A58818  20.870   8.650  11.040
 3080DOPG   C3A58819  21.090   9.100  11.070
 3080DOPG   C4A58820  21.370   9.130  11.210
 3080DOPG   C1B58821  20.880   8.600  10.310
 3080DOPG   D2B58822  20.920   8.950  10.540
 3080DOPG   C3B58823  21.180   9.210  10.550
 3080DOPG   C4B58824  21.240   9.590  10.400
 3081DOPG   GL058825  25.560  15.410   9.470
 3081DOPG   PO458826  25.220  15.110   9.290
 3081DOPG   GL158827  24.940  15.100   9.690
 3081DOPG   GL258828  25.270  15.030   9.800
 3081DOPG   C1A58829  24.670  14.990  10.000
 3081DOPG   D2A58830  24.370  15.030  10.370
 3081DOPG   C3A58831  24.220  15.210  10.710
 3081DOPG   C4A58832  23.900  15.520  10.840
 3081DOPG   C1B58833  25.060  14.690  10.040
 3081DOPG   D2B58834  25.190  14.460  10.400
 3081DOPG   C3B58835  25.280  14.120  10.690
 3081DOPG   C4B58836  24.950  13.860  10.890
 3082DOPG   GL058837  15.380  21.170  11.470
 3082DOPG   PO458838  14.990  21.080  11.110
 3082DOPG   GL158839  15.100  20.630  11.140
 3082DOPG   GL258840  15.420  20.680  11.300
 3082DOPG   C1A58841  15.120  20.300  11.420
 3082DOPG   D2A58842  14.910  19.880  11.500
 3082DOPG   C3A58843  14.720  19.660  11.870
 3082DOPG   C4A58844  14.880  19.320  11.950
 3082DOPG   C1B58845  15.680  20.340  11.400
 3082DOPG   D2B58846  15.810  19.940  11.530
 3082DOPG   C3B58847  16.200  19.710  11.730
 3082DOPG   C4B58848  16.440  19.550  11.860
 3083DOPG   GL058849  13.000  18.950  11.980
 3083DOPG   PO458850  13.270  19.090  11.700
 3083DOPG   GL158851  13.610  19.120  11.820
 3083DOPG   GL258852  13.780  19.350  12.010
 3083DOPG   C1A58853  14.010  18.930  11.690
 3083DOPG   D2A58854  14.310  18.840  11.330
 3083DOPG   C3A58855  14.500  18.410  11.280
 3083DOPG   C4A58856  14.790  18.060  11.140
 3083DOPG   C1B58857  14.150  19.150  12.330
 3083DOPG   D2B58858  14.570  18.990  12.240
 3083DOPG   C3B58859  14.660  19.350  12.440
 3083DOPG   C4B58860  14.750  19.790  12.360
 3084DOPG   GL058861  24.050   6.160  12.280
 3084DOPG   PO458862  24.130   6.470  11.940
 3084DOPG   GL158863  24.230   6.100  11.750
 3084DOPG   GL258864  24.590   6.080  11.730
 3084DOPG   C1A58865  24.320   5.940  11.280
 3084DOPG   D2A58866  24.310   5.560  11.180
 3084DOPG   C3A58867  24.590   5.240  11.030
 3084DOPG   C4A58868  24.870   5.100  11.120
 3084DOPG   C1B58869  24.700   5.740  11.570
 3084DOPG   D2B58870  24.600   5.270  11.590
 3084DOPG   C3B58871  24.280   5.070  11.430
 3084DOPG   C4B58872  24.190   4.990  10.950
 3085DOPG   GL058873   9.230   9.920   9.060
 3085DOPG   PO458874   9.600   9.850   8.800
 3085DOPG   GL158875   9.960  10.030   8.850
 3085DOPG   GL258876  10.240   9.840   8.760
 3085DOPG   C1A58877  10.120  10.360   9.190
 3085DOPG   D2A58878  10.430  10.630   9.270
 3085DOPG   C3A58879  10.870  10.380   9.510
 3085DOPG   C4A58880  11.210  10.570   9.740
 3085DOPG   C1B58881  10.720   9.810   8.600
 3085DOPG   D2B58882  11.180   9.720   8.460
 3085DOPG   C3B58883  11.480   9.660   8.910
 3085DOPG   C4B58884  11.750   9.820   9.270
 3086DOPG   GL058885  25.120  19.430  15.240
 3086DOPG   PO458886  24.930  19.360  14.940
 3086DOPG   GL158887  24.540  18.990  15.070
 3086DOPG   GL258888  24.530  18.760  15.330
 3086DOPG   C1A58889  24.200  18.830  14.950
 3086DOPG   D2A58890  23.860  18.860  14.570
 3086DOPG   C3A58891  24.020  18.570  14.330
 3086DOPG   C4A58892  24.050  18.170  13.960
 3086DOPG   C1B58893  24.200  18.480  15.430
 3086DOPG   D2B58894  23.930  18.210  15.640
 3086DOPG   C3B58895  23.760  18.060  15.280
 3086DOPG   C4B58896  23.460  17.920  14.990
 3087DOPG   GL058897  15.040  13.730  24.110
 3087DOPG   PO458898  14.810  14.070  24.180
 3087DOPG   GL158899  14.970  14.040  23.700
 3087DOPG   GL258900  15.050  14.330  23.500
 3087DOPG   C1A58901  15.200  13.740  23.580
 3087DOPG   D2A58902  15.330  13.780  23.150
 3087DOPG   C3A58903  15.270  13.600  22.740
 3087DOPG   C4A58904  15.130  13.180  22.520
 3087DOPG   C1B58905  15.440  14.270  23.460
 3087DOPG   D2B58906  15.740  14.270  23.440
 3087DOPG   C3B58907  15.750  14.020  23.130
 3087DOPG   C4B58908  15.720  14.330  22.790
 3088DOPG   GL058909  18.700  16.830   8.270
 3088DOPG   PO458910  18.770  16.410   8.270
 3088DOPG   GL158911  18.670  16.200   8.610
 3088DOPG   GL258912  18.360  16.020   8.510
 3088DOPG   C1A58913  18.670  15.950   8.980
 3088DOPG   D2A58914  18.360  15.660   9.040
 3088DOPG   C3A58915  18.440  15.670   9.460
 3088DOPG   C4A58916  18.190  15.360   9.750
 3088DOPG   C1B58917  18.190  16.200   8.920
 3088DOPG   D2B58918  18.090  16.070   9.250
 3088DOPG   C3B58919  17.740  16.140   9.380
 3088DOPG   C4B58920  17.410  16.090   9.520
 3089DOPG   GL058921  21.850  17.140   8.230
 3089DOPG   PO458922  21.690  16.920   7.930
 3089DOPG   GL158923  21.400  16.880   8.240
 3089DOPG   GL258924  21.550  16.880   8.560
 3089DOPG   C1A58925  21.050  16.840   8.550
 3089DOPG   D2A58926  20.800  16.540   8.780
 3089DOPG   C3A58927  20.870  16.650   9.260
 3089DOPG   C4A58928  20.750  16.300   9.640
 3089DOPG   C1B58929  21.730  16.880   8.920
 3089DOPG   D2B58930  21.990  16.780   9.260
 3089DOPG   C3B58931  22.330  16.960   9.620
 3089DOPG   C4B58932  22.400  17.230   9.980
 3090DOPG   GL058933  19.480   5.050  23.280
 3090DOPG   PO458934  19.670   5.140  22.850
 3090DOPG   GL158935  20.070   5.060  22.550
 3090DOPG   GL258936  20.010   4.790  22.190
 3090DOPG   C1A58937  20.320   5.180  21.990
 3090DOPG   D2A58938  20.520   4.990  21.690
 3090DOPG   C3A58939  20.140   4.750  21.450
 3090DOPG   C4A58940  20.380   4.490  21.120
 3090DOPG   C1B58941  19.850   4.980  21.800
 3090DOPG   D2B58942  19.820   5.220  21.320
 3090DOPG   C3B58943  20.070   5.010  20.970
 3090DOPG   C4B58944  20.060   4.880  20.540
 3091DOPG   GL058945  14.490  16.990   9.120
 3091DOPG   PO458946  14.880  17.010   9.080
 3091DOPG   GL158947  14.810  16.730   9.410
 3091DOPG   GL258948  15.040  16.480   9.410
 3091DOPG   C1A58949  14.870  16.590   9.850
 3091DOPG   D2A58950  15.080  16.740  10.180
 3091DOPG   C3A58951  15.190  16.370  10.440
 3091DOPG   C4A58952  15.030  15.990  10.500
 3091DOPG   C1B58953  15.390  16.620   9.840
 3091DOPG   D2B58954  15.610  16.390  10.130
 3091DOPG   C3B58955  15.440  15.980  10.250
 3091DOPG   C4B58956  15.510  15.770  10.650
 3092DOPG   GL058957  19.560   7.180  15.540
 3092DOPG   PO458958  19.890   7.270  15.740
 3092DOPG   GL158959  19.720   7.690  15.570
 3092DOPG   GL258960  19.340   7.590  15.720
 3092DOPG   C1A58961  19.510   7.930  15.360
 3092DOPG   D2A58962  19.290   7.950  14.900
 3092DOPG   C3A58963  19.400   8.120  14.760
 3092DOPG   C4A58964  19.670   8.120  14.470
 3092DOPG   C1B58965  19.160   7.980  15.800
 3092DOPG   D2B58966  19.320   8.360  15.920
 3092DOPG   C3B58967  19.630   8.470  16.160
 3092DOPG   C4B58968  19.790   8.700  16.440
 3093DOPG   GL058969  25.070  16.040  23.750
 3093DOPG   PO458970  24.960  16.420  23.930
 3093DOPG   GL158971  24.730  16.370  23.540
 3093DOPG   GL258972  24.930  16.240  23.240
 3093DOPG   C1A58973  24.410  16.140  23.250
 3093DOPG   D2A58974  24.380  16.090  22.780
 3093DOPG   C3A58975  24.040  16.290  22.550
 3093DOPG   C4A58976  23.840  16.620  22.530
 3093DOPG   C1B58977  24.760  16.300  22.970
 3093DOPG   D2B58978  24.670  16.520  22.730
 3093DOPG   C3B58979  24.550  16.230  22.350
 3093DOPG   C4B58980  24.400  16.150  21.830
 3094DOPG   GL058981  28.700   4.490  12.230
 3094DOPG   PO458982  28.310   4.690  12.540
 3094DOPG   GL158983  27.890   4.780  12.680
 3094DOPG   GL258984  27.580   4.580  12.600
 3094DOPG   C1A58985  27.670   4.950  13.050
 3094DOPG   D2A58986  27.360   5.300  13.060
 3094DOPG   C3A58987  27.180   5.760  13.250
 3094DOPG   C4A58988  27.280   6.200  13.330
 3094DOPG   C1B58989  27.260   4.620  12.870
 3094DOPG   D2B58990  26.870   4.830  12.770
 3094DOPG   C3B58991  26.540   4.910  13.010
 3094DOPG   C4B58992  26.340   5.070  13.370
 3095DOPG   GL058993  20.970  13.310  19.370
 3095DOPG   PO458994  21.390  13.260  19.310
 3095DOPG   GL158995  21.150  13.370  18.890
 3095DOPG   GL258996  20.990  13.650  18.910
 3095DOPG   C1A58997  21.360  13.180  18.460
 3095DOPG   D2A58998  21.420  13.020  17.980
 3095DOPG   C3A58999  21.210  12.750  17.700
 3095DOPG   C4A59000  21.240  12.380  17.460
 3095DOPG   C1B59001  21.130  13.690  18.360
 3095DOPG   D2B59002  21.060  13.620  17.900
 3095DOPG   C3B59003  20.910  13.850  17.560
 3095DOPG   C4B59004  20.810  14.050  17.190
 3096DOPG   GL059005  26.960  15.030  11.410
 3096DOPG   PO459006  26.910  14.680  11.460
 3096DOPG   GL159007  26.480  14.610  11.470
 3096DOPG   GL259008  26.330  14.480  11.250
 3096DOPG   C1A59009  26.000  14.550  11.760
 3096DOPG   D2A59010  25.540  14.600  11.820
 3096DOPG   C3A59011  25.240  14.840  12.060
 3096DOPG   C4A59012  24.970  15.190  12.060
 3096DOPG   C1B59013  25.900  14.630  11.200
 3096DOPG   D2B59014  25.630  14.440  11.360
 3096DOPG   C3B59015  25.260  14.470  11.270
 3096DOPG   C4B59016  24.930  14.370  11.020
 3097DOPG   GL059017  24.390   1.380  15.090
 3097DOPG   PO459018  24.110   1.720  14.980
 3097DOPG   GL159019  24.140   2.060  14.650
 3097DOPG   GL259020  24.310   2.170  14.840
 3097DOPG   C1A59021  24.180   2.350  14.350
 3097DOPG   D2A59022  24.340   2.780  14.340
 3097DOPG   C3A59023  24.110   3.180  14.320
 3097DOPG   C4A59024  24.180   3.630  14.400
 3097DOPG   C1B59025  24.370   2.660  14.830
 3097DOPG   D2B59026  24.340   3.090  14.830
 3097DOPG   C3B59027  23.960   3.250  15.040
 3097DOPG   C4B59028  23.640   3.250  15.370
 3098DOPG   GL059029  20.540   5.150  12.830
 3098DOPG   PO459030  20.870   5.180  12.520
 3098DOPG   GL159031  20.900   4.820  12.730
 3098DOPG   GL259032  20.800   4.650  13.020
 3098DOPG   C1A59033  21.070   4.480  12.560
 3098DOPG   D2A59034  21.080   4.200  12.200
 3098DOPG   C3A59035  21.050   4.380  11.820
 3098DOPG   C4A59036  20.910   4.730  11.660
 3098DOPG   C1B59037  20.940   4.240  13.050
 3098DOPG   D2B59038  21.110   3.910  12.650
 3098DOPG   C3B59039  21.340   3.780  12.240
 3098DOPG   C4B59040  21.100   3.720  11.860
 3099DOPG   GL059041  14.840  21.370  12.170
 3099DOPG   PO459042  15.160  21.600  11.960
 3099DOPG   GL159043  15.440  21.220  12.070
 3099DOPG   GL259044  15.250  20.970  12.140
 3099DOPG   C1A59045  15.730  20.870  12.100
 3099DOPG   D2A59046  15.760  20.380  12.190
 3099DOPG   C3A59047  15.510  20.150  11.860
 3099DOPG   C4A59048  15.150  19.950  11.940
 3099DOPG   C1B59049  15.390  20.750  12.470
 3099DOPG   D2B59050  15.500  20.300  12.640
 3099DOPG   C3B59051  15.520  19.900  12.350
 3099DOPG   C4B59052  15.820  19.730  12.170
 3100DOPG   GL059053  16.630  27.510  12.170
 3100DOPG   PO459054  16.390  27.400  11.820
 3100DOPG   GL159055  16.320  27.080  12.020
 3100DOPG   GL259056  16.120  27.170  12.220
 3100DOPG   C1A59057  16.350  26.600  11.940
 3100DOPG   D2A59058  16.500  26.150  12.020
 3100DOPG   C3A59059  16.510  25.920  12.340
 3100DOPG   C4A59060  16.630  25.480  12.640
 3100DOPG   C1B59061  16.190  26.860  12.420
 3100DOPG   D2B59062  16.330  26.550  12.670
 3100DOPG   C3B59063  16.700  26.220  12.660
 3100DOPG   C4B59064  17.110  26.000  12.850
 3101DOPG   GL059065  17.050  10.530  17.870
 3101DOPG   PO459066  17.010  10.010  17.830
 3101DOPG   GL159067  17.260  10.010  17.420
 3101DOPG   GL259068  17.210   9.950  17.050
 3101DOPG   C1A59069  17.550  10.300  17.230
 3101DOPG   D2A59070  17.910  10.360  17.070
 3101DOPG   C3A59071  18.430  10.320  17.160
 3101DOPG   C4A59072  18.820  10.390  17.340
 3101DOPG   C1B59073  17.400  10.200  16.780
 3101DOPG   D2B59074  17.650  10.430  16.550
 3101DOPG   C3B59075  17.710  10.120  16.280
 3101DOPG   C4B59076  17.310   9.860  16.400
 3102DOPG   GL059077  15.000  21.940  13.210
 3102DOPG   PO459078  15.450  21.770  13.260
 3102DOPG   GL159079  15.580  21.410  13.220
 3102DOPG   GL259080  15.380  21.100  13.250
 3102DOPG   C1A59081  15.870  21.250  13.090
 3102DOPG   D2A59082  16.120  20.900  12.880
 3102DOPG   C3A59083  15.920  20.620  12.540
 3102DOPG   C4A59084  15.980  20.140  12.550
 3102DOPG   C1B59085  15.500  20.930  13.630
 3102DOPG   D2B59086  15.730  20.950  14.040
 3102DOPG   C3B59087  15.990  21.310  14.290
 3102DOPG   C4B59088  16.090  21.580  14.590
 3103DOPG   GL059089  22.880  12.810  18.950
 3103DOPG   PO459090  23.340  12.740  19.100
 3103DOPG   GL159091  23.280  13.060  18.740
 3103DOPG   GL259092  23.280  13.240  18.740
 3103DOPG   C1A59093  22.870  13.270  18.530
 3103DOPG   D2A59094  22.500  13.340  18.410
 3103DOPG   C3A59095  22.360  13.110  18.030
 3103DOPG   C4A59096  21.920  13.000  17.870
 3103DOPG   C1B59097  23.340  13.290  18.250
 3103DOPG   D2B59098  23.130  13.430  17.840
 3103DOPG   C3B59099  23.240  13.160  17.390
 3103DOPG   C4B59100  23.100  13.310  16.960
 3104DOPG   GL059101  12.590  14.810  14.340
 3104DOPG   PO459102  12.800  14.460  14.660
 3104DOPG   GL159103  13.220  14.200  14.590
 3104DOPG   GL259104  13.280  14.280  14.830
 3104DOPG   C1A59105  13.620  14.310  14.390
 3104DOPG   D2A59106  14.030  14.230  14.640
 3104DOPG   C3A59107  14.340  14.090  14.690
 3104DOPG   C4A59108  14.820  14.000  14.870
 3104DOPG   C1B59109  13.700  14.420  14.930
 3104DOPG   D2B59110  14.030  14.690  14.770
 3104DOPG   C3B59111  14.430  14.580  14.800
 3104DOPG   C4B59112  14.710  14.450  14.580
 3105DOPG   GL059113  13.220  18.020  16.590
 3105DOPG   PO459114  13.290  18.240  17.040
 3105DOPG   GL159115  13.610  17.860  16.850
 3105DOPG   GL259116  13.680  18.130  16.580
 3105DOPG   C1A59117  14.060  17.600  16.860
 3105DOPG   D2A59118  14.440  17.560  16.640
 3105DOPG   C3A59119  14.800  17.600  16.790
 3105DOPG   C4A59120  15.090  17.850  17.140
 3105DOPG   C1B59121  13.950  17.910  16.350
 3105DOPG   D2B59122  13.990  18.080  15.930
 3105DOPG   C3B59123  13.670  18.140  15.680
 3105DOPG   C4B59124  13.590  18.480  15.440
 3106DOPG   GL059125  26.760  16.320  15.670
 3106DOPG   PO459126  26.580  16.040  15.890
 3106DOPG   GL159127  26.240  16.140  15.600
 3106DOPG   GL259128  26.060  15.910  15.670
 3106DOPG   C1A59129  26.070  16.090  15.200
 3106DOPG   D2A59130  25.660  16.270  15.030
 3106DOPG   C3A59131  25.380  16.030  14.740
 3106DOPG   C4A59132  25.200  15.670  14.590
 3106DOPG   C1B59133  25.650  15.820  15.370
 3106DOPG   D2B59134  25.320  15.640  15.120
 3106DOPG   C3B59135  25.170  15.310  15.340
 3106DOPG   C4B59136  24.790  15.100  15.470
 3107DOPG   GL059137  16.610  13.210  18.610
 3107DOPG   PO459138  16.270  13.190  18.410
 3107DOPG   GL159139  16.340  13.530  18.080
 3107DOPG   GL259140  16.320  13.470  17.690
 3107DOPG   C1A59141  16.630  13.800  17.890
 3107DOPG   D2A59142  16.830  14.000  17.640
 3107DOPG   C3A59143  17.100  13.730  17.420
 3107DOPG   C4A59144  17.290  13.300  17.580
 3107DOPG   C1B59145  16.650  13.290  17.500
 3107DOPG   D2B59146  16.930  13.170  17.240
 3107DOPG   C3B59147  16.980  12.860  17.010
 3107DOPG   C4B59148  17.220  12.650  16.720
 3108DOPG   GL059149   8.980  16.090   6.650
 3108DOPG   PO459150   9.040  15.770   7.070
 3108DOPG   GL159151   9.440  15.870   7.300
 3108DOPG   GL259152   9.480  15.860   7.580
 3108DOPG   C1A59153   9.700  16.210   7.160
 3108DOPG   D2A59154   9.820  16.620   7.020
 3108DOPG   C3A59155  10.110  16.750   6.690
 3108DOPG   C4A59156  10.360  17.090   6.510
 3108DOPG   C1B59157   9.870  16.230   7.720
 3108DOPG   D2B59158  10.140  16.450   7.480
 3108DOPG   C3B59159  10.060  16.870   7.450
 3108DOPG   C4B59160  10.290  17.310   7.390
 3109DOPG   GL059161  30.380  20.590  15.750
 3109DOPG   PO459162  30.110  20.910  15.460
 3109DOPG   GL159163  30.010  20.420  15.370
 3109DOPG   GL259164  30.030  20.220  15.080
 3109DOPG   C1A59165  29.590  20.450  15.160
 3109DOPG   D2A59166  29.160  20.470  15.010
 3109DOPG   C3A59167  28.950  20.470  14.630
 3109DOPG   C4A59168  28.780  20.530  14.250
 3109DOPG   C1B59169  29.550  20.000  14.920
 3109DOPG   D2B59170  29.020  19.950  14.900
 3109DOPG   C3B59171  28.730  19.620  14.720
 3109DOPG   C4B59172  28.300  19.670  14.720
 3110DOPG   GL059173  20.890   8.720   9.570
 3110DOPG   PO459174  21.340   8.600   9.440
 3110DOPG   GL159175  21.380   8.950   9.690
 3110DOPG   GL259176  21.660   8.960   9.790
 3110DOPG   C1A59177  21.380   9.420   9.920
 3110DOPG   D2A59178  21.630   9.730  10.060
 3110DOPG   C3A59179  21.520  10.030  10.430
 3110DOPG   C4A59180  21.630  10.020  10.880
 3110DOPG   C1B59181  21.330   8.820  10.150
 3110DOPG   D2B59182  21.350   8.690  10.610
 3110DOPG   C3B59183  21.600   8.990  10.750
 3110DOPG   C4B59184  21.900   9.150  10.660
 3111DOPG   GL059185  12.440  13.440  14.750
 3111DOPG   PO459186  12.450  13.760  14.410
 3111DOPG   GL159187  12.830  13.710  14.480
 3111DOPG   GL259188  12.850  13.940  14.240
 3111DOPG   C1A59189  13.290  13.710  14.470
 3111DOPG   D2A59190  13.620  13.890  14.650
 3111DOPG   C3A59191  14.020  13.700  14.600
 3111DOPG   C4A59192  14.380  13.490  14.410
 3111DOPG   C1B59193  13.220  14.270  14.110
 3111DOPG   D2B59194  13.420  14.550  13.840
 3111DOPG   C3B59195  13.820  14.810  13.800
 3111DOPG   C4B59196  14.340  14.660  13.850
 3112DOPG   GL059197  20.270  13.580   3.110
 3112DOPG   PO459198  19.820  13.460   3.300
 3112DOPG   GL159199  20.050  13.600   3.570
 3112DOPG   GL259200  20.090  13.950   3.470
 3112DOPG   C1A59201  20.060  13.490   3.890
 3112DOPG   D2A59202  20.110  13.610   4.310
 3112DOPG   C3A59203  20.350  13.260   4.410
 3112DOPG   C4A59204  20.120  12.890   4.500
 3112DOPG   C1B59205  19.860  14.050   3.890
 3112DOPG   D2B59206  19.850  14.070   4.290
 3112DOPG   C3B59207  20.220  14.100   4.420
 3112DOPG   C4B59208  20.620  14.160   4.590
 3113DOPG   GL059209  26.630   7.310  22.470
 3113DOPG   PO459210  26.370   7.310  22.130
 3113DOPG   GL159211  26.150   7.390  21.830
 3113DOPG   GL259212  25.940   7.590  21.910
 3113DOPG   C1A59213  25.990   7.530  21.360
 3113DOPG   D2A59214  25.740   7.460  21.010
 3113DOPG   C3A59215  26.060   7.430  20.750
 3113DOPG   C4A59216  26.460   7.570  20.710
 3113DOPG   C1B59217  25.600   7.800  21.820
 3113DOPG   D2B59218  25.600   7.830  21.390
 3113DOPG   C3B59219  25.350   7.760  20.980
 3113DOPG   C4B59220  25.030   7.990  20.750
 3114DOPG   GL059221   8.090  13.510   8.760
 3114DOPG   PO459222   8.300  13.520   8.330
 3114DOPG   GL159223   8.720  13.340   8.480
 3114DOPG   GL259224   8.770  13.000   8.460
 3114DOPG   C1A59225   9.180  13.460   8.410
 3114DOPG   D2A59226   9.620  13.570   8.230
 3114DOPG   C3A59227   9.860  13.220   8.200
 3114DOPG   C4A59228  10.290  13.120   8.160
 3114DOPG   C1B59229   9.130  12.990   8.640
 3114DOPG   D2B59230   9.450  12.930   8.990
 3114DOPG   C3B59231   9.740  12.620   9.060
 3114DOPG   C4B59232  10.060  12.290   9.170
 3115DOPG   GL059233  23.490   6.390  15.320
 3115DOPG   PO459234  23.280   6.730  15.570
 3115DOPG   GL159235  23.300   7.150  15.370
 3115DOPG   GL259236  23.110   7.150  14.930
 3115DOPG   C1A59237  23.570   7.510  15.220
 3115DOPG   D2A59238  23.420   7.960  15.100
 3115DOPG   C3A59239  23.180   8.180  15.360
 3115DOPG   C4A59240  22.920   8.420  15.610
 3115DOPG   C1B59241  22.990   7.550  15.060
 3115DOPG   D2B59242  22.970   7.990  14.930
 3115DOPG   C3B59243  22.960   8.300  14.530
 3115DOPG   C4B59244  23.080   8.440  14.190
 3116DOPG   GL059245  10.800  15.440  16.130
 3116DOPG   PO459246  10.860  15.300  16.590
 3116DOPG   GL159247  10.620  15.330  16.960
 3116DOPG   GL259248  10.860  15.440  17.060
 3116DOPG   C1A59249  10.380  15.170  17.310
 3116DOPG   D2A59250   9.990  15.150  17.440
 3116DOPG   C3A59251   9.720  15.310  17.600
 3116DOPG   C4A59252   9.290  15.450  17.660
 3116DOPG   C1B59253  10.700  15.500  17.510
 3116DOPG   D2B59254  10.540  15.610  17.810
 3116DOPG   C3B59255  10.150  15.710  17.660
 3116DOPG   C4B59256   9.740  15.730  17.960
 3117DOPG   GL059257  15.490   9.700  13.680
 3117DOPG   PO459258  15.750   9.310  13.810
 3117DOPG   GL159259  16.040   9.540  13.790
 3117DOPG   GL259260  16.250   9.490  13.980
 3117DOPG   C1A59261  16.150   9.890  13.530
 3117DOPG   D2A59262  16.260  10.260  13.290
 3117DOPG   C3A59263  16.520  10.630  13.220
 3117DOPG   C4A59264  16.460  11.090  13.200
 3117DOPG   C1B59265  16.310   9.880  14.100
 3117DOPG   D2B59266  16.570  10.150  13.950
 3117DOPG   C3B59267  16.470  10.460  13.690
 3117DOPG   C4B59268  16.580  10.870  13.630
 3118DOPG   GL059269  22.120  22.460  12.490
 3118DOPG   PO459270  21.850  22.300  12.760
 3118DOPG   GL159271  21.570  22.080  13.090
 3118DOPG   GL259272  21.450  21.870  12.890
 3118DOPG   C1A59273  21.320  21.830  13.390
 3118DOPG   D2A59274  21.380  21.560  13.700
 3118DOPG   C3A59275  21.330  21.210  13.830
 3118DOPG   C4A59276  21.050  20.910  14.170
 3118DOPG   C1B59277  21.420  21.460  13.060
 3118DOPG   D2B59278  21.400  21.110  13.330
 3118DOPG   C3B59279  21.410  20.690  13.380
 3118DOPG   C4B59280  21.390  20.260  13.520
 3119DOPG   GL059281  27.650  10.740  17.810
 3119DOPG   PO459282  27.460  10.350  18.000
 3119DOPG   GL159283  27.840  10.290  18.060
 3119DOPG   GL259284  28.040  10.240  18.370
 3119DOPG   C1A59285  28.160  10.330  17.790
 3119DOPG   D2A59286  28.570  10.110  17.610
 3119DOPG   C3A59287  28.840   9.900  17.870
 3119DOPG   C4A59288  29.130   9.920  18.220
 3119DOPG   C1B59289  27.930  10.050  18.800
 3119DOPG   D2B59290  28.040  10.200  19.220
 3119DOPG   C3B59291  28.290  10.550  19.280
 3119DOPG   C4B59292  28.700  10.640  19.180
 3120DOPG   GL059293  10.900  16.430  15.890
 3120DOPG   PO459294  10.380  16.440  15.760
 3120DOPG   GL159295   9.930  16.540  15.910
 3120DOPG   GL259296   9.680  16.410  15.650
 3120DOPG   C1A59297   9.500  16.530  16.120
 3120DOPG   D2A59298   9.360  16.700  16.450
 3120DOPG   C3A59299   9.420  16.490  16.930
 3120DOPG   C4A59300   9.490  16.650  17.300
 3120DOPG   C1B59301   9.280  16.270  15.720
 3120DOPG   D2B59302   8.970  16.610  15.900
 3120DOPG   C3B59303   8.890  16.660  16.270
 3120DOPG   C4B59304   8.920  16.480  16.680
 3121DOPG   GL059305  17.580  22.680   4.040
 3121DOPG   PO459306  17.860  22.700   4.360
 3121DOPG   GL159307  17.730  22.530   4.700
 3121DOPG   GL259308  17.620  22.230   4.800
 3121DOPG   C1A59309  17.910  22.530   5.100
 3121DOPG   D2A59310  17.890  22.450   5.560
 3121DOPG   C3A59311  18.050  22.080   5.820
 3121DOPG   C4A59312  18.140  21.630   5.830
 3121DOPG   C1B59313  17.840  22.000   5.210
 3121DOPG   D2B59314  17.820  21.540   5.320
 3121DOPG   C3B59315  17.900  21.320   4.880
 3121DOPG   C4B59316  17.650  21.290   4.450
 3122DOPG   GL059317  32.410  14.860  12.560
 3122DOPG   PO459318  32.380  14.650  12.220
 3122DOPG   GL159319  32.290  14.320  12.570
 3122DOPG   GL259320  32.180  13.910  12.510
 3122DOPG   C1A59321  32.100  14.380  13.010
 3122DOPG   D2A59322  31.730  14.580  13.000
 3122DOPG   C3A59323  31.400  14.490  13.320
 3122DOPG   C4A59324  31.060  14.440  13.650
 3122DOPG   C1B59325  31.760  14.040  12.450
 3122DOPG   D2B59326  31.290  13.850  12.550
 3122DOPG   C3B59327  30.950  14.080  12.700
 3122DOPG   C4B59328  31.040  14.110  13.220
 3123DOPG   GL059329   9.820  14.910  15.620
 3123DOPG   PO459330   9.720  15.000  15.210
 3123DOPG   GL159331   9.270  14.950  15.330
 3123DOPG   GL259332   9.290  15.110  15.660
 3123DOPG   C1A59333   8.810  14.860  15.530
 3123DOPG   D2A59334   8.560  14.760  15.770
 3123DOPG   C3A59335   8.150  14.640  15.560
 3123DOPG   C4A59336   7.940  14.770  15.250
 3123DOPG   C1B59337   8.920  15.350  15.660
 3123DOPG   D2B59338   8.600  15.440  15.760
 3123DOPG   C3B59339   8.320  15.180  15.570
 3123DOPG   C4B59340   8.150  15.350  15.140
 3124DOPG   GL059341  28.310  22.560   9.650
 3124DOPG   PO459342  28.320  22.110   9.920
 3124DOPG   GL159343  27.950  22.010  10.060
 3124DOPG   GL259344  27.880  22.280  10.240
 3124DOPG   C1A59345  27.470  22.090  10.100
 3124DOPG   D2A59346  27.150  21.880  10.310
 3124DOPG   C3A59347  27.210  21.480  10.370
 3124DOPG   C4A59348  27.250  21.110  10.630
 3124DOPG   C1B59349  28.040  21.970  10.560
 3124DOPG   D2B59350  27.970  21.720  10.850
 3124DOPG   C3B59351  28.330  21.390  11.020
 3124DOPG   C4B59352  28.720  21.370  11.020
 3125DOPG   GL059353  25.280  14.150  18.280
 3125DOPG   PO459354  25.160  14.430  18.130
 3125DOPG   GL159355  25.040  14.550  17.760
 3125DOPG   GL259356  24.760  14.370  17.660
 3125DOPG   C1A59357  25.020  14.460  17.270
 3125DOPG   D2A59358  24.570  14.550  17.230
 3125DOPG   C3A59359  24.390  14.710  16.890
 3125DOPG   C4A59360  24.020  14.690  16.700
 3125DOPG   C1B59361  24.680  14.060  17.380
 3125DOPG   D2B59362  24.470  13.760  17.300
 3125DOPG   C3B59363  24.400  13.710  16.820
 3125DOPG   C4B59364  24.040  13.780  16.640
 3126DOPG   GL059365  14.770  10.770  13.370
 3126DOPG   PO459366  14.640  10.760  13.040
 3126DOPG   GL159367  15.180  10.860  12.960
 3126DOPG   GL259368  15.260  11.080  12.740
 3126DOPG   C1A59369  15.570  10.920  13.180
 3126DOPG   D2A59370  15.900  11.210  13.290
 3126DOPG   C3A59371  16.170  11.520  13.320
 3126DOPG   C4A59372  16.430  11.840  13.280
 3126DOPG   C1B59373  14.970  11.350  13.010
 3126DOPG   D2B59374  14.690  11.810  13.190
 3126DOPG   C3B59375  14.880  12.200  13.030
 3126DOPG   C4B59376  15.130  12.580  12.960
 3127DOPG   GL059377  27.370  11.080  13.750
 3127DOPG   PO459378  27.610  10.720  13.680
 3127DOPG   GL159379  27.100  10.800  13.480
 3127DOPG   GL259380  27.120  11.080  13.260
 3127DOPG   C1A59381  26.750  11.020  13.560
 3127DOPG   D2A59382  26.410  11.020  13.470
 3127DOPG   C3A59383  26.270  10.760  13.290
 3127DOPG   C4A59384  25.930  10.650  13.300
 3127DOPG   C1B59385  26.780  11.390  13.250
 3127DOPG   D2B59386  26.340  11.490  13.500
 3127DOPG   C3B59387  26.070  11.820  13.400
 3127DOPG   C4B59388  25.670  12.000  13.250
 3128DOPG   GL059389  26.800  18.040  12.500
 3128DOPG   PO459390  26.630  17.700  12.860
 3128DOPG   GL159391  26.440  17.360  13.000
 3128DOPG   GL259392  26.450  17.100  12.770
 3128DOPG   C1A59393  26.420  17.010  13.240
 3128DOPG   D2A59394  26.560  16.650  12.990
 3128DOPG   C3A59395  26.510  16.350  13.290
 3128DOPG   C4A59396  26.280  15.970  13.210
 3128DOPG   C1B59397  26.060  17.000  12.870
 3128DOPG   D2B59398  25.620  16.870  13.050
 3128DOPG   C3B59399  25.430  17.340  13.040
 3128DOPG   C4B59400  25.370  17.730  13.370
 3129DOPG   GL059401  11.220   6.030  19.460
 3129DOPG   PO459402  11.050   6.030  19.850
 3129DOPG   GL159403  11.370   6.360  19.760
 3129DOPG   GL259404  11.640   6.170  19.760
 3129DOPG   C1A59405  11.550   6.630  19.340
 3129DOPG   D2A59406  11.710   7.010  19.080
 3129DOPG   C3A59407  11.880   6.840  18.820
 3129DOPG   C4A59408  12.210   6.940  18.620
 3129DOPG   C1B59409  11.850   6.160  19.360
 3129DOPG   D2B59410  11.930   6.370  19.010
 3129DOPG   C3B59411  12.330   6.460  18.990
 3129DOPG   C4B59412  12.720   6.210  18.930
 3130DOPG   GL059413  28.100   5.170  20.210
 3130DOPG   PO459414  27.780   5.490  19.960
 3130DOPG   GL159415  27.460   5.570  19.610
 3130DOPG   GL259416  27.710   5.620  19.380
 3130DOPG   C1A59417  27.170   5.800  19.350
 3130DOPG   D2A59418  27.250   5.950  19.010
 3130DOPG   C3A59419  27.720   5.810  18.920
 3130DOPG   C4A59420  28.020   5.890  18.820
 3130DOPG   C1B59421  27.820   6.150  19.370
 3130DOPG   D2B59422  27.660   6.540  19.360
 3130DOPG   C3B59423  27.520   6.730  19.100
 3130DOPG   C4B59424  27.390   7.130  18.790
 3131DOPG   GL059425  23.420  18.210   9.900
 3131DOPG   PO459426  23.850  17.960  10.010
 3131DOPG   GL159427  23.530  17.730  10.110
 3131DOPG   GL259428  23.210  17.790  10.000
 3131DOPG   C1A59429  23.320  17.430  10.360
 3131DOPG   D2A59430  23.000  17.280  10.660
 3131DOPG   C3A59431  23.140  16.910  10.930
 3131DOPG   C4A59432  23.250  16.710  11.220
 3131DOPG   C1B59433  22.890  17.710  10.270
 3131DOPG   D2B59434  22.450  17.560  10.390
 3131DOPG   C3B59435  22.280  17.760  10.720
 3131DOPG   C4B59436  22.070  17.640  11.240
 3132DOPG   GL059437  29.910   5.940  17.730
 3132DOPG   PO459438  29.670   6.260  17.640
 3132DOPG   GL159439  29.610   6.590  17.330
 3132DOPG   GL259440  29.850   6.520  16.990
 3132DOPG   C1A59441  29.220   6.920  17.200
 3132DOPG   D2A59442  29.100   7.390  17.170
 3132DOPG   C3A59443  28.880   7.580  17.410
 3132DOPG   C4A59444  28.770   7.980  17.490
 3132DOPG   C1B59445  29.510   6.530  16.720
 3132DOPG   D2B59446  29.430   6.890  16.670
 3132DOPG   C3B59447  29.120   7.140  16.620
 3132DOPG   C4B59448  28.590   7.130  16.700
 3133DOPG   GL059449  14.210   3.650  20.950
 3133DOPG   PO459450  14.280   4.010  20.710
 3133DOPG   GL159451  14.700   4.110  20.690
 3133DOPG   GL259452  14.690   4.410  20.770
 3133DOPG   C1A59453  15.000   4.170  20.440
 3133DOPG   D2A59454  15.370   4.230  20.220
 3133DOPG   C3A59455  15.670   4.070  20.410
 3133DOPG   C4A59456  16.020   3.780  20.340
 3133DOPG   C1B59457  15.070   4.620  20.710
 3133DOPG   D2B59458  15.070   4.970  20.490
 3133DOPG   C3B59459  15.190   4.930  19.950
 3133DOPG   C4B59460  15.370   4.980  19.520
 3134DOPG   GL059461  23.730  20.910  13.330
 3134DOPG   PO459462  24.140  20.800  13.150
 3134DOPG   GL159463  23.880  20.440  13.260
 3134DOPG   GL259464  23.890  20.110  13.130
 3134DOPG   C1A59465  23.450  20.350  13.270
 3134DOPG   D2A59466  23.080  20.360  13.120
 3134DOPG   C3A59467  22.950  19.880  12.890
 3134DOPG   C4A59468  22.770  19.430  12.970
 3134DOPG   C1B59469  23.460  19.830  13.010
 3134DOPG   D2B59470  23.190  19.540  13.180
 3134DOPG   C3B59471  23.260  19.510  13.570
 3134DOPG   C4B59472  23.610  19.480  13.790
 3135DOPG   GL059473  18.250   1.960  10.360
 3135DOPG   PO459474  18.660   2.280  10.290
 3135DOPG   GL159475  18.590   2.620  10.420
 3135DOPG   GL259476  18.860   2.810  10.660
 3135DOPG   C1A59477  18.290   2.980  10.630
 3135DOPG   D2A59478  17.870   2.980  10.820
 3135DOPG   C3A59479  17.850   2.860  11.230
 3135DOPG   C4A59480  17.700   2.550  11.490
 3135DOPG   C1B59481  18.780   3.240  10.950
 3135DOPG   D2B59482  18.710   3.550  11.290
 3135DOPG   C3B59483  18.650   3.940  11.280
 3135DOPG   C4B59484  18.740   4.380  11.050
 3136DOPG   GL059485  12.680   4.850   8.690
 3136DOPG   PO459486  13.000   5.050   8.810
 3136DOPG   GL159487  13.210   5.310   9.090
 3136DOPG   GL259488  13.220   5.330   9.390
 3136DOPG   C1A59489  13.670   5.470   9.200
 3136DOPG   D2A59490  14.090   5.240   9.250
 3136DOPG   C3A59491  14.470   5.330   9.510
 3136DOPG   C4A59492  14.690   5.490   9.830
 3136DOPG   C1B59493  13.420   5.600   9.640
 3136DOPG   D2B59494  13.300   5.690  10.040
 3136DOPG   C3B59495  13.290   6.020  10.150
 3136DOPG   C4B59496  12.910   6.310   9.960
 3137DOPG   GL059497  31.550  15.030  10.010
 3137DOPG   PO459498  31.790  14.980  10.290
 3137DOPG   GL159499  31.390  15.110  10.560
 3137DOPG   GL259500  31.190  15.010  10.380
 3137DOPG   C1A59501  31.330  14.780  10.910
 3137DOPG   D2A59502  31.110  14.550  11.220
 3137DOPG   C3A59503  30.960  14.950  11.420
 3137DOPG   C4A59504  30.830  15.160  11.830
 3137DOPG   C1B59505  30.780  14.840  10.400
 3137DOPG   D2B59506  30.330  15.040  10.410
 3137DOPG   C3B59507  29.930  14.980  10.060
 3137DOPG   C4B59508  29.440  15.110  10.080
 3138DOPG   GL059509  23.570  11.680   8.390
 3138DOPG   PO459510  23.470  11.440   7.980
 3138DOPG   GL159511  23.780  11.410   7.610
 3138DOPG   GL259512  23.990  11.120   7.550
 3138DOPG   C1A59513  23.740  11.590   7.230
 3138DOPG   D2A59514  23.690  11.430   6.870
 3138DOPG   C3A59515  23.880  11.460   6.490
 3138DOPG   C4A59516  23.820  11.530   6.060
 3138DOPG   C1B59517  24.360  11.000   7.340
 3138DOPG   D2B59518  24.660  10.980   7.030
 3138DOPG   C3B59519  24.700  10.650   6.690
 3138DOPG   C4B59520  24.700  10.640   6.350
 3139DOPG   GL059521  25.890  13.280   9.500
 3139DOPG   PO459522  25.760  13.550   9.790
 3139DOPG   GL159523  25.360  13.690  10.040
 3139DOPG   GL259524  25.020  13.720   9.990
 3139DOPG   C1A59525  25.150  13.660  10.430
 3139DOPG   D2A59526  25.060  13.320  10.670
 3139DOPG   C3A59527  24.730  13.450  11.110
 3139DOPG   C4A59528  24.320  13.560  11.470
 3139DOPG   C1B59529  24.580  13.860  10.080
 3139DOPG   D2B59530  24.380  13.990  10.320
 3139DOPG   C3B59531  24.460  13.750  10.690
 3139DOPG   C4B59532  24.580  13.870  11.190
 3140DOPG   GL059533  13.270  18.700  10.190
 3140DOPG   PO459534  13.150  18.700  10.630
 3140DOPG   GL159535  13.600  18.540  10.650
 3140DOPG   GL259536  13.620  18.890  10.790
 3140DOPG   C1A59537  13.920  18.420  10.840
 3140DOPG   D2A59538  14.250  18.060  11.040
 3140DOPG   C3A59539  14.060  17.700  10.940
 3140DOPG   C4A59540  14.230  17.320  10.650
 3140DOPG   C1B59541  13.790  18.780  11.170
 3140DOPG   D2B59542  13.620  18.630  11.580
 3140DOPG   C3B59543  13.440  18.260  11.590
 3140DOPG   C4B59544  13.510  17.810  11.570
 3141DOPG   GL059545  17.560  19.720   8.900
 3141DOPG   PO459546  17.350  19.400   8.600
 3141DOPG   GL159547  17.440  19.250   9.020
 3141DOPG   GL259548  17.150  19.270   9.150
 3141DOPG   C1A59549  17.510  18.840   9.060
 3141DOPG   D2A59550  17.090  18.620   9.100
 3141DOPG   C3A59551  17.140  18.330   9.330
 3141DOPG   C4A59552  16.980  18.030   9.560
 3141DOPG   C1B59553  17.300  19.040   9.490
 3141DOPG   D2B59554  17.570  18.600   9.480
 3141DOPG   C3B59555  17.410  18.290   9.790
 3141DOPG   C4B59556  17.130  18.130  10.040
 3142DOPG   GL059557  10.590  23.650   8.540
 3142DOPG   PO459558  10.660  23.440   8.880
 3142DOPG   GL159559  10.910  23.140   9.300
 3142DOPG   GL259560  11.020  23.270   9.600
 3142DOPG   C1A59561  11.210  22.880   9.180
 3142DOPG   D2A59562  11.620  22.700   9.370
 3142DOPG   C3A59563  11.760  22.300   9.340
 3142DOPG   C4A59564  11.970  22.020   9.450
 3142DOPG   C1B59565  11.170  22.870   9.820
 3142DOPG   D2B59566  11.160  22.480   9.920
 3142DOPG   C3B59567  11.440  22.270   9.680
 3142DOPG   C4B59568  11.810  22.050   9.940
 3143DOPG   GL059569  27.070  12.010  10.170
 3143DOPG   PO459570  27.480  11.920  10.050
 3143DOPG   GL159571  27.590  11.670   9.750
 3143DOPG   GL259572  27.770  11.830   9.710
 3143DOPG   C1A59573  27.770  11.330   9.560
 3143DOPG   D2A59574  28.180  11.410   9.530
 3143DOPG   C3A59575  28.530  11.680   9.640
 3143DOPG   C4A59576  28.620  12.170   9.760
 3143DOPG   C1B59577  28.080  11.840   9.370
 3143DOPG   D2B59578  28.450  12.010   9.280
 3143DOPG   C3B59579  28.450  12.310   8.940
 3143DOPG   C4B59580  28.530  12.530   8.600
 3144DOPG   GL059581  20.100  15.690   7.880
 3144DOPG   PO459582  20.320  15.860   8.070
 3144DOPG   GL159583  20.460  15.750   8.500
 3144DOPG   GL259584  20.550  15.440   8.600
 3144DOPG   C1A59585  20.600  16.060   8.770
 3144DOPG   D2A59586  20.570  16.180   9.140
 3144DOPG   C3A59587  20.480  15.850   9.490
 3144DOPG   C4A59588  20.540  15.540   9.770
 3144DOPG   C1B59589  20.650  15.590   9.070
 3144DOPG   D2B59590  21.000  15.870   9.370
 3144DOPG   C3B59591  21.070  15.940   9.840
 3144DOPG   C4B59592  20.720  15.880  10.150
 3145DOPG   GL059593  14.980  10.150  13.920
 3145DOPG   PO459594  15.360  10.010  14.040
 3145DOPG   GL159595  15.540  10.260  13.850
 3145DOPG   GL259596  15.850  10.160  13.920
 3145DOPG   C1A59597  15.780  10.400  13.420
 3145DOPG   D2A59598  16.080  10.700  13.430
 3145DOPG   C3A59599  16.060  10.990  13.670
 3145DOPG   C4A59600  16.210  11.230  13.790
 3145DOPG   C1B59601  15.890  10.240  14.260
 3145DOPG   D2B59602  15.820  10.430  14.670
 3145DOPG   C3B59603  15.880  10.850  14.570
 3145DOPG   C4B59604  15.980  11.010  14.200
 3146DOPG   GL059605   7.970  12.100   8.570
 3146DOPG   PO459606   8.340  12.190   8.340
 3146DOPG   GL159607   8.650  12.360   8.610
 3146DOPG   GL259608   8.830  12.430   8.320
 3146DOPG   C1A59609   8.890  12.570   8.820
 3146DOPG   D2A59610   9.260  12.500   9.040
 3146DOPG   C3A59611   9.590  12.150   9.130
 3146DOPG   C4A59612   9.780  11.970   8.980
 3146DOPG   C1B59613   9.220  12.170   8.580
 3146DOPG   D2B59614   9.700  12.120   8.480
 3146DOPG   C3B59615   9.970  12.290   8.700
 3146DOPG   C4B59616  10.420  12.300   8.800
 3147DOPG   GL059617  17.540  13.020   8.460
 3147DOPG   PO459618  17.880  12.810   8.490
 3147DOPG   GL159619  17.690  12.730   8.860
 3147DOPG   GL259620  17.290  12.620   8.790
 3147DOPG   C1A59621  17.680  12.540   9.210
 3147DOPG   D2A59622  17.610  12.530   9.640
 3147DOPG   C3A59623  17.680  12.860   9.930
 3147DOPG   C4A59624  17.410  13.070  10.220
 3147DOPG   C1B59625  17.330  13.020   9.010
 3147DOPG   D2B59626  17.050  13.350   9.090
 3147DOPG   C3B59627  17.300  13.770   8.990
 3147DOPG   C4B59628  17.550  14.080   9.070
 3148DOPG   GL059629  12.520  23.930  19.110
 3148DOPG   PO459630  12.550  23.920  18.710
 3148DOPG   GL159631  12.730  23.570  18.470
 3148DOPG   GL259632  13.110  23.790  18.360
 3148DOPG   C1A59633  12.960  23.080  18.430
 3148DOPG   D2A59634  13.140  22.850  18.130
 3148DOPG   C3A59635  13.130  22.440  18.090
 3148DOPG   C4A59636  13.090  21.990  17.950
 3148DOPG   C1B59637  13.300  23.540  18.610
 3148DOPG   D2B59638  13.290  23.200  18.790
 3148DOPG   C3B59639  13.600  23.110  19.070
 3148DOPG   C4B59640  13.900  23.330  19.170
 3149DOPG   GL059641  14.080   2.940  18.400
 3149DOPG   PO459642  14.270   2.490  18.300
 3149DOPG   GL159643  14.680   2.670  18.200
 3149DOPG   GL259644  14.770   2.660  17.890
 3149DOPG   C1A59645  14.830   3.120  18.030
 3149DOPG   D2A59646  15.220   3.360  17.760
 3149DOPG   C3A59647  15.400   3.510  17.370
 3149DOPG   C4A59648  15.510   3.810  17.180
 3149DOPG   C1B59649  14.830   2.890  17.540
 3149DOPG   D2B59650  15.110   3.110  17.270
 3149DOPG   C3B59651  15.080   3.470  16.990
 3149DOPG   C4B59652  14.870   3.800  16.770
 3150DOPG   GL059653   9.680   7.170   8.530
 3150DOPG   PO459654   9.740   7.720   8.590
 3150DOPG   GL159655   9.920   8.040   8.770
 3150DOPG   GL259656  10.190   7.770   8.780
 3150DOPG   C1A59657  10.210   8.240   9.000
 3150DOPG   D2A59658  10.620   8.470   8.990
 3150DOPG   C3A59659  10.790   8.650   9.340
 3150DOPG   C4A59660  11.150   8.790   9.570
 3150DOPG   C1B59661  10.530   7.660   9.190
 3150DOPG   D2B59662  10.660   7.760   9.600
 3150DOPG   C3B59663  10.990   7.900   9.690
 3150DOPG   C4B59664  11.280   8.270   9.700
 3151DOPG   GL059665  16.840   4.470  14.440
 3151DOPG   PO459666  17.030   4.600  14.060
 3151DOPG   GL159667  16.910   4.250  13.890
 3151DOPG   GL259668  17.020   4.310  13.630
 3151DOPG   C1A59669  16.630   4.040  14.120
 3151DOPG   D2A59670  16.530   3.720  14.310
 3151DOPG   C3A59671  16.800   3.320  14.290
 3151DOPG   C4A59672  16.760   2.940  14.390
 3151DOPG   C1B59673  16.980   3.990  13.350
 3151DOPG   D2B59674  17.070   3.700  13.100
 3151DOPG   C3B59675  17.490   3.530  13.040
 3151DOPG   C4B59676  17.730   3.140  12.730
 3152DOPG   GL059677  25.460  10.210  10.770
 3152DOPG   PO459678  25.650  10.490  10.780
 3152DOPG   GL159679  25.400  10.690  11.140
 3152DOPG   GL259680  25.410  10.940  11.140
 3152DOPG   C1A59681  25.200  10.500  11.470
 3152DOPG   D2A59682  25.340  10.240  11.830
 3152DOPG   C3A59683  25.220  10.330  12.250
 3152DOPG   C4A59684  25.500  10.280  12.600
 3152DOPG   C1B59685  25.200  11.110  11.310
 3152DOPG   D2B59686  25.000  10.980  11.530
 3152DOPG   C3B59687  24.910  11.130  11.930
 3152DOPG   C4B59688  24.850  11.510  12.120
 3153DOPG   GL059689  22.190  17.440  18.550
 3153DOPG   PO459690  22.240  17.000  18.680
 3153DOPG   GL159691  22.070  16.920  18.330
 3153DOPG   GL259692  21.950  16.680  18.120
 3153DOPG   C1A59693  21.840  17.190  18.090
 3153DOPG   D2A59694  21.780  17.600  17.830
 3153DOPG   C3A59695  21.590  17.550  17.430
 3153DOPG   C4A59696  21.570  17.600  17.000
 3153DOPG   C1B59697  21.880  16.850  17.710
 3153DOPG   D2B59698  21.990  17.220  17.460
 3153DOPG   C3B59699  21.830  17.090  17.070
 3153DOPG   C4B59700  21.500  16.750  16.890
 3154DOPG   GL059701  17.620   8.580  15.570
 3154DOPG   PO459702  17.470   8.800  15.890
 3154DOPG   GL159703  17.620   9.200  15.690
 3154DOPG   GL259704  17.960   9.090  15.640
 3154DOPG   C1A59705  17.840   9.590  15.620
 3154DOPG   D2A59706  17.930   9.970  15.880
 3154DOPG   C3A59707  18.070  10.240  15.720
 3154DOPG   C4A59708  18.140  10.680  15.530
 3154DOPG   C1B59709  18.280   9.400  15.410
 3154DOPG   D2B59710  18.700   9.580  15.260
 3154DOPG   C3B59711  18.910   9.980  15.290
 3154DOPG   C4B59712  19.310  10.030  15.360
 3155DOPG   GL059713  19.380   7.230   5.350
 3155DOPG   PO459714  19.910   7.450   5.240
 3155DOPG   GL159715  19.700   7.580   5.580
 3155DOPG   GL259716  19.560   7.320   5.770
 3155DOPG   C1A59717  19.400   7.850   5.680
 3155DOPG   D2A59718  19.050   7.990   5.860
 3155DOPG   C3A59719  18.740   8.380   5.760
 3155DOPG   C4A59720  18.520   8.700   5.830
 3155DOPG   C1B59721  19.820   7.660   6.060
 3155DOPG   D2B59722  20.030   7.600   6.470
 3155DOPG   C3B59723  20.050   7.950   6.680
 3155DOPG   C4B59724  19.850   7.860   6.990
 3156DOPG   GL059725   9.790   4.830  14.480
 3156DOPG   PO459726  10.120   4.760  14.320
 3156DOPG   GL159727  10.300   5.030  14.560
 3156DOPG   GL259728  10.490   4.820  14.730
 3156DOPG   C1A59729  10.440   5.250  14.930
 3156DOPG   D2A59730  10.870   5.370  14.890
 3156DOPG   C3A59731  11.100   5.810  14.670
 3156DOPG   C4A59732  11.280   6.100  14.300
 3156DOPG   C1B59733  10.900   5.060  14.520
 3156DOPG   D2B59734  11.350   5.160  14.570
 3156DOPG   C3B59735  11.540   5.380  14.920
 3156DOPG   C4B59736  11.770   5.270  15.340
 3157DOPG   GL059737  26.190   2.900  17.530
 3157DOPG   PO459738  26.220   3.060  17.890
 3157DOPG   GL159739  25.940   3.320  18.110
 3157DOPG   GL259740  26.040   3.380  18.440
 3157DOPG   C1A59741  25.810   3.680  17.990
 3157DOPG   D2A59742  25.520   3.910  18.140
 3157DOPG   C3A59743  25.190   3.870  17.980
 3157DOPG   C4A59744  24.710   3.940  17.840
 3157DOPG   C1B59745  25.840   3.710  18.550
 3157DOPG   D2B59746  25.840   4.160  18.770
 3157DOPG   C3B59747  25.560   4.600  18.710
 3157DOPG   C4B59748  25.750   4.990  18.620
 3158DOPG   GL059749  20.600  16.060   7.680
 3158DOPG   PO459750  20.350  16.530   7.790
 3158DOPG   GL159751  20.290  16.510   8.220
 3158DOPG   GL259752  20.560  16.730   8.240
 3158DOPG   C1A59753  19.910  16.600   8.420
 3158DOPG   D2A59754  19.790  16.460   8.830
 3158DOPG   C3A59755  19.620  16.000   8.890
 3158DOPG   C4A59756  19.530  15.700   9.160
 3158DOPG   C1B59757  20.560  16.890   8.600
 3158DOPG   D2B59758  20.750  17.090   8.860
 3158DOPG   C3B59759  21.230  17.010   9.020
 3158DOPG   C4B59760  21.360  16.830   9.380
 3159DOPG   GL059761  25.440  15.940   9.550
 3159DOPG   PO459762  25.160  16.240   9.710
 3159DOPG   GL159763  24.820  16.020   9.880
 3159DOPG   GL259764  24.610  15.760   9.700
 3159DOPG   C1A59765  24.630  15.960  10.280
 3159DOPG   D2A59766  24.680  15.890  10.710
 3159DOPG   C3A59767  24.390  15.620  11.010
 3159DOPG   C4A59768  24.020  15.660  11.280
 3159DOPG   C1B59769  24.320  15.340   9.600
 3159DOPG   D2B59770  24.550  14.920   9.470
 3159DOPG   C3B59771  24.400  14.600   9.730
 3159DOPG   C4B59772  24.220  14.220   9.890
 3160DOPG   GL059773  15.190  10.900   3.930
 3160DOPG   PO459774  15.270  11.210   4.160
 3160DOPG   GL159775  15.270  11.210   4.580
 3160DOPG   GL259776  15.540  11.130   4.680
 3160DOPG   C1A59777  15.120  11.270   5.010
 3160DOPG   D2A59778  15.070  11.620   5.380
 3160DOPG   C3A59779  15.450  11.610   5.580
 3160DOPG   C4A59780  15.700  11.450   5.790
 3160DOPG   C1B59781  15.560  11.080   5.060
 3160DOPG   D2B59782  15.510  11.050   5.400
 3160DOPG   C3B59783  15.210  11.120   5.610
 3160DOPG   C4B59784  15.140  11.430   5.930
 3161DOPG   GL059785  15.550  10.500  16.390
 3161DOPG   PO459786  15.920  10.610  16.500
 3161DOPG   GL159787  16.350  10.850  16.340
 3161DOPG   GL259788  16.320  11.190  16.270
 3161DOPG   C1A59789  16.720  10.860  16.130
 3161DOPG   D2A59790  17.130  11.060  16.050
 3161DOPG   C3A59791  17.060  11.550  15.990
 3161DOPG   C4A59792  16.900  11.870  15.680
 3161DOPG   C1B59793  16.330  11.710  16.260
 3161DOPG   D2B59794  16.240  12.000  16.510
 3161DOPG   C3B59795  16.420  12.160  16.780
 3161DOPG   C4B59796  16.830  12.340  16.730
 3162DOPG   GL059797  16.430  21.180  16.710
 3162DOPG   PO459798  16.740  20.810  16.780
 3162DOPG   GL159799  16.800  20.620  16.460
 3162DOPG   GL259800  16.540  20.390  16.520
 3162DOPG   C1A59801  16.730  20.580  15.980
 3162DOPG   D2A59802  16.800  20.540  15.470
 3162DOPG   C3A59803  16.650  20.260  15.220
 3162DOPG   C4A59804  16.620  19.890  14.850
 3162DOPG   C1B59805  16.660  19.990  16.340
 3162DOPG   D2B59806  16.940  19.960  16.080
 3162DOPG   C3B59807  17.330  19.810  16.020
 3162DOPG   C4B59808  17.620  19.550  16.210
 3163DOPG   GL059809  14.520   2.210  14.600
 3163DOPG   PO459810  14.460   2.050  14.180
 3163DOPG   GL159811  14.770   2.280  14.050
 3163DOPG   GL259812  14.730   2.550  14.320
 3163DOPG   C1A59813  15.040   2.510  13.900
 3163DOPG   D2A59814  15.430   2.690  13.950
 3163DOPG   C3A59815  15.770   2.470  14.310
 3163DOPG   C4A59816  15.970   2.200  14.570
 3163DOPG   C1B59817  14.780   2.950  14.250
 3163DOPG   D2B59818  14.760   3.360  14.440
 3163DOPG   C3B59819  14.420   3.640  14.640
 3163DOPG   C4B59820  14.180   3.860  14.490
 3164DOPG   GL059821   8.640   8.320  17.470
 3164DOPG   PO459822   8.640   7.830  17.650
 3164DOPG   GL159823   9.120   7.890  17.500
 3164DOPG   GL259824   9.160   7.970  17.230
 3164DOPG   C1A59825   9.490   7.970  17.720
 3164DOPG   D2A59826   9.710   8.360  17.900
 3164DOPG   C3A59827  10.180   8.420  17.730
 3164DOPG   C4A59828  10.600   8.580  17.960
 3164DOPG   C1B59829   9.500   8.330  17.280
 3164DOPG   D2B59830   9.940   8.420  17.280
 3164DOPG   C3B59831  10.120   8.010  17.350
 3164DOPG   C4B59832  10.550   8.150  17.510
 3165DOPG   GL059833  18.700   4.020  21.940
 3165DOPG   PO459834  19.130   3.920  21.770
 3165DOPG   GL159835  19.360   4.260  21.650
 3165DOPG   GL259836  19.410   4.180  21.350
 3165DOPG   C1A59837  19.560   4.630  21.420
 3165DOPG   D2A59838  19.270   4.850  21.230
 3165DOPG   C3A59839  18.930   5.120  21.300
 3165DOPG   C4A59840  18.700   5.400  21.460
 3165DOPG   C1B59841  19.290   4.350  20.950
 3165DOPG   D2B59842  19.170   4.680  20.680
 3165DOPG   C3B59843  18.870   4.610  20.560
 3165DOPG   C4B59844  18.460   4.600  20.420
 3166DOPG   GL059845  22.260   8.200  17.900
 3166DOPG   PO459846  22.760   8.190  17.850
 3166DOPG   GL159847  22.580   8.130  17.430
 3166DOPG   GL259848  22.650   8.250  17.150
 3166DOPG   C1A59849  22.200   7.900  17.160
 3166DOPG   D2A59850  21.950   7.830  16.820
 3166DOPG   C3A59851  21.890   8.230  16.520
 3166DOPG   C4A59852  21.650   8.540  16.440
 3166DOPG   C1B59853  22.560   8.070  16.800
 3166DOPG   D2B59854  22.440   8.320  16.490
 3166DOPG   C3B59855  22.440   8.710  16.310
 3166DOPG   C4B59856  22.390   8.840  15.890
 3167DOPG   GL059857  10.910   9.050  21.360
 3167DOPG   PO459858  10.980   9.330  21.750
 3167DOPG   GL159859  11.400   9.250  21.590
 3167DOPG   GL259860  11.490   9.570  21.320
 3167DOPG   C1A59861  11.440   9.120  21.170
 3167DOPG   D2A59862  11.360   8.880  20.810
 3167DOPG   C3A59863  11.750   8.750  20.620
 3167DOPG   C4A59864  12.140   8.700  20.370
 3167DOPG   C1B59865  11.660   9.480  20.950
 3167DOPG   D2B59866  12.020   9.150  20.920
 3167DOPG   C3B59867  12.230   8.760  20.870
 3167DOPG   C4B59868  12.430   8.360  20.760
 3168DOPG   GL059869  15.830  10.240  11.690
 3168DOPG   PO459870  15.780   9.870  11.390
 3168DOPG   GL159871  16.170  10.120  11.360
 3168DOPG   GL259872  16.040  10.460  11.290
 3168DOPG   C1A59873  16.560  10.480  11.260
 3168DOPG   D2A59874  16.720  10.810  11.290
 3168DOPG   C3A59875  17.060  10.850  11.480
 3168DOPG   C4A59876  17.520  10.880  11.390
 3168DOPG   C1B59877  16.070  10.700  11.650
 3168DOPG   D2B59878  16.400  10.810  11.930
 3168DOPG   C3B59879  16.680  11.140  11.720
 3168DOPG   C4B59880  17.050  11.320  11.680
 3169DOPG   GL059881  16.410  21.350  16.080
 3169DOPG   PO459882  16.460  21.420  15.710
 3169DOPG   GL159883  16.770  21.320  15.510
 3169DOPG   GL259884  16.940  21.460  15.340
 3169DOPG   C1A59885  16.770  20.990  15.260
 3169DOPG   D2A59886  16.890  20.870  14.910
 3169DOPG   C3A59887  17.210  20.510  15.110
 3169DOPG   C4A59888  17.090  20.070  15.160
 3169DOPG   C1B59889  17.210  21.400  14.930
 3169DOPG   D2B59890  17.640  21.390  15.030
 3169DOPG   C3B59891  17.800  21.090  14.790
 3169DOPG   C4B59892  17.790  20.820  14.400
 3170DOPG   GL059893  21.080  27.320  11.510
 3170DOPG   PO459894  20.750  27.290  11.800
 3170DOPG   GL159895  20.520  26.980  11.830
 3170DOPG   GL259896  20.350  26.850  11.530
 3170DOPG   C1A59897  20.270  26.620  12.010
 3170DOPG   D2A59898  20.090  26.180  12.130
 3170DOPG   C3A59899  20.010  25.870  11.840
 3170DOPG   C4A59900  20.210  25.540  11.680
 3170DOPG   C1B59901  20.700  26.520  11.640
 3170DOPG   D2B59902  21.050  26.380  11.880
 3170DOPG   C3B59903  21.200  25.930  11.930
 3170DOPG   C4B59904  21.190  25.470  11.720
 3171DOPG   GL059905  19.420  10.640   8.590
 3171DOPG   PO459906  19.530  10.880   8.890
 3171DOPG   GL159907  19.520  11.230   9.200
 3171DOPG   GL259908  19.260  11.420   9.270
 3171DOPG   C1A59909  19.480  11.170   9.670
 3171DOPG   D2A59910  19.310  11.320   9.920
 3171DOPG   C3A59911  19.390  11.270  10.300
 3171DOPG   C4A59912  19.540  11.570  10.480
 3171DOPG   C1B59913  19.480  11.670   9.560
 3171DOPG   D2B59914  19.460  11.810   9.980
 3171DOPG   C3B59915  19.170  11.870  10.290
 3171DOPG   C4B59916  18.940  12.210  10.570
 3172DOPG   GL059917  26.360  10.690  12.730
 3172DOPG   PO459918  26.350  10.190  12.720
 3172DOPG   GL159919  25.940  10.270  12.870
 3172DOPG   GL259920  25.930   9.900  12.780
 3172DOPG   C1A59921  25.590  10.390  13.050
 3172DOPG   D2A59922  25.240  10.140  13.220
 3172DOPG   C3A59923  25.010  10.300  13.530
 3172DOPG   C4A59924  24.580  10.400  13.660
 3172DOPG   C1B59925  25.520   9.740  12.930
 3172DOPG   D2B59926  25.060   9.700  12.910
 3172DOPG   C3B59927  24.830   9.740  13.240
 3172DOPG   C4B59928  24.450   9.680  13.310
 3173DOPG   GL059929   7.680  11.790   9.020
 3173DOPG   PO459930   8.080  11.740   9.020
 3173DOPG   GL159931   8.480  11.650   9.190
 3173DOPG   GL259932   8.690  11.340   9.230
 3173DOPG   C1A59933   8.760  11.910   9.530
 3173DOPG   D2A59934   8.820  12.140   9.820
 3173DOPG   C3A59935   9.210  12.170  10.020
 3173DOPG   C4A59936   9.640  11.890  10.180
 3173DOPG   C1B59937   9.040  11.370   9.480
 3173DOPG   D2B59938   9.350  11.270   9.690
 3173DOPG   C3B59939   9.470  11.300  10.030
 3173DOPG   C4B59940   9.520  11.470  10.430
 3174DOPG   GL059941  12.980  12.610   4.180
 3174DOPG   PO459942  13.150  12.330   4.360
 3174DOPG   GL159943  13.390  12.420   4.660
 3174DOPG   GL259944  13.510  12.110   4.870
 3174DOPG   C1A59945  13.290  12.580   5.100
 3174DOPG   D2A59946  13.250  12.620   5.520
 3174DOPG   C3A59947  13.650  12.640   5.950
 3174DOPG   C4A59948  14.170  12.610   6.090
 3174DOPG   C1B59949  13.950  12.070   5.060
 3174DOPG   D2B59950  14.230  11.720   5.000
 3174DOPG   C3B59951  14.690  11.780   4.900
 3174DOPG   C4B59952  15.130  11.840   4.920
 3175DOPG   GL059953  27.580   9.880  13.160
 3175DOPG   PO459954  27.940   9.710  13.240
 3175DOPG   GL159955  28.130   9.320  13.000
 3175DOPG   GL259956  27.980   9.100  13.090
 3175DOPG   C1A59957  28.420   9.150  13.050
 3175DOPG   D2A59958  28.810   8.920  13.000
 3175DOPG   C3A59959  28.870   8.740  13.410
 3175DOPG   C4A59960  28.820   8.330  13.720
 3175DOPG   C1B59961  28.160   8.760  12.950
 3175DOPG   D2B59962  28.400   8.360  12.730
 3175DOPG   C3B59963  28.810   8.410  12.610
 3175DOPG   C4B59964  29.170   8.620  12.530
 3176DOPG   GL059965  21.270  19.150  17.780
 3176DOPG   PO459966  21.010  18.890  18.170
 3176DOPG   GL159967  20.680  18.600  18.020
 3176DOPG   GL259968  20.520  18.350  18.160
 3176DOPG   C1A59969  20.370  18.360  17.630
 3176DOPG   D2A59970  20.390  18.170  17.230
 3176DOPG   C3A59971  20.410  18.380  16.850
 3176DOPG   C4A59972  20.350  18.500  16.420
 3176DOPG   C1B59973  20.800  17.990  17.930
 3176DOPG   D2B59974  21.040  17.640  17.890
 3176DOPG   C3B59975  21.030  17.400  17.410
 3176DOPG   C4B59976  21.100  17.190  17.090
 3177DOPG   GL059977  18.240   4.510  13.270
 3177DOPG   PO459978  18.580   4.750  13.090
 3177DOPG   GL159979  18.630   4.340  12.910
 3177DOPG   GL259980  18.650   4.270  12.600
 3177DOPG   C1A59981  18.580   3.930  12.960
 3177DOPG   D2A59982  18.630   3.570  12.840
 3177DOPG   C3A59983  18.410   3.430  12.430
 3177DOPG   C4A59984  18.200   3.360  12.050
 3177DOPG   C1B59985  18.380   3.950  12.370
 3177DOPG   D2B59986  18.160   3.960  12.100
 3177DOPG   C3B59987  17.710   3.820  11.960
 3177DOPG   C4B59988  17.340   3.860  11.850
 3178DOPG   GL059989  19.120  13.810   3.570
 3178DOPG   PO459990  18.900  13.550   3.340
 3178DOPG   GL159991  18.650  13.720   3.740
 3178DOPG   GL259992  18.460  13.540   3.800
 3178DOPG   C1A59993  18.750  14.110   3.980
 3178DOPG   D2A59994  18.880  14.530   3.960
 3178DOPG   C3A59995  18.720  14.860   3.620
 3178DOPG   C4A59996  18.580  15.280   3.760
 3178DOPG   C1B59997  18.610  13.330   4.170
 3178DOPG   D2B59998  18.780  13.090   4.520
 3178DOPG   C3B59999  19.090  13.170   4.800
 3178DOPG   C4B60000  19.470  13.320   5.020
 3179DOPG   GL060001  21.040  22.340   4.810
 3179DOPG   PO460002  21.430  22.380   4.660
 3179DOPG   GL160003  21.690  22.130   4.950
 3179DOPG   GL260004  21.920  21.850   4.720
 3179DOPG   C1A60005  21.830  21.820   5.240
 3179DOPG   D2A60006  22.120  21.430   5.410
 3179DOPG   C3A60007  21.850  21.250   5.710
 3179DOPG   C4A60008  21.580  21.540   5.620
 3179DOPG   C1B60009  21.820  21.410   4.850
 3179DOPG   D2B60010  21.980  21.020   4.920
 3179DOPG   C3B60011  21.740  20.770   4.900
 3179DOPG   C4B60012  21.410  20.840   4.910
 3180DOPG   GL060013  27.140   9.570  13.290
 3180DOPG   PO460014  27.070   9.950  13.290
 3180DOPG   GL160015  26.770  10.130  13.540
 3180DOPG   GL260016  26.500  10.100  13.810
 3180DOPG   C1A60017  26.610  10.530  13.660
 3180DOPG   D2A60018  26.320  10.870  13.950
 3180DOPG   C3A60019  25.930  11.200  13.740
 3180DOPG   C4A60020  25.510  11.030  13.550
 3180DOPG   C1B60021  26.250  10.300  14.040
 3180DOPG   D2B60022  26.010  10.560  14.230
 3180DOPG   C3B60023  25.650  10.710  14.520
 3180DOPG   C4B60024  25.320  10.970  14.640
 3181DOPG   GL060025  17.060   1.430  17.500
 3181DOPG   PO460026  17.440   1.810  17.610
 3181DOPG   GL160027  17.320   2.260  17.520
 3181DOPG   GL260028  17.180   2.240  17.140
 3181DOPG   C1A60029  17.590   2.620  17.270
 3181DOPG   D2A60030  17.790   3.000  17.290
 3181DOPG   C3A60031  17.570   3.440  17.370
 3181DOPG   C4A60032  17.420   3.730  17.750
 3181DOPG   C1B60033  17.060   2.660  17.180
 3181DOPG   D2B60034  16.830   2.860  17.450
 3181DOPG   C3B60035  16.640   3.250  17.280
 3181DOPG   C4B60036  16.560   3.590  17.170
 3182DOPG   GL060037  25.160   2.060  11.250
 3182DOPG   PO460038  25.100   2.430  11.170
 3182DOPG   GL160039  24.780   2.870  11.230
 3182DOPG   GL260040  24.440   2.940  11.060
 3182DOPG   C1A60041  24.940   3.140  11.470
 3182DOPG   D2A60042  25.030   3.410  11.920
 3182DOPG   C3A60043  24.880   3.870  11.780
 3182DOPG   C4A60044  24.610   4.200  11.850
 3182DOPG   C1B60045  24.070   3.110  11.290
 3182DOPG   D2B60046  23.660   2.970  11.560
 3182DOPG   C3B60047  23.290   3.230  11.550
 3182DOPG   C4B60048  22.980   3.290  11.770
 3183DOPG   GL060049  20.590  14.430  20.230
 3183DOPG   PO460050  20.990  14.190  20.180
 3183DOPG   GL160051  21.150  14.200  20.570
 3183DOPG   GL260052  21.190  14.440  20.610
 3183DOPG   C1A60053  21.050  14.260  21.060
 3183DOPG   D2A60054  21.050  14.290  21.480
 3183DOPG   C3A60055  20.730  14.520  21.800
 3183DOPG   C4A60056  20.640  14.460  22.220
 3183DOPG   C1B60057  21.190  14.780  20.950
 3183DOPG   D2B60058  21.240  14.740  21.340
 3183DOPG   C3B60059  21.130  14.780  21.810
 3183DOPG   C4B60060  20.930  15.090  22.150
 3184DOPG   GL060061  25.030   2.540  10.390
 3184DOPG   PO460062  24.940   2.910  10.550
 3184DOPG   GL160063  24.840   3.250  10.630
 3184DOPG   GL260064  24.800   3.290  10.960
 3184DOPG   C1A60065  24.490   3.590  10.690
 3184DOPG   D2A60066  24.030   3.890  10.650
 3184DOPG   C3A60067  23.840   4.040  10.360
 3184DOPG   C4A60068  23.610   4.320  10.300
 3184DOPG   C1B60069  24.570   3.570  11.270
 3184DOPG   D2B60070  24.260   3.870  11.650
 3184DOPG   C3B60071  23.760   3.950  11.670
 3184DOPG   C4B60072  23.540   4.110  11.980
 3185DOPG   GL060073  19.260  24.980   6.020
 3185DOPG   PO460074  18.930  25.060   5.910
 3185DOPG   GL160075  18.840  24.740   6.270
 3185DOPG   GL260076  18.510  24.750   6.550
 3185DOPG   C1A60077  18.930  24.400   6.520
 3185DOPG   D2A60078  19.300  23.990   6.610
 3185DOPG   C3A60079  19.370  23.560   6.850
 3185DOPG   C4A60080  19.040  23.170   6.710
 3185DOPG   C1B60081  18.360  24.340   6.710
 3185DOPG   D2B60082  18.330  24.020   7.030
 3185DOPG   C3B60083  18.640  23.860   7.230
 3185DOPG   C4B60084  18.820  23.720   7.560
 3186DOPG   GL060085  16.490   8.750  15.030
 3186DOPG   PO460086  16.900   9.030  15.210
 3186DOPG   GL160087  17.190   9.260  14.980
 3186DOPG   GL260088  17.070   9.490  14.960
 3186DOPG   C1A60089  17.520   9.430  14.650
 3186DOPG   D2A60090  17.880   9.450  14.660
 3186DOPG   C3A60091  18.130   9.560  14.960
 3186DOPG   C4A60092  18.130   9.870  15.290
 3186DOPG   C1B60093  17.320   9.790  15.110
 3186DOPG   D2B60094  17.680   9.830  14.870
 3186DOPG   C3B60095  17.960  10.220  14.990
 3186DOPG   C4B60096  18.310  10.320  15.230
 3187DOPG   GL060097  18.400  14.320   7.930
 3187DOPG   PO460098  18.740  14.230   8.210
 3187DOPG   GL160099  18.950  14.470   8.520
 3187DOPG   GL260100  19.220  14.380   8.730
 3187DOPG   C1A60101  18.960  14.820   8.840
 3187DOPG   D2A60102  18.640  15.090   8.960
 3187DOPG   C3A60103  18.840  15.430   8.820
 3187DOPG   C4A60104  19.110  15.760   8.810
 3187DOPG   C1B60105  19.350  14.630   9.020
 3187DOPG   D2B60106  19.510  14.870   9.240
 3187DOPG   C3B60107  19.360  14.850   9.640
 3187DOPG   C4B60108  19.170  15.030  10.100
 3188DOPG   GL060109  15.520  11.730   9.720
 3188DOPG   PO460110  15.080  11.740   9.590
 3188DOPG   GL160111  15.230  12.090   9.620
 3188DOPG   GL260112  15.080  12.190   9.790
 3188DOPG   C1A60113  15.600  12.240   9.590
 3188DOPG   D2A60114  15.600  12.380   9.980
 3188DOPG   C3A60115  15.930  12.390  10.220
 3188DOPG   C4A60116  15.950  12.750  10.500
 3188DOPG   C1B60117  15.240  12.590   9.580
 3188DOPG   D2B60118  15.570  12.890   9.710
 3188DOPG   C3B60119  15.670  12.900  10.090
 3188DOPG   C4B60120  15.250  12.730  10.160
 3189DOPG   GL060121  21.410  12.260  20.410
 3189DOPG   PO460122  21.820  12.070  20.390
 3189DOPG   GL160123  21.810  12.110  20.750
 3189DOPG   GL260124  21.620  12.340  20.950
 3189DOPG   C1A60125  21.840  11.870  21.140
 3189DOPG   D2A60126  21.750  11.690  21.580
 3189DOPG   C3A60127  21.710  11.890  21.950
 3189DOPG   C4A60128  21.570  11.860  22.400
 3189DOPG   C1B60129  21.730  12.280  21.400
 3189DOPG   D2B60130  21.830  12.350  21.760
 3189DOPG   C3B60131  21.900  12.710  22.030
 3189DOPG   C4B60132  21.830  13.160  21.950
 3190DOPG   GL060133  19.230  27.400  16.970
 3190DOPG   PO460134  19.440  27.020  16.950
 3190DOPG   GL160135  19.740  26.730  16.780
 3190DOPG   GL260136  19.940  26.770  16.540
 3190DOPG   C1A60137  19.770  26.250  16.770
 3190DOPG   D2A60138  19.630  25.880  17.030
 3190DOPG   C3A60139  19.940  25.610  17.170
 3190DOPG   C4A60140  20.210  25.720  17.580
 3190DOPG   C1B60141  20.000  26.430  16.270
 3190DOPG   D2B60142  20.090  26.120  15.910
 3190DOPG   C3B60143  19.850  26.240  15.610
 3190DOPG   C4B60144  19.840  26.440  15.260
 3191DOPG   GL060145   7.100   9.080  15.040
 3191DOPG   PO460146   7.510   9.020  14.810
 3191DOPG   GL160147   7.840   9.170  14.750
 3191DOPG   GL260148   8.060   8.940  14.750
 3191DOPG   C1A60149   8.120   9.360  14.940
 3191DOPG   D2A60150   8.110   9.840  15.130
 3191DOPG   C3A60151   8.390  10.110  15.020
 3191DOPG   C4A60152   8.860  10.210  15.110
 3191DOPG   C1B60153   8.580   9.090  14.730
 3191DOPG   D2B60154   8.880   8.990  14.420
 3191DOPG   C3B60155   9.290   9.070  14.340
 3191DOPG   C4B60156   9.620   9.290  14.160
 3192DOPG   GL060157  13.650  17.300   9.490
 3192DOPG   PO460158  13.970  17.090   9.930
 3192DOPG   GL160159  14.400  17.240  10.160
 3192DOPG   GL260160  14.430  17.420  10.000
 3192DOPG   C1A60161  14.720  17.090  10.320
 3192DOPG   D2A60162  14.910  16.930  10.610
 3192DOPG   C3A60163  15.350  16.990  10.660
 3192DOPG   C4A60164  15.580  17.280  10.920
 3192DOPG   C1B60165  14.790  17.080   9.850
 3192DOPG   D2B60166  15.210  17.030   9.530
 3192DOPG   C3B60167  15.410  17.400   9.700
 3192DOPG   C4B60168  15.770  17.600   9.630
 3193DOPG   GL060169  21.460  27.610  13.980
 3193DOPG   PO460170  21.600  27.340  14.260
 3193DOPG   GL160171  21.690  26.840  14.340
 3193DOPG   GL260172  21.990  26.640  14.340
 3193DOPG   C1A60173  21.590  26.500  14.090
 3193DOPG   D2A60174  21.640  26.160  13.840
 3193DOPG   C3A60175  21.550  25.720  13.940
 3193DOPG   C4A60176  21.660  25.360  13.970
 3193DOPG   C1B60177  21.970  26.160  14.250
 3193DOPG   D2B60178  21.600  25.940  14.380
 3193DOPG   C3B60179  21.250  26.100  14.120
 3193DOPG   C4B60180  21.170  26.470  13.880
 3194DOPG   GL060181  17.350   8.820  10.140
 3194DOPG   PO460182  17.260   9.280  10.100
 3194DOPG   GL160183  17.340   9.590  10.360
 3194DOPG   GL260184  17.110   9.760  10.610
 3194DOPG   C1A60185  17.640   9.810  10.520
 3194DOPG   D2A60186  17.840   9.920  10.840
 3194DOPG   C3A60187  17.800   9.620  11.160
 3194DOPG   C4A60188  17.650   9.360  11.350
 3194DOPG   C1B60189  17.100  10.170  10.460
 3194DOPG   D2B60190  17.230  10.610  10.550
 3194DOPG   C3B60191  17.520  10.780  10.280
 3194DOPG   C4B60192  17.950  10.620  10.290
 3195DOPG   GL060193  22.820  17.360  18.930
 3195DOPG   PO460194  22.510  17.440  19.280
 3195DOPG   GL160195  22.630  17.430  19.680
 3195DOPG   GL260196  22.410  17.460  19.850
 3195DOPG   C1A60197  22.810  17.690  20.020
 3195DOPG   D2A60198  22.960  17.680  20.470
 3195DOPG   C3A60199  23.230  18.070  20.650
 3195DOPG   C4A60200  23.340  18.580  20.720
 3195DOPG   C1B60201  22.290  17.530  20.280
 3195DOPG   D2B60202  22.240  17.600  20.680
 3195DOPG   C3B60203  22.660  17.600  20.910
 3195DOPG   C4B60204  22.950  17.890  21.020
 3196DOPG   GL060205  15.650  11.240  16.660
 3196DOPG   PO460206  15.820  11.560  16.780
 3196DOPG   GL160207  15.880  11.620  16.370
 3196DOPG   GL260208  15.840  11.330  16.220
 3196DOPG   C1A60209  15.940  11.940  16.060
 3196DOPG   D2A60210  15.910  12.300  15.910
 3196DOPG   C3A60211  16.270  12.480  15.680
 3196DOPG   C4A60212  16.250  12.830  15.410
 3196DOPG   C1B60213  16.110  11.350  15.870
 3196DOPG   D2B60214  16.390  11.540  15.490
 3196DOPG   C3B60215  16.450  11.180  15.250
 3196DOPG   C4B60216  16.420  10.820  15.080
 3197DOPG   GL060217  16.710  15.950   8.290
 3197DOPG   PO460218  16.520  16.260   8.270
 3197DOPG   GL160219  16.500  16.290   8.660
 3197DOPG   GL260220  16.310  16.640   8.720
 3197DOPG   C1A60221  16.530  16.240   9.110
 3197DOPG   D2A60222  16.870  16.220   9.420
 3197DOPG   C3A60223  17.080  16.490   9.690
 3197DOPG   C4A60224  16.950  16.860   9.950
 3197DOPG   C1B60225  16.630  16.930   8.800
 3197DOPG   D2B60226  16.800  17.250   9.120
 3197DOPG   C3B60227  16.580  17.130   9.500
 3197DOPG   C4B60228  16.260  16.890   9.290
 3198DOPG   GL060229  17.670   9.610   3.640
 3198DOPG   PO460230  17.710   9.900   3.880
 3198DOPG   GL160231  17.450   9.910   4.270
 3198DOPG   GL260232  17.080   9.800   4.200
 3198DOPG   C1A60233  17.430  10.050   4.750
 3198DOPG   D2A60234  17.300  10.170   5.150
 3198DOPG   C3A60235  17.230  10.270   5.600
 3198DOPG   C4A60236  17.550  10.330   5.820
 3198DOPG   C1B60237  17.010  10.170   4.480
 3198DOPG   D2B60238  17.260  10.520   4.730
 3198DOPG   C3B60239  17.790  10.330   4.970
 3198DOPG   C4B60240  18.180  10.480   4.810
 3199DOPG   GL060241  21.890  19.650  17.460
 3199DOPG   PO460242  21.490  19.580  17.590
 3199DOPG   GL160243  21.430  19.300  17.290
 3199DOPG   GL260244  21.680  19.330  17.160
 3199DOPG   C1A60245  21.200  19.250  16.900
 3199DOPG   D2A60246  21.160  18.870  16.660
 3199DOPG   C3A60247  21.110  18.840  16.190
 3199DOPG   C4A60248  20.870  18.750  15.970
 3199DOPG   C1B60249  21.590  18.970  16.890
 3199DOPG   D2B60250  21.610  18.850  16.490
 3199DOPG   C3B60251  21.570  19.150  16.140
 3199DOPG   C4B60252  21.620  19.390  15.760
 3200DOPG   GL060253  19.730  12.620  19.280
 3200DOPG   PO460254  19.960  12.330  19.080
 3200DOPG   GL160255  20.310  12.320  18.770
 3200DOPG   GL260256  20.320  12.040  18.680
 3200DOPG   C1A60257  20.650  12.560  18.570
 3200DOPG   D2A60258  20.940  12.730  18.340
 3200DOPG   C3A60259  20.760  12.760  18.020
 3200DOPG   C4A60260  20.520  12.720  17.680
 3200DOPG   C1B60261  20.040  12.150  18.260
 3200DOPG   D2B60262  19.990  12.160  17.820
 3200DOPG   C3B60263  20.120  12.430  17.590
 3200DOPG   C4B60264  20.240  12.880  17.270
 3201DOPG   GL060265  15.400  21.730  22.370
 3201DOPG   PO460266  15.900  21.690  22.080
 3201DOPG   GL160267  15.830  21.420  21.700
 3201DOPG   GL260268  15.660  21.680  21.470
 3201DOPG   C1A60269  16.160  21.280  21.310
 3201DOPG   D2A60270  16.480  21.060  21.030
 3201DOPG   C3A60271  16.740  20.800  21.090
 3201DOPG   C4A60272  17.090  20.570  20.850
 3201DOPG   C1B60273  15.760  21.440  21.060
 3201DOPG   D2B60274  15.720  21.280  20.590
 3201DOPG   C3B60275  15.700  20.830  20.470
 3201DOPG   C4B60276  15.670  20.600  20.140
 3202DOPG   GL060277  25.180   7.820  14.770
 3202DOPG   PO460278  24.980   7.710  14.360
 3202DOPG   GL160279  24.750   8.020  14.100
 3202DOPG   GL260280  24.890   8.430  14.220
 3202DOPG   C1A60281  24.450   8.370  13.940
 3202DOPG   D2A60282  24.180   8.560  13.660
 3202DOPG   C3A60283  23.900   8.650  13.360
 3202DOPG   C4A60284  23.470   8.640  13.290
 3202DOPG   C1B60285  24.610   8.580  14.440
 3202DOPG   D2B60286  24.280   8.810  14.610
 3202DOPG   C3B60287  24.220   9.100  14.970
 3202DOPG   C4B60288  24.400   9.340  15.330
 3203DOPG   GL060289  17.670  17.860   8.280
 3203DOPG   PO460290  17.280  17.650   8.240
 3203DOPG   GL160291  17.540  17.360   8.470
 3203DOPG   GL260292  17.600  17.000   8.440
 3203DOPG   C1A60293  17.760  17.330   8.800
 3203DOPG   D2A60294  17.890  17.400   9.330
 3203DOPG   C3A60295  17.610  17.630   9.610
 3203DOPG   C4A60296  17.440  17.740   9.860
 3203DOPG   C1B60297  17.590  16.730   8.830
 3203DOPG   D2B60298  17.360  16.540   9.220
 3203DOPG   C3B60299  17.580  16.550   9.610
 3203DOPG   C4B60300  17.560  16.810  10.050
 3204DOPG   GL060301  12.710  15.400  10.480
 3204DOPG   PO460302  12.730  15.130  10.770
 3204DOPG   GL160303  12.970  15.060  11.140
 3204DOPG   GL260304  12.880  14.910  11.420
 3204DOPG   C1A60305  13.380  14.990  11.340
 3204DOPG   D2A60306  13.800  14.970  11.510
 3204DOPG   C3A60307  14.130  14.970  11.290
 3204DOPG   C4A60308  14.600  15.070  11.430
 3204DOPG   C1B60309  13.060  14.590  11.250
 3204DOPG   D2B60310  13.370  14.340  10.940
 3204DOPG   C3B60311  13.310  13.990  10.600
 3204DOPG   C4B60312  13.340  13.860  10.160
 3205DOPG   GL060313   8.540  22.210  13.040
 3205DOPG   PO460314   8.770  22.320  13.400
 3205DOPG   GL160315   9.200  22.130  13.650
 3205DOPG   GL260316   9.320  22.160  14.000
 3205DOPG   C1A60317   9.440  21.710  13.720
 3205DOPG   D2A60318   9.680  21.300  13.840
 3205DOPG   C3A60319   9.460  21.200  14.180
 3205DOPG   C4A60320   9.230  20.820  14.450
 3205DOPG   C1B60321   9.650  22.010  14.140
 3205DOPG   D2B60322   9.760  21.570  14.300
 3205DOPG   C3B60323  10.150  21.340  14.140
 3205DOPG   C4B60324  10.470  21.380  14.310
 3206DOPG   GL060325  17.590  22.370  10.880
 3206DOPG   PO460326  17.680  22.230  11.360
 3206DOPG   GL160327  17.940  21.950  11.650
 3206DOPG   GL260328  18.080  21.870  11.330
 3206DOPG   C1A60329  17.740  21.510  11.920
 3206DOPG   D2A60330  17.630  21.210  12.250
 3206DOPG   C3A60331  17.330  21.260  12.560
 3206DOPG   C4A60332  17.220  21.100  12.970
 3206DOPG   C1B60333  18.280  21.590  11.470
 3206DOPG   D2B60334  18.290  21.520  11.780
 3206DOPG   C3B60335  18.480  21.160  11.800
 3206DOPG   C4B60336  18.680  20.900  12.010
 3207DOPG   GL060337  22.270  20.850  15.650
 3207DOPG   PO460338  22.680  20.610  15.580
 3207DOPG   GL160339  22.700  20.280  15.280
 3207DOPG   GL260340  22.750  20.370  15.000
 3207DOPG   C1A60341  22.430  19.930  15.130
 3207DOPG   D2A60342  22.450  19.470  15.010
 3207DOPG   C3A60343  22.650  19.310  14.610
 3207DOPG   C4A60344  22.990  19.220  14.400
 3207DOPG   C1B60345  22.730  20.360  14.500
 3207DOPG   D2B60346  22.680  20.200  14.010
 3207DOPG   C3B60347  22.350  19.960  13.830
 3207DOPG   C4B60348  21.990  20.010  13.540
 3208DOPG   GL060349  22.160  21.510  10.830
 3208DOPG   PO460350  21.710  21.310  10.710
 3208DOPG   GL160351  21.560  20.870  10.890
 3208DOPG   GL260352  21.760  20.650  10.840
 3208DOPG   C1A60353  21.190  20.620  10.760
 3208DOPG   D2A60354  21.030  20.310  10.430
 3208DOPG   C3A60355  21.150  19.870  10.460
 3208DOPG   C4A60356  21.400  19.750  10.880
 3208DOPG   C1B60357  21.930  20.240  10.980
 3208DOPG   D2B60358  22.320  20.020  11.070
 3208DOPG   C3B60359  22.300  19.920  11.470
 3208DOPG   C4B60360  21.940  19.580  11.580
 3209DOPG   GL060361  11.540   5.910   9.110
 3209DOPG   PO460362  11.870   5.830   9.400
 3209DOPG   GL160363  12.190   6.050   9.370
 3209DOPG   GL260364  12.560   6.040   9.400
 3209DOPG   C1A60365  12.500   6.530   9.320
 3209DOPG   D2A60366  12.640   7.050   9.480
 3209DOPG   C3A60367  12.520   7.110   9.880
 3209DOPG   C4A60368  12.350   7.180  10.360
 3209DOPG   C1B60369  12.960   6.250   9.470
 3209DOPG   D2B60370  13.300   6.180   9.620
 3209DOPG   C3B60371  13.330   6.500   9.790
 3209DOPG   C4B60372  13.270   6.680  10.150
 3210DOPG   GL060373  13.300  15.570  17.450
 3210DOPG   PO460374  13.410  15.930  17.350
 3210DOPG   GL160375  13.680  16.180  17.060
 3210DOPG   GL260376  13.830  15.910  16.900
 3210DOPG   C1A60377  13.760  16.270  16.590
 3210DOPG   D2A60378  14.040  16.140  16.260
 3210DOPG   C3A60379  13.840  16.090  15.960
 3210DOPG   C4A60380  13.470  16.110  15.640
 3210DOPG   C1B60381  14.170  16.240  16.900
 3210DOPG   D2B60382  14.250  16.530  16.530
 3210DOPG   C3B60383  14.050  16.880  16.450
 3210DOPG   C4B60384  14.090  17.150  16.750
 3211DOPG   GL060385  18.350  16.670   3.050
 3211DOPG   PO460386  18.440  16.210   3.010
 3211DOPG   GL160387  18.700  16.190   3.400
 3211DOPG   GL260388  18.790  15.910   3.560
 3211DOPG   C1A60389  18.470  16.310   3.800
 3211DOPG   D2A60390  18.210  16.140   4.060
 3211DOPG   C3A60391  18.430  16.210   4.400
 3211DOPG   C4A60392  18.760  16.400   4.620
 3211DOPG   C1B60393  18.800  15.920   3.990
 3211DOPG   D2B60394  18.870  15.870   4.380
 3211DOPG   C3B60395  18.580  15.970   4.800
 3211DOPG   C4B60396  18.650  15.810   5.140
 3212DOPG   GL060397  14.260  21.060  12.340
 3212DOPG   PO460398  14.270  21.370  12.830
 3212DOPG   GL160399  14.610  20.950  12.690
 3212DOPG   GL260400  14.560  20.640  12.810
 3212DOPG   C1A60401  14.820  20.770  12.380
 3212DOPG   D2A60402  14.610  20.480  12.070
 3212DOPG   C3A60403  14.620  20.220  11.770
 3212DOPG   C4A60404  14.640  20.310  11.340
 3212DOPG   C1B60405  14.600  20.160  12.720
 3212DOPG   D2B60406  14.340  20.020  12.300
 3212DOPG   C3B60407  14.320  19.620  12.190
 3212DOPG   C4B60408  14.360  19.310  11.860
 3213DOPG   GL060409  15.720  26.810  17.110
 3213DOPG   PO460410  15.890  26.770  16.720
 3213DOPG   GL160411  15.880  26.480  16.470
 3213DOPG   GL260412  16.090  26.610  16.200
 3213DOPG   C1A60413  15.690  26.180  16.220
 3213DOPG   D2A60414  15.430  26.010  15.980
 3213DOPG   C3A60415  15.570  25.850  15.720
 3213DOPG   C4A60416  15.710  25.410  15.610
 3213DOPG   C1B60417  16.330  26.290  16.120
 3213DOPG   D2B60418  16.520  25.820  16.020
 3213DOPG   C3B60419  16.570  25.560  15.600
 3213DOPG   C4B60420  16.730  25.260  15.360
 3214DOPG   GL060421  21.560  20.680   4.280
 3214DOPG   PO460422  21.940  21.010   4.370
 3214DOPG   GL160423  22.130  20.640   4.570
 3214DOPG   GL260424  21.990  20.480   4.490
 3214DOPG   C1A60425  22.330  20.440   4.940
 3214DOPG   D2A60426  22.270  20.360   5.290
 3214DOPG   C3A60427  22.310  20.150   5.680
 3214DOPG   C4A60428  22.410  20.180   6.110
 3214DOPG   C1B60429  21.780  20.250   4.890
 3214DOPG   D2B60430  21.790  20.150   5.360
 3214DOPG   C3B60431  21.910  20.420   5.650
 3214DOPG   C4B60432  21.890  20.800   5.800
 3215DOPG   GL060433  10.170  11.830   5.990
 3215DOPG   PO460434  10.520  11.430   5.910
 3215DOPG   GL160435  10.920  11.520   6.120
 3215DOPG   GL260436  11.150  11.420   5.890
 3215DOPG   C1A60437  11.010  11.870   6.430
 3215DOPG   D2A60438  11.310  12.150   6.700
 3215DOPG   C3A60439  11.280  12.620   6.900
 3215DOPG   C4A60440  11.540  13.010   6.820
 3215DOPG   C1B60441  11.410  11.470   6.240
 3215DOPG   D2B60442  11.390  11.170   6.610
 3215DOPG   C3B60443  11.690  11.240   6.950
 3215DOPG   C4B60444  12.030  11.510   7.080
 3216DOPG   GL060445  16.190  22.850  14.690
 3216DOPG   PO460446  16.290  22.400  14.760
 3216DOPG   GL160447  16.400  21.950  14.840
 3216DOPG   GL260448  16.590  21.690  14.590
 3216DOPG   C1A60449  16.460  21.490  15.030
 3216DOPG   D2A60450  16.290  21.140  15.210
 3216DOPG   C3A60451  15.900  20.840  15.450
 3216DOPG   C4A60452  15.870  20.480  15.700
 3216DOPG   C1B60453  16.490  21.390  14.190
 3216DOPG   D2B60454  16.370  20.950  14.050
 3216DOPG   C3B60455  16.550  20.560  14.320
 3216DOPG   C4B60456  16.590  20.380  14.700
 3217DOPG   GL060457  17.570  22.110  13.210
 3217DOPG   PO460458  17.150  22.160  13.190
 3217DOPG   GL160459  16.940  21.760  13.130
 3217DOPG   GL260460  16.690  21.830  12.940
 3217DOPG   C1A60461  16.860  21.270  13.230
 3217DOPG   D2A60462  16.710  21.050  13.670
 3217DOPG   C3A60463  16.500  20.620  13.660
 3217DOPG   C4A60464  16.500  20.250  13.840
 3217DOPG   C1B60465  16.830  21.430  12.790
 3217DOPG   D2B60466  16.770  21.120  12.400
 3217DOPG   C3B60467  16.770  20.730  12.210
 3217DOPG   C4B60468  16.940  20.400  12.140
 3218DOPG   GL060469  13.300  12.290  10.820
 3218DOPG   PO460470  13.270  12.490  11.080
 3218DOPG   GL160471  13.490  12.780  11.150
 3218DOPG   GL260472  13.510  12.790  11.530
 3218DOPG   C1A60473  13.710  13.230  11.290
 3218DOPG   D2A60474  13.720  13.640  11.410
 3218DOPG   C3A60475  14.010  14.040  11.390
 3218DOPG   C4A60476  14.190  14.480  11.360
 3218DOPG   C1B60477  13.870  12.820  11.480
 3218DOPG   D2B60478  14.160  12.760  11.760
 3218DOPG   C3B60479  13.900  12.810  12.160
 3218DOPG   C4B60480  13.740  12.980  12.530
 3219DOPG   GL060481  16.710   2.950  20.130
 3219DOPG   PO460482  16.590   2.740  19.820
 3219DOPG   GL160483  16.880   2.950  19.570
 3219DOPG   GL260484  17.130   3.080  19.810
 3219DOPG   C1A60485  16.640   3.110  19.250
 3219DOPG   D2A60486  16.430   3.510  19.210
 3219DOPG   C3A60487  16.440   3.980  19.020
 3219DOPG   C4A60488  16.690   4.270  18.960
 3219DOPG   C1B60489  17.330   3.520  19.860
 3219DOPG   D2B60490  17.130   3.900  19.790
 3219DOPG   C3B60491  17.390   4.160  19.590
 3219DOPG   C4B60492  17.690   4.170  19.360
 3220DOPG   GL060493  27.070  16.850  22.590
 3220DOPG   PO460494  27.260  17.170  22.210
 3220DOPG   GL160495  26.870  17.000  22.160
 3220DOPG   GL260496  26.990  16.550  22.100
 3220DOPG   C1A60497  26.570  16.780  21.960
 3220DOPG   D2A60498  26.410  16.380  21.600
 3220DOPG   C3A60499  26.630  15.900  21.740
 3220DOPG   C4A60500  26.830  15.410  21.670
 3220DOPG   C1B60501  26.960  16.390  21.670
 3220DOPG   D2B60502  27.270  16.280  21.350
 3220DOPG   C3B60503  27.290  16.030  21.040
 3220DOPG   C4B60504  27.120  15.960  20.530
 3221DOPG   GL060505   8.580  22.470  14.550
 3221DOPG   PO460506   8.870  22.690  14.290
 3221DOPG   GL160507   9.090  22.310  14.420
 3221DOPG   GL260508   9.400  22.340  14.420
 3221DOPG   C1A60509   9.370  21.910  14.630
 3221DOPG   D2A60510   9.710  21.690  14.770
 3221DOPG   C3A60511  10.080  21.520  14.640
 3221DOPG   C4A60512  10.430  21.290  14.860
 3221DOPG   C1B60513   9.840  22.470  14.410
 3221DOPG   D2B60514  10.340  22.420  14.440
 3221DOPG   C3B60515  10.560  22.270  13.930
 3221DOPG   C4B60516  10.780  22.030  13.700
 3222DOPG   GL060517  17.460   0.980  15.770
 3222DOPG   PO460518  17.150   0.940  16.040
 3222DOPG   GL160519  17.190   1.380  15.920
 3222DOPG   GL260520  17.550   1.510  15.870
 3222DOPG   C1A60521  17.110   1.810  15.620
 3222DOPG   D2A60522  16.980   2.210  15.460
 3222DOPG   C3A60523  17.050   2.630  15.750
 3222DOPG   C4A60524  17.040   3.000  15.930
 3222DOPG   C1B60525  17.550   1.880  15.520
 3222DOPG   D2B60526  17.650   2.210  15.260
 3222DOPG   C3B60527  17.870   2.540  15.490
 3222DOPG   C4B60528  18.170   2.810  15.770
 3223DOPG   GL060529  21.340  11.520  19.370
 3223DOPG   PO460530  21.570  11.880  19.450
 3223DOPG   GL160531  21.680  11.960  19.090
 3223DOPG   GL260532  21.490  11.960  18.930
 3223DOPG   C1A60533  21.900  12.110  18.810
 3223DOPG   D2A60534  21.970  12.510  18.620
 3223DOPG   C3A60535  22.150  12.630  18.270
 3223DOPG   C4A60536  22.010  12.230  18.030
 3223DOPG   C1B60537  21.410  12.330  18.860
 3223DOPG   D2B60538  21.360  12.700  18.510
 3223DOPG   C3B60539  21.610  12.590  18.170
 3223DOPG   C4B60540  21.670  12.630  17.690
 3224DOPG   GL060541  18.890  14.260  19.140
 3224DOPG   PO460542  18.480  14.420  18.910
 3224DOPG   GL160543  18.450  14.540  18.530
 3224DOPG   GL260544  18.590  14.240  18.450
 3224DOPG   C1A60545  18.340  14.480  18.060
 3224DOPG   D2A60546  18.180  14.670  17.750
 3224DOPG   C3A60547  18.380  14.840  17.370
 3224DOPG   C4A60548  18.420  14.730  17.050
 3224DOPG   C1B60549  18.730  14.090  17.940
 3224DOPG   D2B60550  18.770  13.930  17.560
 3224DOPG   C3B60551  18.970  13.710  17.110
 3224DOPG   C4B60552  18.630  13.610  16.780
 3225DOPG   GL060553  22.920   6.160  12.970
 3225DOPG   PO460554  22.780   6.510  12.620
 3225DOPG   GL160555  22.800   6.890  12.780
 3225DOPG   GL260556  22.590   6.950  13.020
 3225DOPG   C1A60557  23.110   7.200  12.890
 3225DOPG   D2A60558  23.430   7.440  12.800
 3225DOPG   C3A60559  23.190   7.770  12.860
 3225DOPG   C4A60560  22.850   7.970  13.020
 3225DOPG   C1B60561  22.500   7.350  13.250
 3225DOPG   D2B60562  22.590   7.680  13.520
 3225DOPG   C3B60563  22.480   8.080  13.410
 3225DOPG   C4B60564  22.220   8.440  13.420
 3226DOPG   GL060565  14.550  13.030  19.100
 3226DOPG   PO460566  14.440  13.400  19.200
 3226DOPG   GL160567  14.080  13.390  19.440
 3226DOPG   GL260568  13.900  13.170  19.330
 3226DOPG   C1A60569  14.030  13.590  19.860
 3226DOPG   D2A60570  13.850  13.670  20.270
 3226DOPG   C3A60571  13.520  13.610  20.620
 3226DOPG   C4A60572  13.180  13.680  20.990
 3226DOPG   C1B60573  13.760  13.200  19.900
 3226DOPG   D2B60574  13.800  13.170  20.400
 3226DOPG   C3B60575  13.900  12.660  20.470
 3226DOPG   C4B60576  14.090  12.340  20.300
 3227DOPG   GL060577  17.850   8.090  14.860
 3227DOPG   PO460578  17.950   7.690  14.730
 3227DOPG   GL160579  18.170   7.810  14.350
 3227DOPG   GL260580  17.970   8.120  14.170
 3227DOPG   C1A60581  18.550   7.710  14.350
 3227DOPG   D2A60582  18.820   7.590  14.630
 3227DOPG   C3A60583  19.250   7.640  14.470
 3227DOPG   C4A60584  19.560   7.490  14.650
 3227DOPG   C1B60585  18.390   8.320  14.350
 3227DOPG   D2B60586  18.660   8.630  14.200
 3227DOPG   C3B60587  18.870   8.610  13.810
 3227DOPG   C4B60588  19.090   9.010  13.680
 3228DOPG   GL060589  27.440  15.020  12.920
 3228DOPG   PO460590  27.030  14.740  12.990
 3228DOPG   GL160591  26.730  14.530  13.140
 3228DOPG   GL260592  26.620  14.160  13.210
 3228DOPG   C1A60593  26.350  14.590  13.020
 3228DOPG   D2A60594  26.020  14.440  12.970
 3228DOPG   C3A60595  25.960  14.060  13.050
 3228DOPG   C4A60596  26.210  13.750  12.840
 3228DOPG   C1B60597  26.320  14.110  13.400
 3228DOPG   D2B60598  25.900  14.330  13.490
 3228DOPG   C3B60599  25.550  14.260  13.680
 3228DOPG   C4B60600  25.170  14.110  13.770
 3229DOPG   GL060601  30.430   6.250  13.630
 3229DOPG   PO460602  30.600   6.360  14.010
 3229DOPG   GL160603  30.160   6.500  13.960
 3229DOPG   GL260604  29.880   6.340  13.750
 3229DOPG   C1A60605  29.890   6.940  13.830
 3229DOPG   D2A60606  29.660   7.330  13.680
 3229DOPG   C3A60607  29.560   7.720  13.830
 3229DOPG   C4A60608  29.380   7.820  14.140
 3229DOPG   C1B60609  29.500   6.480  13.920
 3229DOPG   D2B60610  29.250   6.790  13.810
 3229DOPG   C3B60611  28.790   7.010  13.820
 3229DOPG   C4B60612  28.430   7.080  13.970
 3230DOPG   GL060613  23.840   6.540  16.950
 3230DOPG   PO460614  23.570   6.230  17.240
 3230DOPG   GL160615  23.760   6.010  17.640
 3230DOPG   GL260616  23.990   5.710  17.530
 3230DOPG   C1A60617  23.570   5.670  17.950
 3230DOPG   D2A60618  23.630   5.240  18.160
 3230DOPG   C3A60619  23.610   4.880  17.970
 3230DOPG   C4A60620  23.610   4.860  17.600
 3230DOPG   C1B60621  23.830   5.290  17.690
 3230DOPG   D2B60622  24.110   4.880  17.760
 3230DOPG   C3B60623  23.950   4.500  18.050
 3230DOPG   C4B60624  23.500   4.370  17.860
 3231DOPG   GL060625  21.560  12.720   8.020
 3231DOPG   PO460626  21.250  12.560   8.300
 3231DOPG   GL160627  21.220  12.650   8.810
 3231DOPG   GL260628  20.930  12.630   9.010
 3231DOPG   C1A60629  21.480  12.800   9.250
 3231DOPG   D2A60630  21.590  12.960   9.540
 3231DOPG   C3A60631  21.750  12.730   9.860
 3231DOPG   C4A60632  21.980  12.450  10.110
 3231DOPG   C1B60633  21.050  12.760   9.540
 3231DOPG   D2B60634  21.240  12.830  10.000
 3231DOPG   C3B60635  21.160  13.100  10.310
 3231DOPG   C4B60636  21.410  13.200  10.570
 3232DOPG   GL060637  27.050  18.190  14.010
 3232DOPG   PO460638  27.210  18.530  14.150
 3232DOPG   GL160639  27.590  18.570  14.110
 3232DOPG   GL260640  27.740  18.710  14.410
 3232DOPG   C1A60641  27.980  18.910  14.010
 3232DOPG   D2A60642  28.290  19.190  13.820
 3232DOPG   C3A60643  28.600  18.900  13.660
 3232DOPG   C4A60644  29.030  19.020  13.810
 3232DOPG   C1B60645  28.210  18.760  14.460
 3232DOPG   D2B60646  28.480  18.500  14.500
 3232DOPG   C3B60647  28.780  18.730  14.790
 3232DOPG   C4B60648  28.990  18.790  15.050
 3233DOPG   GL060649   8.660  11.530  19.960
 3233DOPG   PO460650   8.820  11.160  20.100
 3233DOPG   GL160651   9.040  11.320  19.740
 3233DOPG   GL260652   9.090  11.640  19.760
 3233DOPG   C1A60653   9.420  11.140  19.560
 3233DOPG   D2A60654   9.890  11.200  19.400
 3233DOPG   C3A60655  10.210  11.170  19.100
 3233DOPG   C4A60656  10.400  10.980  18.720
 3233DOPG   C1B60657   9.350  11.620  19.380
 3233DOPG   D2B60658   9.780  11.720  19.230
 3233DOPG   C3B60659   9.710  11.920  18.880
 3233DOPG   C4B60660   9.580  11.980  18.410
 3234DOPG   GL060661  14.280  25.960  10.540
 3234DOPG   PO460662  14.220  26.350  10.670
 3234DOPG   GL160663  14.490  26.120  10.940
 3234DOPG   GL260664  14.550  26.220  11.390
 3234DOPG   C1A60665  14.970  26.010  11.160
 3234DOPG   D2A60666  15.290  26.190  11.310
 3234DOPG   C3A60667  15.040  26.260  11.750
 3234DOPG   C4A60668  14.840  26.370  12.060
 3234DOPG   C1B60669  14.640  25.920  11.750
 3234DOPG   D2B60670  15.020  25.740  11.880
 3234DOPG   C3B60671  15.280  25.730  11.530
 3234DOPG   C4B60672  15.750  25.820  11.340
 3235DOPG   GL060673  17.030  22.930  14.360
 3235DOPG   PO460674  16.940  23.490  14.350
 3235DOPG   GL160675  16.670  23.660  14.590
 3235DOPG   GL260676  16.500  23.590  14.940
 3235DOPG   C1A60677  16.720  24.070  14.820
 3235DOPG   D2A60678  16.810  24.570  14.920
 3235DOPG   C3A60679  16.790  24.750  15.270
 3235DOPG   C4A60680  16.740  24.830  15.690
 3235DOPG   C1B60681  16.530  23.940  15.270
 3235DOPG   D2B60682  16.170  24.050  15.400
 3235DOPG   C3B60683  16.010  24.300  15.750
 3235DOPG   C4B60684  15.750  24.270  16.000
 3236DOPG   GL060685  13.260   8.390  12.640
 3236DOPG   PO460686  12.790   8.320  12.750
 3236DOPG   GL160687  12.410   8.220  12.510
 3236DOPG   GL260688  12.350   8.360  12.130
 3236DOPG   C1A60689  12.020   8.230  12.450
 3236DOPG   D2A60690  11.760   7.950  12.530
 3236DOPG   C3A60691  11.410   7.720  12.360
 3236DOPG   C4A60692  11.100   7.430  12.260
 3236DOPG   C1B60693  12.080   7.950  12.020
 3236DOPG   D2B60694  11.860   7.650  12.050
 3236DOPG   C3B60695  11.740   7.320  12.350
 3236DOPG   C4B60696  11.960   7.050  12.680
 3237DOPG   GL060697  18.230   7.050  23.510
 3237DOPG   PO460698  18.250   6.660  23.630
 3237DOPG   GL160699  18.380   6.640  23.190
 3237DOPG   GL260700  18.160   6.370  23.110
 3237DOPG   C1A60701  18.490   6.890  22.890
 3237DOPG   D2A60702  18.490   6.780  22.540
 3237DOPG   C3A60703  18.690   7.030  22.280
 3237DOPG   C4A60704  19.020   7.120  21.960
 3237DOPG   C1B60705  18.020   6.570  22.720
 3237DOPG   D2B60706  18.000   6.700  22.270
 3237DOPG   C3B60707  18.300   6.490  22.130
 3237DOPG   C4B60708  18.650   6.650  21.880
 3238DOPG   GL060709  19.640  17.150  18.540
 3238DOPG   PO460710  19.380  16.970  18.820
 3238DOPG   GL160711  19.270  16.730  18.480
 3238DOPG   GL260712  19.590  16.580  18.470
 3238DOPG   C1A60713  19.130  16.570  18.040
 3238DOPG   D2A60714  18.950  16.260  17.660
 3238DOPG   C3A60715  19.110  16.220  17.190
 3238DOPG   C4A60716  19.010  15.880  16.840
 3238DOPG   C1B60717  19.610  16.660  17.940
 3238DOPG   D2B60718  19.370  16.560  17.560
 3238DOPG   C3B60719  19.420  16.700  17.200
 3238DOPG   C4B60720  19.670  16.650  16.880
 3239DOPG   GL060721  12.230  14.630  11.380
 3239DOPG   PO460722  12.420  15.040  11.640
 3239DOPG   GL160723  12.780  14.930  12.010
 3239DOPG   GL260724  13.090  14.780  11.870
 3239DOPG   C1A60725  13.090  14.870  12.310
 3239DOPG   D2A60726  13.270  14.480  12.510
 3239DOPG   C3A60727  13.630  14.530  12.360
 3239DOPG   C4A60728  14.030  14.480  12.350
 3239DOPG   C1B60729  13.440  14.770  11.850
 3239DOPG   D2B60730  13.510  14.510  11.420
 3239DOPG   C3B60731  13.500  14.080  11.360
 3239DOPG   C4B60732  13.290  13.720  11.130
 3240DOPG   GL060733  27.150  15.010  16.740
 3240DOPG   PO460734  26.980  14.940  16.250
 3240DOPG   GL160735  26.600  14.760  16.150
 3240DOPG   GL260736  26.580  14.970  15.990
 3240DOPG   C1A60737  26.210  14.720  16.230
 3240DOPG   D2A60738  25.790  14.460  16.100
 3240DOPG   C3A60739  25.670  14.450  15.730
 3240DOPG   C4A60740  25.420  14.300  15.450
 3240DOPG   C1B60741  26.200  14.910  15.720
 3240DOPG   D2B60742  25.780  14.870  15.460
 3240DOPG   C3B60743  25.510  14.900  15.090
 3240DOPG   C4B60744  25.320  15.190  14.860
 3241DOPG   GL060745  17.740   2.900  20.940
 3241DOPG   PO460746  17.680   2.960  20.500
 3241DOPG   GL160747  17.630   3.220  20.060
 3241DOPG   GL260748  18.020   3.050  19.950
 3241DOPG   C1A60749  17.630   3.270  19.610
 3241DOPG   D2A60750  17.570   3.660  19.330
 3241DOPG   C3A60751  17.440   3.760  18.930
 3241DOPG   C4A60752  17.520   3.380  18.650
 3241DOPG   C1B60753  18.380   3.100  19.800
 3241DOPG   D2B60754  18.470   3.450  19.540
 3241DOPG   C3B60755  18.150   3.570  19.340
 3241DOPG   C4B60756  17.960   3.740  19.040
 3242DOPG   GL060757  24.670   8.070  11.850
 3242DOPG   PO460758  24.830   8.220  12.240
 3242DOPG   GL160759  24.560   8.440  12.220
 3242DOPG   GL260760  24.240   8.180  12.260
 3242DOPG   C1A60761  24.330   8.900  12.270
 3242DOPG   D2A60762  24.270   9.190  12.580
 3242DOPG   C3A60763  24.070   9.560  12.560
 3242DOPG   C4A60764  23.600   9.760  12.760
 3242DOPG   C1B60765  24.040   8.470  12.550
 3242DOPG   D2B60766  23.770   8.610  12.890
 3242DOPG   C3B60767  23.430   8.880  12.850
 3242DOPG   C4B60768  23.150   8.990  13.120
 3243DOPG   GL060769  16.270   9.290  10.820
 3243DOPG   PO460770  16.120   9.700  10.650
 3243DOPG   GL160771  16.340   9.810  11.060
 3243DOPG   GL260772  16.500  10.160  10.920
 3243DOPG   C1A60773  16.600   9.860  11.470
 3243DOPG   D2A60774  16.980  10.030  11.470
 3243DOPG   C3A60775  17.430  10.000  11.560
 3243DOPG   C4A60776  17.810  10.160  11.750
 3243DOPG   C1B60777  16.860  10.010  10.980
 3243DOPG   D2B60778  17.330  10.170  10.920
 3243DOPG   C3B60779  17.560  10.380  11.180
 3243DOPG   C4B60780  17.930  10.670  11.360
 3244DOPG   GL060781  16.660  21.530  11.860
 3244DOPG   PO460782  17.040  21.650  11.690
 3244DOPG   GL160783  16.980  21.110  11.830
 3244DOPG   GL260784  16.750  20.940  11.790
 3244DOPG   C1A60785  17.240  20.940  12.190
 3244DOPG   D2A60786  17.260  20.670  12.560
 3244DOPG   C3A60787  17.220  20.270  12.500
 3244DOPG   C4A60788  17.100  19.810  12.580
 3244DOPG   C1B60789  16.970  20.810  11.380
 3244DOPG   D2B60790  17.330  20.590  11.220
 3244DOPG   C3B60791  17.570  20.210  11.390
 3244DOPG   C4B60792  17.550  19.820  11.580
 3245DOPG   GL060793  22.040  14.710  19.290
 3245DOPG   PO460794  22.250  14.720  18.960
 3245DOPG   GL160795  22.150  14.630  18.460
 3245DOPG   GL260796  22.330  14.470  18.250
 3245DOPG   C1A60797  21.890  14.290  18.210
 3245DOPG   D2A60798  21.830  14.270  17.810
 3245DOPG   C3A60799  21.810  14.640  17.820
 3245DOPG   C4A60800  21.600  15.020  17.850
 3245DOPG   C1B60801  22.320  14.560  17.780
 3245DOPG   D2B60802  22.650  14.360  17.500
 3245DOPG   C3B60803  22.740  14.700  17.230
 3245DOPG   C4B60804  23.040  15.000  17.000
 3246DOPG   GL060805  20.290  26.930  17.870
 3246DOPG   PO460806  20.400  26.920  17.470
 3246DOPG   GL160807  20.430  26.670  17.190
 3246DOPG   GL260808  20.070  26.650  17.120
 3246DOPG   C1A60809  20.420  26.420  16.780
 3246DOPG   D2A60810  20.280  26.070  16.560
 3246DOPG   C3A60811  20.060  25.790  16.740
 3246DOPG   C4A60812  19.720  25.560  16.640
 3246DOPG   C1B60813  19.610  26.420  17.250
 3246DOPG   D2B60814  19.220  26.030  17.240
 3246DOPG   C3B60815  19.050  25.880  16.900
 3246DOPG   C4B60816  18.610  26.000  16.760
 3247DOPG   GL060817  22.090   0.760  15.970
 3247DOPG   PO460818  22.150   1.140  15.840
 3247DOPG   GL160819  22.210   1.550  15.920
 3247DOPG   GL260820  22.050   1.610  16.250
 3247DOPG   C1A60821  22.340   1.950  15.760
 3247DOPG   D2A60822  22.010   2.190  15.520
 3247DOPG   C3A60823  21.640   2.240  15.820
 3247DOPG   C4A60824  21.270   2.200  16.030
 3247DOPG   C1B60825  21.980   2.160  16.210
 3247DOPG   D2B60826  22.210   2.410  15.920
 3247DOPG   C3B60827  22.190   2.700  15.590
 3247DOPG   C4B60828  22.300   3.100  15.420
 3248DOPG   GL060829   8.020  19.620  11.420
 3248DOPG   PO460830   7.840  20.060  11.210
 3248DOPG   GL160831   8.170  20.090  11.480
 3248DOPG   GL260832   8.390  20.370  11.620
 3248DOPG   C1A60833   8.680  20.010  11.460
 3248DOPG   D2A60834   9.060  19.790  11.370
 3248DOPG   C3A60835   8.940  19.500  10.970
 3248DOPG   C4A60836   8.880  19.280  10.610
 3248DOPG   C1B60837   8.670  20.170  11.880
 3248DOPG   D2B60838   9.150  20.040  11.990
 3248DOPG   C3B60839   9.180  19.660  12.260
 3248DOPG   C4B60840   9.320  19.250  12.340
 3249DOPG   GL060841  21.250   8.380  17.760
 3249DOPG   PO460842  21.010   8.130  17.510
 3249DOPG   GL160843  21.180   8.400  17.230
 3249DOPG   GL260844  20.880   8.420  17.070
 3249DOPG   C1A60845  21.310   8.560  16.790
 3249DOPG   D2A60846  21.160   8.610  16.400
 3249DOPG   C3A60847  21.360   8.870  16.040
 3249DOPG   C4A60848  21.630   9.050  15.700
 3249DOPG   C1B60849  20.890   8.830  16.910
 3249DOPG   D2B60850  20.910   9.150  16.590
 3249DOPG   C3B60851  21.110   9.270  16.190
 3249DOPG   C4B60852  21.530   9.440  16.200
 3250DOPG   GL060853  17.040   7.480  13.040
 3250DOPG   PO460854  17.350   7.410  13.260
 3250DOPG   GL160855  17.690   7.800  13.280
 3250DOPG   GL260856  18.080   7.770  13.260
 3250DOPG   C1A60857  17.800   8.240  13.210
 3250DOPG   D2A60858  17.960   8.740  13.300
 3250DOPG   C3A60859  18.120   8.950  13.580
 3250DOPG   C4A60860  18.510   9.020  13.810
 3250DOPG   C1B60861  18.470   7.980  13.280
 3250DOPG   D2B60862  18.800   8.320  13.330
 3250DOPG   C3B60863  18.980   8.440  12.900
 3250DOPG   C4B60864  18.710   8.470  12.610
 3251DOPG   GL060865  24.530  10.360  18.180
 3251DOPG   PO460866  24.360  10.830  18.300
 3251DOPG   GL160867  24.110  11.030  17.980
 3251DOPG   GL260868  23.840  11.170  18.070
 3251DOPG   C1A60869  23.800  10.910  17.590
 3251DOPG   D2A60870  23.580  10.940  17.210
 3251DOPG   C3A60871  23.350  10.740  17.070
 3251DOPG   C4A60872  23.260  10.400  17.040
 3251DOPG   C1B60873  23.740  11.360  17.700
 3251DOPG   D2B60874  23.660  11.500  17.350
 3251DOPG   C3B60875  23.360  11.780  17.230
 3251DOPG   C4B60876  23.120  11.990  16.880
 3252DOPG   GL060877  26.190  16.040  16.280
 3252DOPG   PO460878  26.010  15.860  16.710
 3252DOPG   GL160879  25.810  15.630  16.440
 3252DOPG   GL260880  25.840  15.720  16.210
 3252DOPG   C1A60881  25.470  15.280  16.270
 3252DOPG   D2A60882  25.140  14.950  16.270
 3252DOPG   C3A60883  24.870  14.890  15.940
 3252DOPG   C4A60884  24.470  14.940  15.850
 3252DOPG   C1B60885  25.610  15.670  15.920
 3252DOPG   D2B60886  25.530  15.360  15.740
 3252DOPG   C3B60887  25.120  15.290  15.840
 3252DOPG   C4B60888  24.740  15.470  15.810
 3253DOPG   GL060889  18.620  27.380   9.160
 3253DOPG   PO460890  18.420  27.070   8.810
 3253DOPG   GL160891  17.930  26.960   8.650
 3253DOPG   GL260892  18.000  26.550   8.900
 3253DOPG   C1A60893  17.600  26.600   8.650
 3253DOPG   D2A60894  17.540  26.200   8.790
 3253DOPG   C3A60895  17.450  25.860   8.680
 3253DOPG   C4A60896  17.030  25.580   8.550
 3253DOPG   C1B60897  17.700  26.460   9.240
 3253DOPG   D2B60898  17.240  26.240   9.230
 3253DOPG   C3B60899  17.010  25.970   8.880
 3253DOPG   C4B60900  16.600  25.770   8.730
 3254DOPG   GL060901  24.400   8.790  17.990
 3254DOPG   PO460902  24.470   9.070  17.600
 3254DOPG   GL160903  24.200   9.250  17.290
 3254DOPG   GL260904  24.380   9.100  16.990
 3254DOPG   C1A60905  24.130   9.600  17.020
 3254DOPG   D2A60906  23.890   9.960  16.950
 3254DOPG   C3A60907  24.030  10.210  16.610
 3254DOPG   C4A60908  24.200  10.550  16.530
 3254DOPG   C1B60909  24.140   9.310  16.630
 3254DOPG   D2B60910  23.780   9.710  16.510
 3254DOPG   C3B60911  23.770   9.790  16.130
 3254DOPG   C4B60912  23.920   9.570  15.800
 3255DOPG   GL060913  19.600  21.350   8.750
 3255DOPG   PO460914  19.390  21.180   8.380
 3255DOPG   GL160915  19.480  21.450   8.250
 3255DOPG   GL260916  19.480  21.780   8.110
 3255DOPG   C1A60917  19.540  21.520   7.720
 3255DOPG   D2A60918  19.370  21.710   7.340
 3255DOPG   C3A60919  19.550  22.030   7.160
 3255DOPG   C4A60920  19.370  22.250   6.730
 3255DOPG   C1B60921  19.610  21.970   7.790
 3255DOPG   D2B60922  19.920  22.190   7.490
 3255DOPG   C3B60923  19.970  22.270   7.120
 3255DOPG   C4B60924  19.770  22.510   6.750
 3256DOPG   GL060925  19.590  13.840  19.170
 3256DOPG   PO460926  19.470  13.430  18.970
 3256DOPG   GL160927  19.320  13.190  18.540
 3256DOPG   GL260928  19.380  12.910  18.360
 3256DOPG   C1A60929  19.110  13.360  18.160
 3256DOPG   D2A60930  19.090  13.660  17.800
 3256DOPG   C3A60931  19.400  13.620  17.410
 3256DOPG   C4A60932  19.830  13.780  17.210
 3256DOPG   C1B60933  19.620  13.050  18.000
 3256DOPG   D2B60934  20.070  13.050  17.870
 3256DOPG   C3B60935  20.450  13.250  18.090
 3256DOPG   C4B60936  20.670  13.600  18.250
 3257DOPG   GL060937  15.680   7.290  11.700
 3257DOPG   PO460938  15.360   7.030  11.660
 3257DOPG   GL160939  15.430   6.690  11.330
 3257DOPG   GL260940  15.720   6.520  11.230
 3257DOPG   C1A60941  15.190   6.450  11.010
 3257DOPG   D2A60942  15.330   6.160  10.730
 3257DOPG   C3A60943  15.110   5.800  10.640
 3257DOPG   C4A60944  14.710   5.530  10.660
 3257DOPG   C1B60945  15.730   5.980  11.120
 3257DOPG   D2B60946  15.870   5.760  10.830
 3257DOPG   C3B60947  16.270   5.950  10.740
 3257DOPG   C4B60948  16.650   6.220  10.970
 3258DOPG   GL060949  24.870   9.920   9.750
 3258DOPG   PO460950  24.750   9.610  10.090
 3258DOPG   GL160951  24.400   9.760  10.410
 3258DOPG   GL260952  24.330   9.590  10.700
 3258DOPG   C1A60953  24.280  10.090  10.520
 3258DOPG   D2A60954  23.900  10.210  10.810
 3258DOPG   C3A60955  23.690  10.510  11.090
 3258DOPG   C4A60956  23.320  10.810  11.000
 3258DOPG   C1B60957  23.850   9.740  10.780
 3258DOPG   D2B60958  23.470   9.930  10.970
 3258DOPG   C3B60959  23.520  10.060  11.410
 3258DOPG   C4B60960  23.490  10.560  11.560
 3259DOPG   GL060961  13.940  18.180  17.560
 3259DOPG   PO460962  14.310  18.010  17.460
 3259DOPG   GL160963  14.450  18.120  17.110
 3259DOPG   GL260964  14.290  18.080  16.680
 3259DOPG   C1A60965  14.710  18.100  16.820
 3259DOPG   D2A60966  15.180  17.970  16.650
 3259DOPG   C3A60967  15.340  17.670  16.450
 3259DOPG   C4A60968  15.610  17.660  16.120
 3259DOPG   C1B60969  14.620  17.960  16.350
 3259DOPG   D2B60970  14.820  17.610  16.240
 3259DOPG   C3B60971  14.590  17.160  16.320
 3259DOPG   C4B60972  14.510  16.730  16.130
 3260DOPG   GL060973  22.280   6.760  11.950
 3260DOPG   PO460974  22.170   6.820  11.520
 3260DOPG   GL160975  22.280   7.220  11.520
 3260DOPG   GL260976  21.980   7.450  11.440
 3260DOPG   C1A60977  22.470   7.630  11.590
 3260DOPG   D2A60978  22.750   7.870  11.740
 3260DOPG   C3A60979  22.730   8.040  12.140
 3260DOPG   C4A60980  22.970   8.440  12.300
 3260DOPG   C1B60981  22.050   7.810  11.630
 3260DOPG   D2B60982  21.950   8.170  11.440
 3260DOPG   C3B60983  21.960   8.570  11.740
 3260DOPG   C4B60984  21.740   8.750  12.060
 3261DOPG   GL060985  10.060  13.030   6.170
 3261DOPG   PO460986  10.330  12.880   5.850
 3261DOPG   GL160987  10.620  12.930   6.200
 3261DOPG   GL260988  10.360  12.710   6.560
 3261DOPG   C1A60989  10.880  13.020   6.490
 3261DOPG   D2A60990  11.100  13.200   6.820
 3261DOPG   C3A60991  11.160  13.060   7.210
 3261DOPG   C4A60992  11.160  13.000   7.770
 3261DOPG   C1B60993  10.260  12.680   7.030
 3261DOPG   D2B60994  10.460  12.560   7.400
 3261DOPG   C3B60995  10.820  12.660   7.560
 3261DOPG   C4B60996  11.120  12.510   7.850
 3262DOPG   GL060997  13.370  20.940  13.860
 3262DOPG   PO460998  13.700  20.720  13.740
 3262DOPG   GL160999  14.010  20.600  13.750
 3262DOPG   GL261000  14.100  20.470  13.390
 3262DOPG   C1A61001  14.350  20.210  13.850
 3262DOPG   D2A61002  14.320  19.820  13.690
 3262DOPG   C3A61003  14.700  19.780  13.490
 3262DOPG   C4A61004  15.080  19.640  13.220
 3262DOPG   C1B61005  14.310  20.170  13.100
 3262DOPG   D2B61006  14.350  19.800  13.060
 3262DOPG   C3B61007  14.710  19.670  12.920
 3262DOPG   C4B61008  15.010  19.390  12.770
 3263DOPG   GL061009  23.450  18.920  18.200
 3263DOPG   PO461010  23.170  19.050  17.890
 3263DOPG   GL161011  23.010  18.940  17.550
 3263DOPG   GL261012  23.160  18.600  17.460
 3263DOPG   C1A61013  22.760  19.010  17.090
 3263DOPG   D2A61014  22.490  18.860  16.730
 3263DOPG   C3A61015  22.580  18.530  16.430
 3263DOPG   C4A61016  22.830  18.360  16.160
 3263DOPG   C1B61017  23.180  18.740  17.000
 3263DOPG   D2B61018  22.970  18.810  16.560
 3263DOPG   C3B61019  22.770  18.820  16.040
 3263DOPG   C4B61020  22.490  18.620  15.890
 3264DOPG   GL061021  12.770   6.360  21.300
 3264DOPG   PO461022  12.940   5.960  21.520
 3264DOPG   GL161023  13.350   6.250  21.430
 3264DOPG   GL261024  13.290   6.070  21.100
 3264DOPG   C1A61025  13.550   6.590  21.300
 3264DOPG   D2A61026  13.620   6.780  20.910
 3264DOPG   C3A61027  13.280   6.770  20.630
 3264DOPG   C4A61028  13.070   6.600  20.290
 3264DOPG   C1B61029  13.160   6.470  21.030
 3264DOPG   D2B61030  13.130   6.860  21.120
 3264DOPG   C3B61031  12.850   7.210  21.070
 3264DOPG   C4B61032  12.460   7.400  20.940
 3265DOPG   GL061033  29.920   9.480   8.890
 3265DOPG   PO461034  30.030   9.220   9.360
 3265DOPG   GL161035  29.820   9.090   9.730
 3265DOPG   GL261036  29.920   9.210   9.990
 3265DOPG   C1A61037  29.430   8.890   9.800
 3265DOPG   D2A61038  29.110   8.720   9.800
 3265DOPG   C3A61039  28.640   8.680   9.780
 3265DOPG   C4A61040  28.310   8.810   9.630
 3265DOPG   C1B61041  30.150   9.630   9.820
 3265DOPG   D2B61042  30.250  10.110   9.990
 3265DOPG   C3B61043  30.200  10.510   9.890
 3265DOPG   C4B61044  30.560  10.810   9.760
 3266DOPG   GL061045  16.020   1.980  11.480
 3266DOPG   PO461046  16.380   1.710  11.330
 3266DOPG   GL161047  16.520   2.150  11.620
 3266DOPG   GL261048  16.450   2.400  11.410
 3266DOPG   C1A61049  16.550   2.420  11.980
 3266DOPG   D2A61050  16.440   2.790  12.310
 3266DOPG   C3A61051  16.040   2.730  12.540
 3266DOPG   C4A61052  15.770   2.470  12.620
 3266DOPG   C1B61053  16.860   2.630  11.410
 3266DOPG   D2B61054  17.330   2.790  11.310
 3266DOPG   C3B61055  17.540   3.000  11.660
 3266DOPG   C4B61056  17.710   3.320  11.790
 3267DOPG   GL061057  26.480  22.590   7.790
 3267DOPG   PO461058  26.800  22.400   7.530
 3267DOPG   GL161059  26.590  22.080   7.420
 3267DOPG   GL261060  26.680  21.730   7.330
 3267DOPG   C1A61061  26.170  21.950   7.560
 3267DOPG   D2A61062  25.850  21.810   7.820
 3267DOPG   C3A61063  25.470  21.870   8.010
 3267DOPG   C4A61064  25.100  21.730   8.120
 3267DOPG   C1B61065  26.600  21.360   7.070
 3267DOPG   D2B61066  26.200  21.090   7.100
 3267DOPG   C3B61067  25.960  20.980   6.750
 3267DOPG   C4B61068  25.980  20.950   6.340
 3268DOPG   GL061069  20.870  15.780   8.020
 3268DOPG   PO461070  21.130  15.690   8.280
 3268DOPG   GL161071  21.250  15.620   8.740
 3268DOPG   GL261072  21.580  15.620   8.760
 3268DOPG   C1A61073  21.180  15.410   9.160
 3268DOPG   D2A61074  21.280  15.060   9.330
 3268DOPG   C3A61075  21.370  14.980   9.770
 3268DOPG   C4A61076  21.210  15.120  10.150
 3268DOPG   C1B61077  21.520  15.850   9.130
 3268DOPG   D2B61078  21.560  15.850   9.560
 3268DOPG   C3B61079  21.480  16.180   9.860
 3268DOPG   C4B61080  21.540  16.600  10.120
 3269DOPG   GL061081  19.670  22.750  13.860
 3269DOPG   PO461082  19.800  22.820  13.430
 3269DOPG   GL161083  19.540  22.450  13.420
 3269DOPG   GL261084  19.300  22.420  13.080
 3269DOPG   C1A61085  19.670  22.050  13.560
 3269DOPG   D2A61086  19.680  21.540  13.670
 3269DOPG   C3A61087  19.590  21.200  13.380
 3269DOPG   C4A61088  19.660  20.830  13.360
 3269DOPG   C1B61089  19.190  22.080  13.350
 3269DOPG   D2B61090  19.280  21.830  13.740
 3269DOPG   C3B61091  19.180  21.290  13.930
 3269DOPG   C4B61092  19.430  20.910  13.860
 3270DOPG   GL061093  15.070  25.950  17.990
 3270DOPG   PO461094  14.910  25.820  17.740
 3270DOPG   GL161095  15.050  25.440  17.830
 3270DOPG   GL261096  14.930  25.180  17.970
 3270DOPG   C1A61097  15.170  25.150  17.530
 3270DOPG   D2A61098  15.340  25.140  17.130
 3270DOPG   C3A61099  15.080  24.940  16.790
 3270DOPG   C4A61100  14.980  25.170  16.450
 3270DOPG   C1B61101  14.840  24.800  17.740
 3270DOPG   D2B61102  14.820  24.390  17.420
 3270DOPG   C3B61103  14.690  23.920  17.530
 3270DOPG   C4B61104  14.590  23.410  17.520
 3271DOPG   GL061105  25.190  21.880   5.590
 3271DOPG   PO461106  25.250  21.410   5.740
 3271DOPG   GL161107  25.180  21.040   6.020
 3271DOPG   GL261108  25.290  20.770   6.050
 3271DOPG   C1A61109  24.990  21.000   6.410
 3271DOPG   D2A61110  24.760  21.180   6.760
 3271DOPG   C3A61111  24.350  21.030   6.850
 3271DOPG   C4A61112  24.230  20.760   7.270
 3271DOPG   C1B61113  24.980  20.540   5.880
 3271DOPG   D2B61114  24.790  20.180   5.950
 3271DOPG   C3B61115  24.800  19.980   6.360
 3271DOPG   C4B61116  24.930  19.760   6.750
 3272DOPG   GL061117  17.730   4.000   7.560
 3272DOPG   PO461118  18.190   4.110   7.670
 3272DOPG   GL161119  18.470   4.410   7.960
 3272DOPG   GL261120  18.680   4.610   7.830
 3272DOPG   C1A61121  18.320   4.790   8.100
 3272DOPG   D2A61122  18.400   5.190   8.240
 3272DOPG   C3A61123  18.270   5.310   8.660
 3272DOPG   C4A61124  18.090   5.260   9.050
 3272DOPG   C1B61125  18.620   5.010   7.730
 3272DOPG   D2B61126  18.850   5.340   7.980
 3272DOPG   C3B61127  18.590   5.760   7.950
 3272DOPG   C4B61128  18.250   6.200   8.090
 3273DOPG   GL061129  24.340  14.050   8.430
 3273DOPG   PO461130  24.230  13.660   8.690
 3273DOPG   GL161131  23.910  13.670   9.050
 3273DOPG   GL261132  23.880  13.940   9.150
 3273DOPG   C1A61133  23.740  13.530   9.440
 3273DOPG   D2A61134  23.480  13.730   9.790
 3273DOPG   C3A61135  23.230  13.850  10.070
 3273DOPG   C4A61136  22.870  14.060  10.300
 3273DOPG   C1B61137  23.830  14.050   9.600
 3273DOPG   D2B61138  23.960  13.850  10.080
 3273DOPG   C3B61139  23.920  13.940  10.500
 3273DOPG   C4B61140  23.780  14.170  10.880
 3274DOPG   GL061141  25.990   4.750  20.330
 3274DOPG   PO461142  26.230   4.890  20.660
 3274DOPG   GL161143  25.910   5.270  20.430
 3274DOPG   GL261144  26.040   5.540  20.540
 3274DOPG   C1A61145  25.600   5.530  20.330
 3274DOPG   D2A61146  25.260   5.910  20.410
 3274DOPG   C3A61147  25.020   6.250  20.530
 3274DOPG   C4A61148  24.680   6.320  20.750
 3274DOPG   C1B61149  26.160   6.000  20.440
 3274DOPG   D2B61150  26.390   6.440  20.320
 3274DOPG   C3B61151  26.290   6.560  19.940
 3274DOPG   C4B61152  25.820   6.670  19.790
 3275DOPG   GL061153  19.560   3.600   7.870
 3275DOPG   PO461154  19.860   3.560   7.650
 3275DOPG   GL161155  19.920   3.990   7.890
 3275DOPG   GL261156  19.800   4.230   7.710
 3275DOPG   C1A61157  20.190   4.290   8.060
 3275DOPG   D2A61158  20.200   4.180   8.430
 3275DOPG   C3A61159  19.870   3.980   8.750
 3275DOPG   C4A61160  19.600   3.990   9.140
 3275DOPG   C1B61161  19.670   4.260   8.210
 3275DOPG   D2B61162  19.820   4.540   8.600
 3275DOPG   C3B61163  20.220   4.640   8.620
 3275DOPG   C4B61164  20.300   4.900   8.980
 3276DOPG   GL061165  26.130  10.530  16.930
 3276DOPG   PO461166  26.030  10.970  16.930
 3276DOPG   GL161167  25.930  11.350  16.640
 3276DOPG   GL261168  25.950  11.800  16.670
 3276DOPG   C1A61169  25.890  11.420  16.150
 3276DOPG   D2A61170  26.000  11.290  15.720
 3276DOPG   C3A61171  25.650  11.280  15.550
 3276DOPG   C4A61172  25.360  11.510  15.580
 3276DOPG   C1B61173  25.700  11.860  16.340
 3276DOPG   D2B61174  25.630  11.820  15.930
 3276DOPG   C3B61175  25.260  11.970  15.780
 3276DOPG   C4B61176  25.070  12.190  15.450
 3277DOPG   GL061177  12.940  16.910  10.640
 3277DOPG   PO461178  13.250  16.760  10.380
 3277DOPG   GL161179  13.400  16.640  10.830
 3277DOPG   GL261180  13.590  16.450  10.670
 3277DOPG   C1A61181  13.700  16.550  11.170
 3277DOPG   D2A61182  14.030  16.300  11.400
 3277DOPG   C3A61183  14.450  16.630  11.470
 3277DOPG   C4A61184  14.930  16.560  11.420
 3277DOPG   C1B61185  14.100  16.450  10.840
 3277DOPG   D2B61186  14.550  16.310  11.110
 3277DOPG   C3B61187  14.930  16.340  10.870
 3277DOPG   C4B61188  15.370  16.200  11.010
 3278DOPG   GL061189  14.860  19.240  17.000
 3278DOPG   PO461190  15.050  19.610  17.090
 3278DOPG   GL161191  15.320  19.460  16.760
 3278DOPG   GL261192  15.400  19.210  16.730
 3278DOPG   C1A61193  15.290  19.240  16.250
 3278DOPG   D2A61194  15.090  19.370  15.810
 3278DOPG   C3A61195  15.030  19.870  15.620
 3278DOPG   C4A61196  15.070  20.200  15.380
 3278DOPG   C1B61197  15.590  18.970  16.600
 3278DOPG   D2B61198  15.630  18.850  16.110
 3278DOPG   C3B61199  15.930  18.630  15.850
 3278DOPG   C4B61200  16.160  18.550  15.350
 3279DOPG   GL061201  24.530  18.500   4.350
 3279DOPG   PO461202  24.790  18.300   4.190
 3279DOPG   GL161203  24.890  17.960   4.340
 3279DOPG   GL261204  24.710  17.680   4.290
 3279DOPG   C1A61205  25.050  17.740   4.750
 3279DOPG   D2A61206  24.980  17.560   5.050
 3279DOPG   C3A61207  25.260  17.360   5.340
 3279DOPG   C4A61208  25.230  17.160   5.770
 3279DOPG   C1B61209  24.580  17.900   4.670
 3279DOPG   D2B61210  24.560  17.800   5.030
 3279DOPG   C3B61211  24.460  17.490   5.420
 3279DOPG   C4B61212  24.810  17.190   5.420
 3280DOPG   GL061213  18.350   2.090  19.700
 3280DOPG   PO461214  18.550   2.370  19.430
 3280DOPG   GL161215  18.600   2.770  19.350
 3280DOPG   GL261216  18.380   2.940  19.220
 3280DOPG   C1A61217  18.840   3.100  19.300
 3280DOPG   D2A61218  18.980   3.490  19.500
 3280DOPG   C3A61219  19.380   3.730  19.500
 3280DOPG   C4A61220  19.470   4.180  19.550
 3280DOPG   C1B61221  18.320   3.170  18.890
 3280DOPG   D2B61222  18.270   3.500  18.690
 3280DOPG   C3B61223  18.400   4.000  18.870
 3280DOPG   C4B61224  18.540   4.330  18.570
 3281DOPG   GL061225  15.570   2.090  12.470
 3281DOPG   PO461226  15.350   1.830  12.140
 3281DOPG   GL161227  15.580   2.250  11.990
 3281DOPG   GL261228  15.610   2.540  12.140
 3281DOPG   C1A61229  16.070   2.320  11.810
 3281DOPG   D2A61230  16.290   2.780  11.770
 3281DOPG   C3A61231  16.080   3.200  11.850
 3281DOPG   C4A61232  16.150   3.590  11.950
 3281DOPG   C1B61233  15.780   2.960  12.160
 3281DOPG   D2B61234  15.650   3.400  12.060
 3281DOPG   C3B61235  15.250   3.590  11.830
 3281DOPG   C4B61236  14.880   3.390  11.600
 3282DOPG   GL061237  24.850   8.270  17.430
 3282DOPG   PO461238  24.500   8.150  17.180
 3282DOPG   GL161239  24.240   8.370  16.900
 3282DOPG   GL261240  24.160   8.690  16.810
 3282DOPG   C1A61241  23.770   8.430  16.880
 3282DOPG   D2A61242  23.400   8.450  16.480
 3282DOPG   C3A61243  23.500   8.780  16.120
 3282DOPG   C4A61244  23.230   8.800  15.760
 3282DOPG   C1B61245  24.010   8.680  16.320
 3282DOPG   D2B61246  23.910   9.000  15.960
 3282DOPG   C3B61247  23.520   9.290  15.760
 3282DOPG   C4B61248  23.240   9.680  15.920
 3283DOPG   GL061249  26.210  18.310  15.150
 3283DOPG   PO461250  26.000  18.000  14.890
 3283DOPG   GL161251  25.750  17.710  14.920
 3283DOPG   GL261252  25.550  17.810  14.940
 3283DOPG   C1A61253  25.530  17.390  14.650
 3283DOPG   D2A61254  25.260  17.080  14.440
 3283DOPG   C3A61255  24.840  16.850  14.530
 3283DOPG   C4A61256  24.380  16.870  14.380
 3283DOPG   C1B61257  25.230  17.560  15.040
 3283DOPG   D2B61258  25.080  17.210  14.870
 3283DOPG   C3B61259  24.710  17.020  14.960
 3283DOPG   C4B61260  24.300  16.820  14.830
 3284DOPG   GL061261  17.960  11.120  24.700
 3284DOPG   PO461262  18.300  11.440  24.810
 3284DOPG   GL161263  18.640  11.600  24.470
 3284DOPG   GL261264  18.900  11.490  24.400
 3284DOPG   C1A61265  18.500  11.780  24.040
 3284DOPG   D2A61266  18.610  12.000  23.720
 3284DOPG   C3A61267  18.660  12.180  23.380
 3284DOPG   C4A61268  18.360  12.290  23.130
 3284DOPG   C1B61269  19.040  11.750  24.090
 3284DOPG   D2B61270  19.350  12.070  24.180
 3284DOPG   C3B61271  19.560  12.130  23.860
 3284DOPG   C4B61272  19.540  12.110  23.500
 3285DOPG   GL061273  18.480  12.590   8.290
 3285DOPG   PO461274  18.570  12.480   8.640
 3285DOPG   GL161275  18.390  12.750   8.970
 3285DOPG   GL261276  18.140  12.890   8.900
 3285DOPG   C1A61277  18.430  13.240   9.090
 3285DOPG   D2A61278  18.310  13.590   9.420
 3285DOPG   C3A61279  18.380  13.540   9.880
 3285DOPG   C4A61280  18.630  13.160  10.030
 3285DOPG   C1B61281  18.040  12.850   9.270
 3285DOPG   D2B61282  18.050  12.650   9.650
 3285DOPG   C3B61283  18.130  12.970  10.070
 3285DOPG   C4B61284  18.210  13.260  10.370
 3286DOPG   GL061285  13.330   6.840   6.860
 3286DOPG   PO461286  13.560   6.980   6.480
 3286DOPG   GL161287  13.750   7.190   6.820
 3286DOPG   GL261288  13.820   7.520   6.630
 3286DOPG   C1A61289  13.730   7.350   7.180
 3286DOPG   D2A61290  13.620   7.540   7.620
 3286DOPG   C3A61291  13.950   7.670   7.940
 3286DOPG   C4A61292  14.170   7.690   8.340
 3286DOPG   C1B61293  14.160   7.740   6.810
 3286DOPG   D2B61294  14.340   8.100   6.950
 3286DOPG   C3B61295  14.420   8.240   7.230
 3286DOPG   C4B61296  14.660   8.190   7.580
 3287DOPG   GL061297  16.810  23.940  20.040
 3287DOPG   PO461298  16.710  24.350  19.910
 3287DOPG   GL161299  16.850  24.160  19.580
 3287DOPG   GL261300  16.990  23.910  19.630
 3287DOPG   C1A61301  17.090  24.390  19.300
 3287DOPG   D2A61302  17.270  24.470  18.920
 3287DOPG   C3A61303  17.370  24.410  18.430
 3287DOPG   C4A61304  17.650  24.150  18.200
 3287DOPG   C1B61305  17.030  23.630  19.230
 3287DOPG   D2B61306  17.130  23.570  18.820
 3287DOPG   C3B61307  17.560  23.470  18.790
 3287DOPG   C4B61308  17.910  23.160  18.680
 3288DOPG   GL061309  12.920  17.520   9.960
 3288DOPG   PO461310  12.820  17.700  10.350
 3288DOPG   GL161311  13.200  17.620  10.780
 3288DOPG   GL261312  13.190  17.240  10.880
 3288DOPG   C1A61313  13.520  17.590  11.120
 3288DOPG   D2A61314  13.920  17.330  11.230
 3288DOPG   C3A61315  14.400  17.400  11.140
 3288DOPG   C4A61316  14.660  17.240  10.900
 3288DOPG   C1B61317  13.500  17.010  11.130
 3288DOPG   D2B61318  13.760  16.880  11.590
 3288DOPG   C3B61319  14.050  16.640  11.770
 3288DOPG   C4B61320  14.260  16.340  11.870
 3289DOPG   GL061321  18.130   9.730   8.950
 3289DOPG   PO461322  18.190  10.080   9.170
 3289DOPG   GL161323  18.380  10.110   9.580
 3289DOPG   GL261324  18.470   9.870   9.610
 3289DOPG   C1A61325  18.550  10.580   9.610
 3289DOPG   D2A61326  18.760  10.890   9.680
 3289DOPG   C3A61327  18.780  11.320   9.610
 3289DOPG   C4A61328  18.960  11.730   9.830
 3289DOPG   C1B61329  18.830  10.070   9.830
 3289DOPG   D2B61330  19.200  10.150   9.990
 3289DOPG   C3B61331  19.150   9.950  10.330
 3289DOPG   C4B61332  18.880   9.550  10.340
 3290DOPG   GL061333  21.680  16.030  12.760
 3290DOPG   PO461334  21.820  16.330  12.390
 3290DOPG   GL161335  21.940  16.520  12.110
 3290DOPG   GL261336  22.290  16.710  12.040
 3290DOPG   C1A61337  21.890  16.710  11.700
 3290DOPG   D2A61338  21.850  16.610  11.280
 3290DOPG   C3A61339  22.180  16.450  11.010
 3290DOPG   C4A61340  22.420  16.420  10.530
 3290DOPG   C1B61341  22.680  16.840  11.980
 3290DOPG   D2B61342  23.160  16.720  11.890
 3290DOPG   C3B61343  23.500  16.890  12.210
 3290DOPG   C4B61344  23.670  16.910  12.620
 3291DOPG   GL061345  15.240   1.310  16.890
 3291DOPG   PO461346  15.570   1.240  16.570
 3291DOPG   GL161347  15.990   1.350  16.430
 3291DOPG   GL261348  16.200   1.520  16.620
 3291DOPG   C1A61349  16.160   1.590  16.110
 3291DOPG   D2A61350  16.290   2.030  16.060
 3291DOPG   C3A61351  16.060   2.390  15.850
 3291DOPG   C4A61352  16.120   2.800  15.990
 3291DOPG   C1B61353  16.470   1.810  16.640
 3291DOPG   D2B61354  16.520   2.200  16.390
 3291DOPG   C3B61355  16.320   2.620  16.540
 3291DOPG   C4B61356  16.270   3.020  16.420
 3292DOPG   GL061357  21.470   9.740  13.560
 3292DOPG   PO461358  21.140   9.690  13.800
 3292DOPG   GL161359  21.310   9.270  13.530
 3292DOPG   GL261360  21.510   9.140  13.230
 3292DOPG   C1A61361  21.100   8.930  13.550
 3292DOPG   D2A61362  21.270   8.680  13.350
 3292DOPG   C3A61363  21.220   8.630  12.790
 3292DOPG   C4A61364  21.300   8.800  12.340
 3292DOPG   C1B61365  21.190   9.070  12.910
 3292DOPG   D2B61366  21.150   9.530  12.670
 3292DOPG   C3B61367  20.890   9.700  12.450
 3292DOPG   C4B61368  20.480   9.540  12.320
 3293DOPG   GL061369  18.590  11.150   8.700
 3293DOPG   PO461370  19.040  11.060   8.730
 3293DOPG   GL161371  18.790  11.370   9.080
 3293DOPG   GL261372  18.510  11.310   9.220
 3293DOPG   C1A61373  18.880  11.740   9.310
 3293DOPG   D2A61374  18.680  12.130   9.550
 3293DOPG   C3A61375  18.660  12.090   9.980
 3293DOPG   C4A61376  18.570  11.760  10.290
 3293DOPG   C1B61377  18.320  10.980   9.460
 3293DOPG   D2B61378  18.220  10.870   9.840
 3293DOPG   C3B61379  18.460  10.960  10.350
 3293DOPG   C4B61380  18.730  10.930  10.720
 3294DOPG   GL061381  27.810  11.510  13.090
 3294DOPG   PO461382  27.810  11.580  13.580
 3294DOPG   GL161383  27.550  11.810  13.850
 3294DOPG   GL261384  27.460  11.480  14.050
 3294DOPG   C1A61385  27.090  11.750  14.120
 3294DOPG   D2A61386  26.750  11.570  14.310
 3294DOPG   C3A61387  26.680  11.740  14.660
 3294DOPG   C4A61388  26.670  12.200  14.850
 3294DOPG   C1B61389  26.990  11.390  13.820
 3294DOPG   D2B61390  26.590  11.270  13.930
 3294DOPG   C3B61391  26.280  11.400  14.080
 3294DOPG   C4B61392  26.160  11.580  14.450
 3295DOPG   GL061393  14.790  20.640  16.830
 3295DOPG   PO461394  14.860  20.980  17.070
 3295DOPG   GL161395  14.600  21.250  17.350
 3295DOPG   GL261396  14.220  21.130  17.360
 3295DOPG   C1A61397  14.420  21.540  17.640
 3295DOPG   D2A61398  14.520  21.830  18.040
 3295DOPG   C3A61399  14.430  22.280  18.210
 3295DOPG   C4A61400  14.750  22.620  18.260
 3295DOPG   C1B61401  13.900  21.150  17.720
 3295DOPG   D2B61402  14.040  21.270  18.050
 3295DOPG   C3B61403  14.040  21.750  18.050
 3295DOPG   C4B61404  14.110  22.190  17.860
 3296DOPG   GL061405  17.670  18.830  13.620
 3296DOPG   PO461406  17.660  19.300  13.470
 3296DOPG   GL161407  17.810  19.290  13.840
 3296DOPG   GL261408  18.090  19.580  13.850
 3296DOPG   C1A61409  17.700  19.360  14.200
 3296DOPG   D2A61410  17.770  19.620  14.560
 3296DOPG   C3A61411  17.880  20.010  14.500
 3296DOPG   C4A61412  18.170  20.430  14.360
 3296DOPG   C1B61413  18.230  19.580  14.340
 3296DOPG   D2B61414  18.150  19.300  14.690
 3296DOPG   C3B61415  17.960  19.350  15.010
 3296DOPG   C4B61416  17.860  19.410  15.420
 3297DOPG   GL061417  19.670  19.740   9.430
 3297DOPG   PO461418  19.510  19.940   9.120
 3297DOPG   GL161419  19.240  19.990   9.490
 3297DOPG   GL261420  19.440  20.100   9.740
 3297DOPG   C1A61421  19.080  19.640   9.650
 3297DOPG   D2A61422  18.650  19.540   9.830
 3297DOPG   C3A61423  18.500  19.180  10.000
 3297DOPG   C4A61424  18.570  18.750  10.100
 3297DOPG   C1B61425  19.100  20.080  10.050
 3297DOPG   D2B61426  18.990  20.070  10.420
 3297DOPG   C3B61427  19.170  19.880  10.790
 3297DOPG   C4B61428  19.290  19.750  11.100
 3298DOPG   GL061429  13.290  15.370   8.580
 3298DOPG   PO461430  13.170  15.000   8.720
 3298DOPG   GL161431  12.950  14.850   8.360
 3298DOPG   GL261432  12.960  14.520   8.290
 3298DOPG   C1A61433  12.910  14.850   7.890
 3298DOPG   D2A61434  12.630  14.990   7.440
 3298DOPG   C3A61435  12.460  14.680   7.190
 3298DOPG   C4A61436  12.630  14.320   7.380
 3298DOPG   C1B61437  12.960  14.390   7.860
 3298DOPG   D2B61438  13.060  14.030   7.500
 3298DOPG   C3B61439  12.910  13.660   7.240
 3298DOPG   C4B61440  12.730  13.480   6.880
 3299DOPG   GL061441  20.060  10.450  19.880
 3299DOPG   PO461442  19.820  10.450  20.240
 3299DOPG   GL161443  19.770  10.310  20.670
 3299DOPG   GL261444  19.420  10.220  20.790
 3299DOPG   C1A61445  20.060  10.060  20.990
 3299DOPG   D2A61446  20.060  10.030  21.360
 3299DOPG   C3A61447  20.350   9.830  21.550
 3299DOPG   C4A61448  20.730   9.750  21.830
 3299DOPG   C1B61449  19.500  10.140  21.260
 3299DOPG   D2B61450  19.660  10.160  21.590
 3299DOPG   C3B61451  20.030  10.230  21.840
 3299DOPG   C4B61452  20.260  10.350  22.170
 3300DOPG   GL061453  24.540  11.920  14.020
 3300DOPG   PO461454  24.110  11.900  14.050
 3300DOPG   GL161455  24.230  11.550  14.380
 3300DOPG   GL261456  24.390  11.400  14.140
 3300DOPG   C1A61457  24.120  11.280  14.650
 3300DOPG   D2A61458  24.340  11.020  14.910
 3300DOPG   C3A61459  24.650  11.050  15.270
 3300DOPG   C4A61460  24.540  10.930  15.690
 3300DOPG   C1B61461  24.810  11.570  14.290
 3300DOPG   D2B61462  25.200  11.730  14.190
 3300DOPG   C3B61463  25.460  11.470  14.420
 3300DOPG   C4B61464  25.760  11.220  14.590
 3301DOPG   GL061465  19.450  10.480  12.670
 3301DOPG   PO461466  19.080  10.450  12.850
 3301DOPG   GL161467  18.920  10.470  12.480
 3301DOPG   GL261468  18.690  10.350  12.620
 3301DOPG   C1A61469  18.530  10.420  12.160
 3301DOPG   D2A61470  18.060  10.570  12.030
 3301DOPG   C3A61471  17.830  10.910  12.190
 3301DOPG   C4A61472  17.590  11.320  12.310
 3301DOPG   C1B61473  18.640   9.890  12.470
 3301DOPG   D2B61474  18.570   9.410  12.500
 3301DOPG   C3B61475  18.750   8.970  12.740
 3301DOPG   C4B61476  18.950   8.930  13.130
 3302DOPG   GL061477  19.550  26.970   8.170
 3302DOPG   PO461478  19.680  26.800   7.770
 3302DOPG   GL161479  19.650  26.420   7.970
 3302DOPG   GL261480  19.570  26.270   7.760
 3302DOPG   C1A61481  19.550  26.040   8.220
 3302DOPG   D2A61482  19.210  25.700   8.470
 3302DOPG   C3A61483  18.860  25.720   8.570
 3302DOPG   C4A61484  18.520  25.380   8.720
 3302DOPG   C1B61485  19.290  25.840   7.700
 3302DOPG   D2B61486  19.140  25.530   7.910
 3302DOPG   C3B61487  19.140  25.230   7.750
 3302DOPG   C4B61488  19.120  24.840   7.850
 3303DOPG   GL061489  25.130  18.730  15.670
 3303DOPG   PO461490  25.480  18.510  15.620
 3303DOPG   GL161491  25.190  18.330  15.310
 3303DOPG   GL261492  24.870  18.420  15.350
 3303DOPG   C1A61493  25.080  18.060  14.960
 3303DOPG   D2A61494  24.570  17.970  14.680
 3303DOPG   C3A61495  24.180  18.080  14.480
 3303DOPG   C4A61496  23.920  17.780  14.320
 3303DOPG   C1B61497  24.670  18.420  14.920
 3303DOPG   D2B61498  24.430  18.530  14.580
 3303DOPG   C3B61499  24.510  18.600  14.170
 3303DOPG   C4B61500  24.800  18.630  13.870
 3304DOPG   GL061501  19.500  25.650  20.000
 3304DOPG   PO461502  19.210  25.450  19.590
 3304DOPG   GL161503  19.450  25.070  19.360
 3304DOPG   GL261504  19.680  25.150  19.100
 3304DOPG   C1A61505  19.600  24.780  19.490
 3304DOPG   D2A61506  19.500  24.370  19.600
 3304DOPG   C3A61507  19.790  24.020  19.790
 3304DOPG   C4A61508  19.840  23.560  19.690
 3304DOPG   C1B61509  19.890  25.000  18.820
 3304DOPG   D2B61510  20.060  24.790  18.530
 3304DOPG   C3B61511  20.210  24.950  18.210
 3304DOPG   C4B61512  20.210  25.420  18.080
 3305DOPG   GL061513  21.810  26.990  10.520
 3305DOPG   PO461514  21.500  27.170  10.730
 3305DOPG   GL161515  21.340  26.710  10.920
 3305DOPG   GL261516  21.360  26.720  11.310
 3305DOPG   C1A61517  21.200  26.250  10.890
 3305DOPG   D2A61518  21.150  25.840  10.780
 3305DOPG   C3A61519  21.340  25.420  10.760
 3305DOPG   C4A61520  21.380  24.930  10.890
 3305DOPG   C1B61521  21.170  26.330  11.400
 3305DOPG   D2B61522  20.810  26.050  11.640
 3305DOPG   C3B61523  20.480  25.890  11.940
 3305DOPG   C4B61524  20.150  25.570  12.180
 3306DOPG   GL061525  22.980  14.610  14.410
 3306DOPG   PO461526  23.190  14.340  14.640
 3306DOPG   GL161527  23.530  14.490  14.970
 3306DOPG   GL261528  23.420  14.330  15.270
 3306DOPG   C1A61529  23.980  14.400  15.170
 3306DOPG   D2A61530  24.260  14.670  15.500
 3306DOPG   C3A61531  24.130  15.120  15.490
 3306DOPG   C4A61532  23.950  15.490  15.340
 3306DOPG   C1B61533  23.680  13.970  15.160
 3306DOPG   D2B61534  24.060  13.920  15.320
 3306DOPG   C3B61535  24.270  14.160  15.670
 3306DOPG   C4B61536  24.350  14.470  16.020
 3307DOPG   GL061537  25.360  12.970   3.780
 3307DOPG   PO461538  25.040  13.050   3.990
 3307DOPG   GL161539  25.140  13.130   4.350
 3307DOPG   GL261540  25.400  12.850   4.380
 3307DOPG   C1A61541  25.010  13.090   4.820
 3307DOPG   D2A61542  24.750  12.970   5.230
 3307DOPG   C3A61543  24.890  12.630   5.570
 3307DOPG   C4A61544  25.030  12.480   5.930
 3307DOPG   C1B61545  25.180  12.660   4.780
 3307DOPG   D2B61546  24.940  12.480   5.010
 3307DOPG   C3B61547  24.460  12.570   5.310
 3307DOPG   C4B61548  24.170  12.570   5.550
 3308DOPG   GL061549  31.520  16.390  17.670
 3308DOPG   PO461550  31.220  16.730  17.500
 3308DOPG   GL161551  30.900  16.630  17.230
 3308DOPG   GL261552  31.020  16.480  16.980
 3308DOPG   C1A61553  30.440  16.640  17.260
 3308DOPG   D2A61554  30.140  16.350  17.490
 3308DOPG   C3A61555  30.190  16.090  17.810
 3308DOPG   C4A61556  30.380  16.150  18.240
 3308DOPG   C1B61557  30.670  16.510  16.800
 3308DOPG   D2B61558  30.300  16.320  16.960
 3308DOPG   C3B61559  29.990  16.340  16.580
 3308DOPG   C4B61560  29.870  16.240  16.190
 3309DOPG   GL061561  17.990   5.520  16.630
 3309DOPG   PO461562  17.770   5.460  17.000
 3309DOPG   GL161563  17.790   5.310  17.400
 3309DOPG   GL261564  17.930   4.970  17.530
 3309DOPG   C1A61565  17.730   5.310  17.850
 3309DOPG   D2A61566  17.490   5.110  18.080
 3309DOPG   C3A61567  17.270   4.700  17.990
 3309DOPG   C4A61568  17.540   4.450  17.780
 3309DOPG   C1B61569  18.170   4.510  17.730
 3309DOPG   D2B61570  18.510   4.250  17.880
 3309DOPG   C3B61571  18.390   3.830  18.030
 3309DOPG   C4B61572  18.110   3.430  18.200
 3310DOPG   GL061573  22.900  15.080  14.690
 3310DOPG   PO461574  23.120  14.750  14.900
 3310DOPG   GL161575  23.270  14.940  15.220
 3310DOPG   GL261576  23.190  14.810  15.490
 3310DOPG   C1A61577  23.380  15.250  15.630
 3310DOPG   D2A61578  23.450  15.390  16.080
 3310DOPG   C3A61579  23.250  15.210  16.450
 3310DOPG   C4A61580  22.980  14.850  16.500
 3310DOPG   C1B61581  23.580  14.780  15.690
 3310DOPG   D2B61582  23.940  14.900  15.890
 3310DOPG   C3B61583  23.870  15.170  16.250
 3310DOPG   C4B61584  24.050  15.430  16.520
 3311DOPG   GL061585  20.580  18.370  13.800
 3311DOPG   PO461586  20.510  18.680  13.670
 3311DOPG   GL161587  20.680  19.070  13.550
 3311DOPG   GL261588  20.720  19.100  13.220
 3311DOPG   C1A61589  20.690  19.510  13.710
 3311DOPG   D2A61590  20.680  19.760  14.020
 3311DOPG   C3A61591  21.040  19.990  13.860
 3311DOPG   C4A61592  21.370  20.180  14.050
 3311DOPG   C1B61593  20.950  19.410  13.300
 3311DOPG   D2B61594  21.280  19.500  13.550
 3311DOPG   C3B61595  21.510  19.700  13.660
 3311DOPG   C4B61596  21.760  19.830  13.930
 3312DOPG   GL061597   5.770  15.450  15.920
 3312DOPG   PO461598   5.900  15.540  15.520
 3312DOPG   GL161599   6.250  15.510  15.550
 3312DOPG   GL261600   6.360  15.770  15.660
 3312DOPG   C1A61601   6.710  15.420  15.620
 3312DOPG   D2A61602   7.020  15.380  15.850
 3312DOPG   C3A61603   7.330  15.350  15.570
 3312DOPG   C4A61604   7.730  15.340  15.370
 3312DOPG   C1B61605   6.750  15.860  15.390
 3312DOPG   D2B61606   7.240  15.830  15.520
 3312DOPG   C3B61607   7.410  15.690  15.210
 3312DOPG   C4B61608   7.490  15.690  14.850
 3313DOPG   GL061609  18.060  15.860  14.870
 3313DOPG   PO461610  17.990  16.210  15.260
 3313DOPG   GL161611  18.090  16.420  15.560
 3313DOPG   GL261612  18.290  16.280  15.850
 3313DOPG   C1A61613  17.990  16.750  15.820
 3313DOPG   D2A61614  17.750  16.850  16.240
 3313DOPG   C3A61615  17.380  16.800  16.320
 3313DOPG   C4A61616  17.070  17.000  16.360
 3313DOPG   C1B61617  17.910  16.220  16.110
 3313DOPG   D2B61618  17.720  16.420  16.490
 3313DOPG   C3B61619  17.640  16.120  16.880
 3313DOPG   C4B61620  17.780  15.720  17.020
 3314DOPG   GL061621  22.460  11.880  13.220
 3314DOPG   PO461622  22.570  11.940  12.860
 3314DOPG   GL161623  22.740  11.640  12.660
 3314DOPG   GL261624  22.710  11.550  12.280
 3314DOPG   C1A61625  23.130  11.540  12.490
 3314DOPG   D2A61626  23.510  11.240  12.590
 3314DOPG   C3A61627  23.420  10.850  12.300
 3314DOPG   C4A61628  23.680  10.610  12.130
 3314DOPG   C1B61629  22.920  11.810  11.950
 3314DOPG   D2B61630  23.350  11.610  11.980
 3314DOPG   C3B61631  23.630  11.530  11.660
 3314DOPG   C4B61632  24.000  11.240  11.580
 3315DOPG   GL061633  18.240  17.920   8.380
 3315DOPG   PO461634  18.090  17.610   8.120
 3315DOPG   GL161635  18.150  17.550   8.640
 3315DOPG   GL261636  17.940  17.810   8.840
 3315DOPG   C1A61637  18.400  17.590   9.030
 3315DOPG   D2A61638  18.740  17.890   9.280
 3315DOPG   C3A61639  18.840  17.910   9.740
 3315DOPG   C4A61640  19.110  17.990   9.880
 3315DOPG   C1B61641  17.630  17.740   9.110
 3315DOPG   D2B61642  17.190  17.770   9.190
 3315DOPG   C3B61643  16.790  18.100   9.010
 3315DOPG   C4B61644  16.300  18.290   8.820
 3316DOPG   GL061645  21.020  12.470  15.300
 3316DOPG   PO461646  21.230  12.270  15.570
 3316DOPG   GL161647  21.340  12.360  15.960
 3316DOPG   GL261648  21.240  12.110  16.140
 3316DOPG   C1A61649  21.430  12.530  16.370
 3316DOPG   D2A61650  21.570  12.730  16.630
 3316DOPG   C3A61651  21.390  13.080  16.560
 3316DOPG   C4A61652  21.370  13.030  16.080
 3316DOPG   C1B61653  21.100  12.120  16.420
 3316DOPG   D2B61654  20.950  12.010  16.780
 3316DOPG   C3B61655  21.220  12.010  17.060
 3316DOPG   C4B61656  21.670  12.090  17.390
 3317DOPG   GL061657  17.950  12.150   7.690
 3317DOPG   PO461658  18.380  12.010   7.530
 3317DOPG   GL161659  18.340  12.050   7.140
 3317DOPG   GL261660  18.030  12.170   7.160
 3317DOPG   C1A61661  18.500  11.730   6.850
 3317DOPG   D2A61662  18.790  11.610   6.610
 3317DOPG   C3A61663  18.720  11.340   6.240
 3317DOPG   C4A61664  18.830  11.210   5.780
 3317DOPG   C1B61665  17.970  11.860   6.940
 3317DOPG   D2B61666  18.000  11.620   6.710
 3317DOPG   C3B61667  17.920  11.440   6.340
 3317DOPG   C4B61668  18.250  11.320   6.010
 3318DOPG   GL061669  22.210  11.540   8.250
 3318DOPG   PO461670  22.320  11.880   8.550
 3318DOPG   GL161671  22.380  11.940   8.880
 3318DOPG   GL261672  22.480  11.740   9.180
 3318DOPG   C1A61673  22.380  12.220   9.240
 3318DOPG   D2A61674  22.750  12.380   9.440
 3318DOPG   C3A61675  22.640  12.710   9.670
 3318DOPG   C4A61676  22.740  13.050  10.060
 3318DOPG   C1B61677  22.330  11.610   9.510
 3318DOPG   D2B61678  22.420  11.760   9.970
 3318DOPG   C3B61679  22.070  11.970  10.150
 3318DOPG   C4B61680  21.760  12.080  10.470
 3319DOPG   GL061681  12.620  12.160  18.170
 3319DOPG   PO461682  12.920  11.910  18.390
 3319DOPG   GL161683  12.790  11.830  18.860
 3319DOPG   GL261684  12.600  11.560  18.810
 3319DOPG   C1A61685  12.610  11.750  19.340
 3319DOPG   D2A61686  12.330  11.790  19.670
 3319DOPG   C3A61687  12.000  11.610  19.920
 3319DOPG   C4A61688  12.080  11.680  20.310
 3319DOPG   C1B61689  12.140  11.550  18.990
 3319DOPG   D2B61690  11.920  11.600  19.380
 3319DOPG   C3B61691  11.430  11.690  19.350
 3319DOPG   C4B61692  11.020  11.740  19.080
 3320DOPG   GL061693  15.930  11.850   9.350
 3320DOPG   PO461694  15.770  11.380   9.450
 3320DOPG   GL161695  16.020  11.370   9.790
 3320DOPG   GL261696  16.290  11.190   9.800
 3320DOPG   C1A61697  16.070  11.350  10.230
 3320DOPG   D2A61698  16.100  11.270  10.650
 3320DOPG   C3A61699  16.350  11.390  10.940
 3320DOPG   C4A61700  16.630  11.720  11.020
 3320DOPG   C1B61701  16.440  11.660   9.940
 3320DOPG   D2B61702  16.320  12.000  10.230
 3320DOPG   C3B61703  16.750  12.010  10.210
 3320DOPG   C4B61704  17.220  11.820  10.400
 3321DOPG   GL061705  18.210   6.190  17.960
 3321DOPG   PO461706  17.870   5.980  18.210
 3321DOPG   GL161707  17.630   5.640  18.210
 3321DOPG   GL261708  18.040   5.520  18.230
 3321DOPG   C1A61709  17.380   5.310  18.510
 3321DOPG   D2A61710  17.390   4.860  18.510
 3321DOPG   C3A61711  17.280   4.650  18.810
 3321DOPG   C4A61712  17.250   4.310  19.030
 3321DOPG   C1B61713  17.880   5.160  18.380
 3321DOPG   D2B61714  17.890   4.770  18.650
 3321DOPG   C3B61715  18.210   4.670  18.900
 3321DOPG   C4B61716  18.570   4.460  19.040
 3322DOPG   GL061717  18.080  15.290  11.870
 3322DOPG   PO461718  18.380  15.180  11.530
 3322DOPG   GL161719  18.420  14.910  11.310
 3322DOPG   GL261720  18.230  14.640  11.280
 3322DOPG   C1A61721  18.480  14.820  10.800
 3322DOPG   D2A61722  18.180  14.740  10.430
 3322DOPG   C3A61723  18.330  14.680  10.030
 3322DOPG   C4A61724  18.640  14.870   9.770
 3322DOPG   C1B61725  18.010  14.970  10.970
 3322DOPG   D2B61726  17.780  15.070  10.580
 3322DOPG   C3B61727  17.460  15.200  10.410
 3322DOPG   C4B61728  17.190  15.340  10.130
 3323DOPG   GL061729  24.700   8.420  13.560
 3323DOPG   PO461730  25.110   8.510  13.740
 3323DOPG   GL161731  24.880   8.850  13.750
 3323DOPG   GL261732  24.660   8.960  14.020
 3323DOPG   C1A61733  24.510   8.990  13.540
 3323DOPG   D2A61734  23.990   9.080  13.590
 3323DOPG   C3A61735  23.710   9.070  13.220
 3323DOPG   C4A61736  23.800   9.170  12.780
 3323DOPG   C1B61737  24.220   9.080  14.140
 3323DOPG   D2B61738  23.740   9.170  14.000
 3323DOPG   C3B61739  23.620   9.440  13.600
 3323DOPG   C4B61740  23.580   9.550  13.160
 3324DOPG   GL061741  16.000  15.260   7.740
 3324DOPG   PO461742  15.950  15.120   7.390
 3324DOPG   GL161743  15.970  15.070   7.030
 3324DOPG   GL261744  16.340  15.260   6.920
 3324DOPG   C1A61745  15.700  15.090   6.630
 3324DOPG   D2A61746  15.350  14.980   6.430
 3324DOPG   C3A61747  15.290  15.120   6.000
 3324DOPG   C4A61748  15.210  15.450   5.750
 3324DOPG   C1B61749  16.080  15.390   6.660
 3324DOPG   D2B61750  15.830  15.420   6.260
 3324DOPG   C3B61751  15.790  15.020   5.960
 3324DOPG   C4B61752  15.950  14.760   5.940
 3325DOPG   GL061753  25.480  25.120  15.940
 3325DOPG   PO461754  25.950  25.090  15.950
 3325DOPG   GL161755  25.960  24.650  15.690
 3325DOPG   GL261756  26.310  24.590  15.450
 3325DOPG   C1A61757  25.660  24.360  15.530
 3325DOPG   D2A61758  25.410  24.110  15.580
 3325DOPG   C3A61759  25.080  23.930  15.400
 3325DOPG   C4A61760  24.780  23.570  15.240
 3325DOPG   C1B61761  26.420  24.220  15.120
 3325DOPG   D2B61762  26.300  24.030  14.680
 3325DOPG   C3B61763  25.940  23.950  14.340
 3325DOPG   C4B61764  25.790  23.800  14.100
 3326DOPG   GL061765  18.130  15.870  10.960
 3326DOPG   PO461766  18.380  15.770  11.310
 3326DOPG   GL161767  18.700  15.360  11.140
 3326DOPG   GL261768  18.860  15.080  11.160
 3326DOPG   C1A61769  18.810  15.320  10.680
 3326DOPG   D2A61770  18.710  15.510  10.330
 3326DOPG   C3A61771  18.280  15.700  10.170
 3326DOPG   C4A61772  17.850  15.530  10.170
 3326DOPG   C1B61773  18.790  14.570  11.200
 3326DOPG   D2B61774  18.660  14.250  11.470
 3326DOPG   C3B61775  18.770  13.830  11.370
 3326DOPG   C4B61776  18.530  13.480  11.150
 3327DOPG   GL061777  17.690  15.400   7.440
 3327DOPG   PO461778  17.440  15.760   7.490
 3327DOPG   GL161779  17.270  15.530   7.140
 3327DOPG   GL261780  17.290  15.810   6.930
 3327DOPG   C1A61781  16.990  15.360   6.850
 3327DOPG   D2A61782  16.690  15.140   6.580
 3327DOPG   C3A61783  16.530  15.410   6.310
 3327DOPG   C4A61784  16.440  15.630   6.050
 3327DOPG   C1B61785  17.260  15.640   6.500
 3327DOPG   D2B61786  17.080  15.440   6.290
 3327DOPG   C3B61787  17.350  15.310   6.000
 3327DOPG   C4B61788  17.130  14.920   5.730
 3328DOPG   GL061789  15.250  26.260   8.480
 3328DOPG   PO461790  15.620  26.100   8.200
 3328DOPG   GL161791  15.480  25.780   8.410
 3328DOPG   GL261792  15.830  25.810   8.590
 3328DOPG   C1A61793  15.300  25.450   8.490
 3328DOPG   D2A61794  15.160  25.120   8.740
 3328DOPG   C3A61795  15.060  24.780   8.600
 3328DOPG   C4A61796  14.680  24.520   8.480
 3328DOPG   C1B61797  15.850  25.350   8.510
 3328DOPG   D2B61798  15.780  24.960   8.530
 3328DOPG   C3B61799  15.510  24.690   8.400
 3328DOPG   C4B61800  15.210  24.290   8.450
 3329DOPG   GL061801  22.210  16.660  13.200
 3329DOPG   PO461802  22.400  17.010  13.170
 3329DOPG   GL161803  22.510  17.210  12.730
 3329DOPG   GL261804  22.450  16.940  12.450
 3329DOPG   C1A61805  22.870  17.440  12.530
 3329DOPG   D2A61806  23.170  17.780  12.350
 3329DOPG   C3A61807  23.230  18.150  12.580
 3329DOPG   C4A61808  23.200  18.320  13.010
 3329DOPG   C1B61809  22.540  17.340  12.120
 3329DOPG   D2B61810  22.740  17.710  11.970
 3329DOPG   C3B61811  22.950  17.790  11.620
 3329DOPG   C4B61812  22.800  18.070  11.200
 3330DOPG   GL061813  20.650  11.400  12.960
 3330DOPG   PO461814  20.640  10.950  12.800
 3330DOPG   GL161815  20.640  10.800  12.420
 3330DOPG   GL261816  20.380  10.630  12.190
 3330DOPG   C1A61817  20.710  10.270  12.440
 3330DOPG   D2A61818  21.080  10.160  12.220
 3330DOPG   C3A61819  21.100   9.720  12.010
 3330DOPG   C4A61820  21.210   9.340  11.770
 3330DOPG   C1B61821  20.210  10.430  11.840
 3330DOPG   D2B61822  20.390  10.140  11.550
 3330DOPG   C3B61823  20.440   9.720  11.620
 3330DOPG   C4B61824  20.630   9.440  11.860
 3331DOPG   GL061825  16.000  15.550  13.730
 3331DOPG   PO461826  15.700  15.250  13.840
 3331DOPG   GL161827  15.500  14.840  13.940
 3331DOPG   GL261828  15.240  15.040  14.030
 3331DOPG   C1A61829  15.350  14.540  14.200
 3331DOPG   D2A61830  15.130  14.130  14.150
 3331DOPG   C3A61831  15.320  13.760  14.160
 3331DOPG   C4A61832  15.240  13.380  14.040
 3331DOPG   C1B61833  14.980  15.080  13.720
 3331DOPG   D2B61834  14.530  15.120  13.470
 3331DOPG   C3B61835  14.380  15.130  13.130
 3331DOPG   C4B61836  14.370  14.790  12.740
 3332DOPG   GL061837  19.510  11.760  12.460
 3332DOPG   PO461838  19.210  12.140  12.360
 3332DOPG   GL161839  19.230  12.050  11.920
 3332DOPG   GL261840  19.180  11.680  12.040
 3332DOPG   C1A61841  19.280  11.880  11.390
 3332DOPG   D2A61842  19.470  11.590  11.020
 3332DOPG   C3A61843  19.870  11.300  10.930
 3332DOPG   C4A61844  19.980  10.870  11.030
 3332DOPG   C1B61845  18.910  11.520  11.760
 3332DOPG   D2B61846  18.470  11.420  11.610
 3332DOPG   C3B61847  18.370  11.650  11.220
 3332DOPG   C4B61848  18.060  11.670  10.870
 3333DOPG   GL061849  16.770  21.730  10.470
 3333DOPG   PO461850  16.830  21.560  10.840
 3333DOPG   GL161851  16.740  21.050  10.890
 3333DOPG   GL261852  16.390  21.030  11.130
 3333DOPG   C1A61853  16.900  20.660  10.940
 3333DOPG   D2A61854  16.900  20.270  11.190
 3333DOPG   C3A61855  17.030  20.140  11.610
 3333DOPG   C4A61856  17.240  19.970  12.040
 3333DOPG   C1B61857  15.950  20.830  11.120
 3333DOPG   D2B61858  15.960  20.520  10.930
 3333DOPG   C3B61859  15.550  20.370  10.890
 3333DOPG   C4B61860  15.500  19.980  10.670
 3334DOPG   GL061861  23.530  20.480  12.350
 3334DOPG   PO461862  23.720  20.510  11.940
 3334DOPG   GL161863  23.340  20.210  11.990
 3334DOPG   GL261864  23.030  20.240  12.020
 3334DOPG   C1A61865  23.210  19.800  12.040
 3334DOPG   D2A61866  22.960  19.470  11.840
 3334DOPG   C3A61867  22.690  19.180  12.030
 3334DOPG   C4A61868  22.380  18.960  11.890
 3334DOPG   C1B61869  22.680  20.100  11.860
 3334DOPG   D2B61870  22.230  20.260  11.940
 3334DOPG   C3B61871  21.930  19.890  12.030
 3334DOPG   C4B61872  21.480  19.820  12.200
 3335DOPG   GL061873  15.140  17.930  18.060
 3335DOPG   PO461874  15.560  17.860  17.880
 3335DOPG   GL161875  15.500  17.860  17.490
 3335DOPG   GL261876  15.470  17.530  17.400
 3335DOPG   C1A61877  15.610  17.960  17.050
 3335DOPG   D2A61878  15.710  17.880  16.710
 3335DOPG   C3A61879  15.610  18.090  16.390
 3335DOPG   C4A61880  15.840  18.440  16.300
 3335DOPG   C1B61881  15.360  17.380  16.980
 3335DOPG   D2B61882  15.700  17.320  16.610
 3335DOPG   C3B61883  15.680  17.130  16.170
 3335DOPG   C4B61884  15.720  16.860  15.820
 3336DOPG   GL061885  19.070  18.760  13.580
 3336DOPG   PO461886  18.950  19.210  13.580
 3336DOPG   GL161887  18.840  19.430  13.950
 3336DOPG   GL261888  19.150  19.440  14.210
 3336DOPG   C1A61889  18.660  19.820  14.130
 3336DOPG   D2A61890  18.480  19.990  14.500
 3336DOPG   C3A61891  18.550  20.370  14.700
 3336DOPG   C4A61892  18.740  20.620  15.010
 3336DOPG   C1B61893  19.270  19.650  14.600
 3336DOPG   D2B61894  19.490  20.180  14.720
 3336DOPG   C3B61895  19.540  20.480  14.410
 3336DOPG   C4B61896  19.900  20.810  14.140
 3337DOPG   GL061897  17.280  24.850  19.470
 3337DOPG   PO461898  17.240  25.270  19.430
 3337DOPG   GL161899  17.310  25.140  19.000
 3337DOPG   GL261900  17.570  24.900  19.110
 3337DOPG   C1A61901  17.310  24.900  18.540
 3337DOPG   D2A61902  16.920  24.730  18.310
 3337DOPG   C3A61903  16.570  24.470  18.470
 3337DOPG   C4A61904  16.510  24.080  18.390
 3337DOPG   C1B61905  17.810  25.000  18.820
 3337DOPG   D2B61906  18.050  25.330  18.540
 3337DOPG   C3B61907  18.360  25.200  18.340
 3337DOPG   C4B61908  18.570  24.890  18.090
 3338DOPG   GL061909  15.270   8.080  10.680
 3338DOPG   PO461910  15.350   8.390  10.410
 3338DOPG   GL161911  15.250   8.040  10.170
 3338DOPG   GL261912  15.440   8.220   9.910
 3338DOPG   C1A61913  14.900   7.830  10.040
 3338DOPG   D2A61914  14.530   7.670   9.900
 3338DOPG   C3A61915  14.380   7.760   9.500
 3338DOPG   C4A61916  14.260   7.780   8.980
 3338DOPG   C1B61917  15.320   7.780   9.700
 3338DOPG   D2B61918  15.220   7.350   9.530
 3338DOPG   C3B61919  15.600   7.290   9.300
 3338DOPG   C4B61920  15.640   7.370   8.900
 3339DOPG   GL061921  20.960   8.870  20.330
 3339DOPG   PO461922  20.560   8.930  20.300
 3339DOPG   GL161923  20.560   8.890  20.660
 3339DOPG   GL261924  20.880   8.770  20.840
 3339DOPG   C1A61925  20.490   9.020  21.040
 3339DOPG   D2A61926  20.260   8.770  21.330
 3339DOPG   C3A61927  20.440   8.500  21.590
 3339DOPG   C4A61928  20.540   8.170  21.930
 3339DOPG   C1B61929  21.230   8.450  21.050
 3339DOPG   D2B61930  21.430   8.330  21.370
 3339DOPG   C3B61931  21.410   8.190  21.870
 3339DOPG   C4B61932  21.730   8.170  22.200
 3340DOPG   GL061933  14.690   0.930  16.020
 3340DOPG   PO461934  14.620   1.300  16.250
 3340DOPG   GL161935  14.860   1.800  16.120
 3340DOPG   GL261936  14.910   2.030  16.390
 3340DOPG   C1A61937  15.140   2.230  15.930
 3340DOPG   D2A61938  15.420   2.570  15.940
 3340DOPG   C3A61939  15.400   2.860  16.220
 3340DOPG   C4A61940  15.480   3.200  16.420
 3340DOPG   C1B61941  14.540   2.230  16.100
 3340DOPG   D2B61942  14.370   2.640  16.000
 3340DOPG   C3B61943  14.000   2.630  15.950
 3340DOPG   C4B61944  13.690   2.880  15.670
 3341DOPG   GL061945  24.390  17.630   9.790
 3341DOPG   PO461946  24.730  17.290   9.730
 3341DOPG   GL161947  24.310  17.180  10.070
 3341DOPG   GL261948  24.320  17.120  10.390
 3341DOPG   C1A61949  23.930  16.910  10.130
 3341DOPG   D2A61950  23.710  16.560  10.290
 3341DOPG   C3A61951  23.650  16.190  10.640
 3341DOPG   C4A61952  23.510  15.810  11.030
 3341DOPG   C1B61953  24.550  16.960  10.710
 3341DOPG   D2B61954  24.430  16.730  11.050
 3341DOPG   C3B61955  24.080  16.570  11.120
 3341DOPG   C4B61956  23.730  16.320  11.200
 3342DOPG   GL061957  18.670  18.580  12.480
 3342DOPG   PO461958  18.810  18.790  12.230
 3342DOPG   GL161959  19.070  19.180  12.070
 3342DOPG   GL261960  19.400  19.360  12.200
 3342DOPG   C1A61961  19.000  19.450  11.810
 3342DOPG   D2A61962  19.150  19.850  11.690
 3342DOPG   C3A61963  19.310  20.250  11.760
 3342DOPG   C4A61964  19.490  20.450  12.090
 3342DOPG   C1B61965  19.520  19.700  12.070
 3342DOPG   D2B61966  19.850  20.020  12.180
 3342DOPG   C3B61967  20.230  19.930  12.070
 3342DOPG   C4B61968  20.410  19.490  11.800
 3343DOPG   GL061969  18.020   7.840  15.560
 3343DOPG   PO461970  17.710   8.090  15.510
 3343DOPG   GL161971  18.070   8.260  15.260
 3343DOPG   GL261972  18.020   8.670  15.310
 3343DOPG   C1A61973  18.280   8.350  14.890
 3343DOPG   D2A61974  18.570   7.990  14.850
 3343DOPG   C3A61975  18.910   8.220  14.750
 3343DOPG   C4A61976  19.040   8.570  14.570
 3343DOPG   C1B61977  18.470   8.700  15.180
 3343DOPG   D2B61978  18.820   8.650  15.020
 3343DOPG   C3B61979  19.250   8.580  15.110
 3343DOPG   C4B61980  19.560   8.950  15.210
 3344DOPG   GL061981  18.370  27.270  16.110
 3344DOPG   PO461982  18.780  27.130  16.010
 3344DOPG   GL161983  19.090  26.760  16.090
 3344DOPG   GL261984  18.920  26.550  15.880
 3344DOPG   C1A61985  19.410  26.400  16.420
 3344DOPG   D2A61986  19.290  26.310  16.870
 3344DOPG   C3A61987  18.850  26.350  17.030
 3344DOPG   C4A61988  18.380  26.190  17.120
 3344DOPG   C1B61989  18.990  26.130  15.960
 3344DOPG   D2B61990  19.070  25.730  15.890
 3344DOPG   C3B61991  18.940  25.350  15.510
 3344DOPG   C4B61992  19.170  25.180  15.120
 3345DOPG   GL061993  20.220  17.160  14.860
 3345DOPG   PO461994  20.580  17.360  14.590
 3345DOPG   GL161995  20.580  17.660  14.940
 3345DOPG   GL261996  20.460  17.460  15.160
 3345DOPG   C1A61997  20.610  17.860  15.390
 3345DOPG   D2A61998  20.750  18.200  15.650
 3345DOPG   C3A61999  20.650  18.330  16.080
 3345DOPG   C4A62000  20.830  18.490  16.520
 3345DOPG   C1B62001  20.640  17.390  15.590
 3345DOPG   D2B62002  20.430  17.630  15.810
 3345DOPG   C3B62003  20.370  17.540  16.220
 3345DOPG   C4B62004  20.080  17.490  16.500
 3346DOPG   GL062005  18.970  23.480  11.730
 3346DOPG   PO462006  19.290  23.640  11.610
 3346DOPG   GL162007  19.520  23.990  11.460
 3346DOPG   GL262008  19.800  23.780  11.510
 3346DOPG   C1A62009  19.530  24.390  11.160
 3346DOPG   D2A62010  19.560  24.500  10.760
 3346DOPG   C3A62011  19.750  24.620  10.570
 3346DOPG   C4A62012  20.080  24.800  10.410
 3346DOPG   C1B62013  20.030  24.030  11.580
 3346DOPG   D2B62014  20.080  24.470  11.500
 3346DOPG   C3B62015  19.770  24.800  11.190
 3346DOPG   C4B62016  19.780  25.220  11.000
 3347DOPG   GL062017  25.850  11.940  10.710
 3347DOPG   PO462018  25.790  11.550  10.770
 3347DOPG   GL162019  25.410  11.660  10.860
 3347DOPG   GL262020  25.250  11.780  10.640
 3347DOPG   C1A62021  25.130  11.580  11.180
 3347DOPG   D2A62022  24.770  11.400  11.420
 3347DOPG   C3A62023  24.590  11.580  11.730
 3347DOPG   C4A62024  24.330  11.410  12.030
 3347DOPG   C1B62025  24.970  11.980  10.860
 3347DOPG   D2B62026  24.870  12.040  11.320
 3347DOPG   C3B62027  24.870  12.050  11.710
 3347DOPG   C4B62028  24.870  11.970  12.210
 3348DOPG   GL062029  11.010  17.100  13.580
 3348DOPG   PO462030  10.540  17.110  13.650
 3348DOPG   GL162031  10.210  17.250  13.580
 3348DOPG   GL262032  10.020  17.440  13.360
 3348DOPG   C1A62033   9.720  17.260  13.850
 3348DOPG   D2A62034   9.250  17.260  13.730
 3348DOPG   C3A62035   8.940  17.600  13.980
 3348DOPG   C4A62036   8.610  17.790  14.270
 3348DOPG   C1B62037   9.580  17.280  13.250
 3348DOPG   D2B62038   9.240  17.210  13.220
 3348DOPG   C3B62039   9.000  17.160  12.870
 3348DOPG   C4B62040   8.960  17.330  12.410
 3349DOPG   GL062041  23.000  10.700  13.920
 3349DOPG   PO462042  23.180  10.830  13.640
 3349DOPG   GL162043  23.460  10.510  13.680
 3349DOPG   GL262044  23.420  10.310  13.800
 3349DOPG   C1A62045  23.920  10.550  13.800
 3349DOPG   D2A62046  24.280  10.560  14.100
 3349DOPG   C3A62047  24.720  10.470  14.100
 3349DOPG   C4A62048  25.070  10.150  14.200
 3349DOPG   C1B62049  23.730  10.320  14.130
 3349DOPG   D2B62050  23.780   9.940  14.400
 3349DOPG   C3B62051  23.640   9.570  14.340
 3349DOPG   C4B62052  23.390   9.220  14.520
 3350DOPG   GL062053  13.390  15.960  10.870
 3350DOPG   PO462054  12.940  16.080  10.920
 3350DOPG   GL162055  13.180  15.860  11.300
 3350DOPG   GL262056  13.510  15.970  11.370
 3350DOPG   C1A62057  13.280  15.480  11.520
 3350DOPG   D2A62058  13.650  15.360  11.820
 3350DOPG   C3A62059  13.970  15.450  12.140
 3350DOPG   C4A62060  13.850  15.650  12.440
 3350DOPG   C1B62061  13.600  16.300  11.640
 3350DOPG   D2B62062  13.610  16.570  12.070
 3350DOPG   C3B62063  14.010  16.440  12.240
 3350DOPG   C4B62064  14.330  16.200  12.520
 3351DOPG   GL062065  22.060  11.550  13.090
 3351DOPG   PO462066  22.510  11.390  13.130
 3351DOPG   GL162067  22.510  10.960  12.920
 3351DOPG   GL262068  22.590  10.900  12.600
 3351DOPG   C1A62069  22.840  10.520  12.950
 3351DOPG   D2A62070  23.050  10.080  12.750
 3351DOPG   C3A62071  23.120   9.770  13.080
 3351DOPG   C4A62072  23.130   9.420  13.440
 3351DOPG   C1B62073  23.000  11.090  12.400
 3351DOPG   D2B62074  23.130  11.130  11.990
 3351DOPG   C3B62075  23.090  10.750  11.820
 3351DOPG   C4B62076  23.050  10.210  11.720
 3352DOPG   GL062077  10.660   7.910  21.510
 3352DOPG   PO462078  11.090   7.720  21.460
 3352DOPG   GL162079  11.280   8.000  21.140
 3352DOPG   GL262080  10.990   7.870  20.930
 3352DOPG   C1A62081  11.340   8.250  20.800
 3352DOPG   D2A62082  11.030   8.540  20.510
 3352DOPG   C3A62083  11.400   8.850  20.320
 3352DOPG   C4A62084  11.580   9.220  20.030
 3352DOPG   C1B62085  11.330   7.620  20.720
 3352DOPG   D2B62086  11.460   7.300  20.530
 3352DOPG   C3B62087  11.610   7.380  20.080
 3352DOPG   C4B62088  11.740   7.780  19.860
 3353DOPG   GL062089  20.330  14.770  15.800
 3353DOPG   PO462090  20.690  14.620  15.620
 3353DOPG   GL162091  20.810  15.050  15.880
 3353DOPG   GL262092  20.860  15.330  15.810
 3353DOPG   C1A62093  20.710  15.230  16.360
 3353DOPG   D2A62094  20.500  15.240  16.680
 3353DOPG   C3A62095  20.470  15.030  17.150
 3353DOPG   C4A62096  20.500  15.080  17.500
 3353DOPG   C1B62097  20.850  15.640  16.060
 3353DOPG   D2B62098  20.800  16.070  16.170
 3353DOPG   C3B62099  20.980  16.440  16.290
 3353DOPG   C4B62100  21.100  16.880  16.270
 3354DOPG   GL062101  10.740  16.370   5.380
 3354DOPG   PO462102  10.580  15.940   5.420
 3354DOPG   GL162103  10.920  16.040   5.750
 3354DOPG   GL262104  11.280  16.170   5.780
 3354DOPG   C1A62105  10.970  16.230   6.150
 3354DOPG   D2A62106  11.020  16.530   6.360
 3354DOPG   C3A62107  11.400  16.480   6.320
 3354DOPG   C4A62108  11.850  16.340   6.360
 3354DOPG   C1B62109  11.530  15.740   5.730
 3354DOPG   D2B62110  11.800  15.730   6.010
 3354DOPG   C3B62111  11.980  15.800   6.470
 3354DOPG   C4B62112  12.020  16.110   6.840
 3355DOPG   GL062113  20.600  16.350  15.230
 3355DOPG   PO462114  20.290  16.620  14.980
 3355DOPG   GL162115  20.090  16.490  15.510
 3355DOPG   GL262116  19.790  16.440  15.680
 3355DOPG   C1A62117  20.090  16.830  15.810
 3355DOPG   D2A62118  20.120  17.010  16.240
 3355DOPG   C3A62119  19.760  17.120  16.400
 3355DOPG   C4A62120  19.370  16.920  16.550
 3355DOPG   C1B62121  19.990  16.240  15.990
 3355DOPG   D2B62122  20.330  16.000  16.260
 3355DOPG   C3B62123  20.470  16.150  16.650
 3355DOPG   C4B62124  20.320  16.070  17.220
 3356DOPG   GL062125  15.130  21.370  17.280
 3356DOPG   PO462126  15.430  21.130  17.450
 3356DOPG   GL162127  15.310  21.460  17.730
 3356DOPG   GL262128  15.170  21.290  17.990
 3356DOPG   C1A62129  14.890  21.730  17.710
 3356DOPG   D2A62130  14.500  22.040  17.610
 3356DOPG   C3A62131  14.140  21.950  17.410
 3356DOPG   C4A62132  14.010  21.570  17.430
 3356DOPG   C1B62133  15.070  21.750  18.170
 3356DOPG   D2B62134  15.010  22.210  18.130
 3356DOPG   C3B62135  15.200  22.460  18.450
 3356DOPG   C4B62136  15.580  22.630  18.610
 3357DOPG   GL062137  20.490  16.360  12.290
 3357DOPG   PO462138  20.040  16.340  12.000
 3357DOPG   GL162139  19.750  16.130  11.630
 3357DOPG   GL262140  19.730  16.260  11.230
 3357DOPG   C1A62141  19.810  15.760  11.360
 3357DOPG   D2A62142  19.780  15.740  10.890
 3357DOPG   C3A62143  19.660  15.370  10.780
 3357DOPG   C4A62144  19.380  15.320  10.420
 3357DOPG   C1B62145  19.960  16.530  10.900
 3357DOPG   D2B62146  19.990  16.970  10.740
 3357DOPG   C3B62147  19.830  17.140  10.410
 3357DOPG   C4B62148  19.900  17.490  10.220
 3358DOPG   GL062149  24.740  21.350  12.640
 3358DOPG   PO462150  25.000  21.030  12.640
 3358DOPG   GL162151  25.290  21.370  12.620
 3358DOPG   GL262152  25.500  21.710  12.790
 3358DOPG   C1A62153  25.420  21.490  12.260
 3358DOPG   D2A62154  25.560  21.800  11.910
 3358DOPG   C3A62155  25.490  22.180  11.760
 3358DOPG   C4A62156  25.520  22.540  11.530
 3358DOPG   C1B62157  25.820  21.740  12.470
 3358DOPG   D2B62158  25.910  21.980  12.190
 3358DOPG   C3B62159  26.430  21.980  12.110
 3358DOPG   C4B62160  26.780  22.140  11.870
 3359DOPG   GL062161  16.390  17.160  12.380
 3359DOPG   PO462162  16.720  17.260  12.080
 3359DOPG   GL162163  16.830  17.300  11.720
 3359DOPG   GL262164  16.690  17.650  11.760
 3359DOPG   C1A62165  16.940  17.490  11.350
 3359DOPG   D2A62166  16.890  17.460  11.040
 3359DOPG   C3A62167  16.440  17.490  10.860
 3359DOPG   C4A62168  16.150  17.750  10.970
 3359DOPG   C1B62169  16.500  17.470  11.350
 3359DOPG   D2B62170  16.220  17.210  11.190
 3359DOPG   C3B62171  15.820  17.470  11.300
 3359DOPG   C4B62172  15.580  17.760  11.170
 3360DOPG   GL062173  20.610  17.910  12.740
 3360DOPG   PO462174  20.530  18.050  12.330
 3360DOPG   GL162175  20.660  18.450  12.030
 3360DOPG   GL262176  20.440  18.680  11.940
 3360DOPG   C1A62177  20.950  18.610  11.820
 3360DOPG   D2A62178  21.230  18.870  11.790
 3360DOPG   C3A62179  21.660  18.830  11.950
 3360DOPG   C4A62180  22.010  18.720  12.080
 3360DOPG   C1B62181  20.720  19.060  11.980
 3360DOPG   D2B62182  21.080  19.410  11.810
 3360DOPG   C3B62183  21.470  19.220  11.560
 3360DOPG   C4B62184  21.700  19.280  11.220
 3361DOPG   GL062185  23.720   8.090  17.820
 3361DOPG   PO462186  23.600   7.870  17.490
 3361DOPG   GL162187  23.450   7.990  17.110
 3361DOPG   GL262188  23.430   7.640  17.030
 3361DOPG   C1A62189  23.600   8.000  16.640
 3361DOPG   D2A62190  23.710   7.700  16.370
 3361DOPG   C3A62191  24.050   7.820  16.060
 3361DOPG   C4A62192  24.170   8.150  15.880
 3361DOPG   C1B62193  23.150   7.640  16.640
 3361DOPG   D2B62194  23.220   7.490  16.200
 3361DOPG   C3B62195  23.050   7.680  15.780
 3361DOPG   C4B62196  22.580   7.890  15.620
 3362DOPG   GL062197  19.210  19.530  12.620
 3362DOPG   PO462198  19.510  19.280  12.810
 3362DOPG   GL162199  19.760  19.620  12.680
 3362DOPG   GL262200  20.070  19.470  12.790
 3362DOPG   C1A62201  20.190  19.940  12.540
 3362DOPG   D2A62202  20.440  20.290  12.490
 3362DOPG   C3A62203  20.880  20.000  12.430
 3362DOPG   C4A62204  21.300  19.960  12.680
 3362DOPG   C1B62205  20.030  19.850  13.030
 3362DOPG   D2B62206  20.100  20.210  13.320
 3362DOPG   C3B62207  20.060  20.590  13.550
 3362DOPG   C4B62208  19.950  21.050  13.700
 3363DOPG   GL062209  15.650  11.890   8.520
 3363DOPG   PO462210  15.320  11.900   8.240
 3363DOPG   GL162211  15.020  11.710   7.860
 3363DOPG   GL262212  15.000  11.380   7.810
 3363DOPG   C1A62213  14.900  11.670   7.480
 3363DOPG   D2A62214  14.690  11.890   7.090
 3363DOPG   C3A62215  14.750  11.490   6.930
 3363DOPG   C4A62216  14.540  11.190   6.860
 3363DOPG   C1B62217  14.810  11.080   7.430
 3363DOPG   D2B62218  14.990  11.020   7.080
 3363DOPG   C3B62219  14.980  11.020   6.650
 3363DOPG   C4B62220  14.970  11.320   6.430
 3364DOPG   GL062221  23.820  16.190   8.380
 3364DOPG   PO462222  23.720  15.790   8.640
 3364DOPG   GL162223  23.340  15.890   8.940
 3364DOPG   GL262224  23.080  15.660   9.100
 3364DOPG   C1A62225  23.430  15.990   9.420
 3364DOPG   D2A62226  23.410  15.820   9.730
 3364DOPG   C3A62227  23.060  15.970   9.910
 3364DOPG   C4A62228  22.730  16.210   9.950
 3364DOPG   C1B62229  22.970  15.700   9.530
 3364DOPG   D2B62230  22.720  15.590  10.020
 3364DOPG   C3B62231  22.750  15.990  10.380
 3364DOPG   C4B62232  22.990  16.360  10.670
 3365DOPG   GL062233  17.910  15.700  11.540
 3365DOPG   PO462234  17.510  15.420  11.640
 3365DOPG   GL162235  17.560  15.320  11.110
 3365DOPG   GL262236  17.490  15.040  11.020
 3365DOPG   C1A62237  17.720  15.520  10.820
 3365DOPG   D2A62238  18.140  15.510  10.650
 3365DOPG   C3A62239  18.490  15.780  10.680
 3365DOPG   C4A62240  18.850  15.910  10.860
 3365DOPG   C1B62241  17.100  14.820  10.920
 3365DOPG   D2B62242  17.100  14.500  10.590
 3365DOPG   C3B62243  17.150  14.830  10.380
 3365DOPG   C4B62244  16.920  15.040  10.390
 3366DOPG   GL062245  13.460  19.950  16.660
 3366DOPG   PO462246  13.640  19.520  16.530
 3366DOPG   GL162247  13.840  19.350  16.280
 3366DOPG   GL262248  14.140  19.040  16.320
 3366DOPG   C1A62249  13.900  19.160  15.920
 3366DOPG   D2A62250  13.870  19.060  15.520
 3366DOPG   C3A62251  14.310  18.950  15.370
 3366DOPG   C4A62252  14.690  19.100  15.110
 3366DOPG   C1B62253  14.420  19.150  16.020
 3366DOPG   D2B62254  14.600  19.210  15.640
 3366DOPG   C3B62255  14.980  18.940  15.530
 3366DOPG   C4B62256  15.320  18.920  15.750
 3367DOPG   GL062257  15.700  16.940  18.670
 3367DOPG   PO462258  15.920  16.620  18.480
 3367DOPG   GL162259  16.140  16.690  18.030
 3367DOPG   GL262260  15.910  16.630  17.820
 3367DOPG   C1A62261  16.330  16.510  17.560
 3367DOPG   D2A62262  16.660  16.580  17.490
 3367DOPG   C3A62263  16.810  16.440  17.130
 3367DOPG   C4A62264  16.730  16.100  16.740
 3367DOPG   C1B62265  15.730  16.930  17.520
 3367DOPG   D2B62266  15.800  17.130  17.110
 3367DOPG   C3B62267  15.940  17.550  17.080
 3367DOPG   C4B62268  16.110  18.060  17.050
 3368DOPG   GL062269  18.650  10.980  12.820
 3368DOPG   PO462270  18.540  11.200  12.570
 3368DOPG   GL162271  18.310  10.830  12.430
 3368DOPG   GL262272  18.300  10.680  12.650
 3368DOPG   C1A62273  18.380  10.930  12.050
 3368DOPG   D2A62274  18.360  10.730  11.680
 3368DOPG   C3A62275  18.290  10.300  11.680
 3368DOPG   C4A62276  18.080   9.970  11.410
 3368DOPG   C1B62277  17.820  10.800  12.680
 3368DOPG   D2B62278  17.480  10.500  12.800
 3368DOPG   C3B62279  17.300  10.240  12.510
 3368DOPG   C4B62280  17.060   9.870  12.520
 3369DOPG   GL062281  18.220  19.430   2.710
 3369DOPG   PO462282  18.000  19.300   3.140
 3369DOPG   GL162283  18.060  19.280   3.580
 3369DOPG   GL262284  18.410  19.230   3.680
 3369DOPG   C1A62285  18.030  19.440   4.010
 3369DOPG   D2A62286  17.630  19.490   4.270
 3369DOPG   C3A62287  17.520  19.720   4.610
 3369DOPG   C4A62288  17.240  19.660   4.920
 3369DOPG   C1B62289  18.630  19.130   3.990
 3369DOPG   D2B62290  18.900  19.020   4.300
 3369DOPG   C3B62291  18.880  19.250   4.670
 3369DOPG   C4B62292  19.130  19.360   5.040
 3370DOPG   GL062293  19.930  18.810  13.470
 3370DOPG   PO462294  19.590  19.170  13.400
 3370DOPG   GL162295  19.570  19.550  13.550
 3370DOPG   GL262296  19.450  19.550  13.840
 3370DOPG   C1A62297  19.760  19.890  13.480
 3370DOPG   D2A62298  19.590  20.240  13.400
 3370DOPG   C3A62299  19.190  20.110  13.360
 3370DOPG   C4A62300  18.850  20.240  13.500
 3370DOPG   C1B62301  19.100  19.880  13.810
 3370DOPG   D2B62302  19.070  20.170  13.960
 3370DOPG   C3B62303  19.170  20.510  13.740
 3370DOPG   C4B62304  19.160  20.970  13.500
 3371DOPG   GL062305  22.870   6.050  12.470
 3371DOPG   PO462306  22.940   5.760  12.300
 3371DOPG   GL162307  23.240   5.620  12.070
 3371DOPG   GL262308  23.460   5.620  12.300
 3371DOPG   C1A62309  23.410   5.190  11.870
 3371DOPG   D2A62310  23.620   5.020  11.540
 3371DOPG   C3A62311  23.880   5.400  11.420
 3371DOPG   C4A62312  24.170   5.640  11.640
 3371DOPG   C1B62313  23.650   5.250  12.380
 3371DOPG   D2B62314  23.910   4.840  12.420
 3371DOPG   C3B62315  23.950   4.480  12.260
 3371DOPG   C4B62316  24.130   4.260  11.900
 3372DOPG   GL062317  21.770  13.920  15.050
 3372DOPG   PO462318  22.180  13.680  15.170
 3372DOPG   GL162319  22.160  13.490  15.600
 3372DOPG   GL262320  22.070  13.630  15.790
 3372DOPG   C1A62321  22.370  13.220  15.950
 3372DOPG   D2A62322  22.320  13.330  16.340
 3372DOPG   C3A62323  22.350  13.740  16.580
 3372DOPG   C4A62324  22.410  14.100  16.250
 3372DOPG   C1B62325  22.010  13.790  16.210
 3372DOPG   D2B62326  21.960  14.080  16.510
 3372DOPG   C3B62327  22.090  14.010  16.890
 3372DOPG   C4B62328  22.450  14.180  17.040
 3373DOPG   GL062329  16.310  16.370  14.340
 3373DOPG   PO462330  16.470  16.810  14.420
 3373DOPG   GL162331  16.190  17.010  14.670
 3373DOPG   GL262332  16.210  17.220  14.570
 3373DOPG   C1A62333  15.820  16.910  14.870
 3373DOPG   D2A62334  15.620  17.220  15.120
 3373DOPG   C3A62335  15.180  17.240  15.160
 3373DOPG   C4A62336  14.720  17.130  15.260
 3373DOPG   C1B62337  16.120  17.280  15.120
 3373DOPG   D2B62338  16.260  17.360  15.500
 3373DOPG   C3B62339  16.770  17.520  15.510
 3373DOPG   C4B62340  17.140  17.260  15.580
 3374DOPG   GL062341  13.780  18.530   9.890
 3374DOPG   PO462342  14.110  18.660   9.580
 3374DOPG   GL162343  14.500  18.610   9.860
 3374DOPG   GL262344  14.700  18.880   9.970
 3374DOPG   C1A62345  14.510  18.350  10.270
 3374DOPG   D2A62346  14.210  18.210  10.450
 3374DOPG   C3A62347  14.300  17.860  10.440
 3374DOPG   C4A62348  14.780  17.640  10.400
 3374DOPG   C1B62349  15.040  18.810  10.220
 3374DOPG   D2B62350  15.510  19.080  10.280
 3374DOPG   C3B62351  15.580  19.200  10.680
 3374DOPG   C4B62352  15.470  19.170  11.150
 3375DOPG   GL062353  12.360  21.730  13.550
 3375DOPG   PO462354  12.650  21.820  13.860
 3375DOPG   GL162355  12.500  22.270  13.850
 3375DOPG   GL262356  12.190  22.290  13.910
 3375DOPG   C1A62357  12.570  22.680  14.050
 3375DOPG   D2A62358  12.560  23.120  13.900
 3375DOPG   C3A62359  12.470  23.170  13.520
 3375DOPG   C4A62360  12.420  23.590  13.270
 3375DOPG   C1B62361  12.170  22.660  13.590
 3375DOPG   D2B62362  11.970  22.850  13.360
 3375DOPG   C3B62363  12.190  23.200  13.130
 3375DOPG   C4B62364  12.050  23.650  12.950
 3376DOPG   GL062365  21.820  11.350  12.550
 3376DOPG   PO462366  22.290  11.350  12.690
 3376DOPG   GL162367  22.190  11.330  12.220
 3376DOPG   GL262368  22.130  11.000  12.300
 3376DOPG   C1A62369  22.490  11.200  11.930
 3376DOPG   D2A62370  22.780  10.970  11.580
 3376DOPG   C3A62371  23.200  11.100  11.490
 3376DOPG   C4A62372  23.620  10.980  11.800
 3376DOPG   C1B62373  22.010  11.020  11.800
 3376DOPG   D2B62374  22.010  10.780  11.500
 3376DOPG   C3B62375  21.640  10.660  11.290
 3376DOPG   C4B62376  21.410  10.280  11.290
 3377DOPG   GL062377  19.410  15.180  12.430
 3377DOPG   PO462378  19.510  14.990  12.050
 3377DOPG   GL162379  19.560  14.790  11.650
 3377DOPG   GL262380  19.180  14.850  11.550
 3377DOPG   C1A62381  19.820  14.430  11.440
 3377DOPG   D2A62382  19.970  14.020  11.290
 3377DOPG   C3A62383  19.780  13.660  11.320
 3377DOPG   C4A62384  19.810  13.250  11.580
 3377DOPG   C1B62385  19.380  14.660  11.160
 3377DOPG   D2B62386  19.250  14.440  10.600
 3377DOPG   C3B62387  19.020  14.030  10.470
 3377DOPG   C4B62388  18.910  13.660  10.780
 3378DOPG   GL062389  20.750  10.870  14.680
 3378DOPG   PO462390  20.390  11.000  14.820
 3378DOPG   GL162391  20.310  11.100  15.240
 3378DOPG   GL262392  20.110  11.300  15.210
 3378DOPG   C1A62393  20.270  11.120  15.630
 3378DOPG   D2A62394  20.430  11.160  16.110
 3378DOPG   C3A62395  20.500  10.820  16.300
 3378DOPG   C4A62396  20.280  10.570  16.510
 3378DOPG   C1B62397  19.760  11.230  15.480
 3378DOPG   D2B62398  19.660  10.790  15.720
 3378DOPG   C3B62399  19.320  10.490  15.570
 3378DOPG   C4B62400  19.100  10.180  15.760
 3379DOPG   GL062401  19.820  22.710  15.070
 3379DOPG   PO462402  19.480  22.600  15.270
 3379DOPG   GL162403  19.500  22.200  15.100
 3379DOPG   GL262404  19.170  21.920  15.060
 3379DOPG   C1A62405  19.640  21.800  15.000
 3379DOPG   D2A62406  19.450  21.460  14.840
 3379DOPG   C3A62407  19.040  21.380  14.620
 3379DOPG   C4A62408  18.890  21.290  14.280
 3379DOPG   C1B62409  19.230  21.560  15.300
 3379DOPG   D2B62410  19.330  21.230  15.720
 3379DOPG   C3B62411  19.120  20.910  15.850
 3379DOPG   C4B62412  18.820  20.750  15.900
 3380DOPG   GL062413  11.680  14.800  12.610
 3380DOPG   PO462414  11.890  15.140  12.520
 3380DOPG   GL162415  12.280  15.120  12.620
 3380DOPG   GL262416  12.410  14.910  12.660
 3380DOPG   C1A62417  12.630  15.280  12.380
 3380DOPG   D2A62418  12.960  15.600  12.230
 3380DOPG   C3A62419  13.260  15.390  12.080
 3380DOPG   C4A62420  13.500  15.060  12.240
 3380DOPG   C1B62421  12.800  14.960  12.780
 3380DOPG   D2B62422  13.160  14.850  12.930
 3380DOPG   C3B62423  13.600  14.820  12.780
 3380DOPG   C4B62424  13.920  15.050  12.510
 3381DOPG   GL062425  18.150   9.700  18.510
 3381DOPG   PO462426  18.360   9.660  18.180
 3381DOPG   GL162427  18.500   9.710  17.820
 3381DOPG   GL262428  18.510  10.100  17.720
 3381DOPG   C1A62429  18.330   9.820  17.340
 3381DOPG   D2A62430  18.370   9.750  16.880
 3381DOPG   C3A62431  18.730   9.940  16.820
 3381DOPG   C4A62432  19.100  10.150  16.960
 3381DOPG   C1B62433  18.830   9.870  17.450
 3381DOPG   D2B62434  18.860   9.470  17.280
 3381DOPG   C3B62435  18.400   9.350  17.170
 3381DOPG   C4B62436  18.030   9.410  17.060
 3382DOPG   GL062437  29.930   7.940  19.870
 3382DOPG   PO462438  30.150   8.290  19.600
 3382DOPG   GL162439  29.830   8.550  19.440
 3382DOPG   GL262440  29.810   8.860  19.560
 3382DOPG   C1A62441  29.340   8.730  19.380
 3382DOPG   D2A62442  29.130   8.980  19.060
 3382DOPG   C3A62443  28.720   8.850  18.850
 3382DOPG   C4A62444  28.500   8.650  18.390
 3382DOPG   C1B62445  29.530   9.210  19.280
 3382DOPG   D2B62446  29.630   9.670  19.140
 3382DOPG   C3B62447  30.070  10.050  19.300
 3382DOPG   C4B62448  30.140  10.420  19.070
 3383DOPG   GL062449  24.220  17.280   3.460
 3383DOPG   PO462450  23.810  17.370   3.460
 3383DOPG   GL162451  23.950  17.080   3.850
 3383DOPG   GL262452  23.730  16.740   3.770
 3383DOPG   C1A62453  24.130  17.240   4.240
 3383DOPG   D2A62454  24.350  17.430   4.600
 3383DOPG   C3A62455  24.610  17.280   4.910
 3383DOPG   C4A62456  24.440  17.040   5.190
 3383DOPG   C1B62457  23.370  16.800   4.000
 3383DOPG   D2B62458  22.870  16.550   4.110
 3383DOPG   C3B62459  22.940  16.160   4.460
 3383DOPG   C4B62460  22.830  16.020   4.900
 3384DOPG   GL062461  26.010  12.890  10.340
 3384DOPG   PO462462  26.280  13.250  10.470
 3384DOPG   GL162463  25.780  13.190  10.690
 3384DOPG   GL262464  25.520  13.260  10.350
 3384DOPG   C1A62465  25.350  13.090  10.980
 3384DOPG   D2A62466  25.230  13.360  11.260
 3384DOPG   C3A62467  25.100  13.770  11.340
 3384DOPG   C4A62468  24.890  14.160  11.460
 3384DOPG   C1B62469  25.080  13.080  10.090
 3384DOPG   D2B62470  24.850  12.790   9.940
 3384DOPG   C3B62471  24.560  12.610  10.030
 3384DOPG   C4B62472  24.110  12.580  10.130
 3385DOPG   GL062473  32.180   9.500  12.460
 3385DOPG   PO462474  32.490   9.530  12.750
 3385DOPG   GL162475  32.210   9.800  13.010
 3385DOPG   GL262476  31.970   9.650  13.100
 3385DOPG   C1A62477  31.840  10.060  12.820
 3385DOPG   D2A62478  31.620  10.120  12.460
 3385DOPG   C3A62479  31.750  10.310  12.130
 3385DOPG   C4A62480  31.470  10.550  11.960
 3385DOPG   C1B62481  31.570   9.800  13.120
 3385DOPG   D2B62482  31.130   9.840  13.230
 3385DOPG   C3B62483  30.900   9.720  12.970
 3385DOPG   C4B62484  30.850   9.330  12.950
 3386DOPG   GL062485   9.980  16.240  13.420
 3386DOPG   PO462486  10.110  16.480  13.820
 3386DOPG   GL162487   9.720  16.400  13.830
 3386DOPG   GL262488   9.550  16.150  13.760
 3386DOPG   C1A62489   9.300  16.560  13.890
 3386DOPG   D2A62490   8.870  16.560  13.720
 3386DOPG   C3A62491   8.540  16.230  13.760
 3386DOPG   C4A62492   8.310  16.260  14.120
 3386DOPG   C1B62493   9.000  16.100  13.620
 3386DOPG   D2B62494   8.680  15.750  13.540
 3386DOPG   C3B62495   8.200  15.690  13.600
 3386DOPG   C4B62496   7.720  15.690  13.580
 3387DOPG   GL062497  19.780   7.520  11.700
 3387DOPG   PO462498  19.980   7.550  11.290
 3387DOPG   GL162499  20.350   7.740  11.460
 3387DOPG   GL262500  20.150   7.800  11.760
 3387DOPG   C1A62501  20.660   7.950  11.720
 3387DOPG   D2A62502  20.840   8.100  12.060
 3387DOPG   C3A62503  20.890   8.500  12.070
 3387DOPG   C4A62504  20.760   8.860  12.100
 3387DOPG   C1B62505  19.830   8.030  11.810
 3387DOPG   D2B62506  19.830   8.410  11.890
 3387DOPG   C3B62507  19.430   8.530  11.940
 3387DOPG   C4B62508  19.310   8.980  11.850
 3388DOPG   GL062509  27.760  13.490  15.500
 3388DOPG   PO462510  27.580  13.880  15.310
 3388DOPG   GL162511  27.450  13.410  15.040
 3388DOPG   GL262512  27.340  13.440  14.690
 3388DOPG   C1A62513  27.380  12.970  14.970
 3388DOPG   D2A62514  27.290  12.610  14.840
 3388DOPG   C3A62515  27.150  12.230  15.060
 3388DOPG   C4A62516  27.030  11.940  15.430
 3388DOPG   C1B62517  27.060  13.200  14.330
 3388DOPG   D2B62518  26.800  13.170  14.140
 3388DOPG   C3B62519  26.400  13.230  14.210
 3388DOPG   C4B62520  26.030  13.160  13.850
 3389DOPG   GL062521  25.860  15.830  24.140
 3389DOPG   PO462522  25.630  15.970  23.720
 3389DOPG   GL162523  25.350  15.770  23.370
 3389DOPG   GL262524  25.450  16.020  23.180
 3389DOPG   C1A62525  25.160  15.660  23.100
 3389DOPG   D2A62526  24.710  15.760  22.970
 3389DOPG   C3A62527  24.640  15.680  22.540
 3389DOPG   C4A62528  24.440  15.510  22.190
 3389DOPG   C1B62529  25.160  15.960  22.720
 3389DOPG   D2B62530  24.980  15.980  22.440
 3389DOPG   C3B62531  25.130  16.080  22.000
 3389DOPG   C4B62532  24.940  15.950  21.630
 3390DOPG   GL062533  22.290  12.290  12.670
 3390DOPG   PO462534  22.390  11.940  12.400
 3390DOPG   GL162535  22.460  11.940  11.970
 3390DOPG   GL262536  22.410  12.340  12.030
 3390DOPG   C1A62537  22.670  12.060  11.600
 3390DOPG   D2A62538  22.850  11.950  11.210
 3390DOPG   C3A62539  22.660  11.660  10.930
 3390DOPG   C4A62540  22.320  11.400  10.900
 3390DOPG   C1B62541  22.480  12.520  11.640
 3390DOPG   D2B62542  22.930  12.460  11.360
 3390DOPG   C3B62543  23.280  12.510  11.430
 3390DOPG   C4B62544  23.740  12.450  11.190
 3391DOPG   GL062545  19.130  16.110   7.910
 3391DOPG   PO462546  19.450  16.370   7.940
 3391DOPG   GL162547  19.470  16.800   8.190
 3391DOPG   GL262548  19.290  16.590   8.420
 3391DOPG   C1A62549  19.570  17.000   8.640
 3391DOPG   D2A62550  19.560  17.200   9.030
 3391DOPG   C3A62551  19.230  17.360   9.180
 3391DOPG   C4A62552  19.140  17.580   9.610
 3391DOPG   C1B62553  19.270  16.330   8.750
 3391DOPG   D2B62554  19.220  16.140   9.180
 3391DOPG   C3B62555  19.440  16.020   9.560
 3391DOPG   C4B62556  19.630  15.840   9.930
 3392DOPG   GL062557  12.090  21.290   5.380
 3392DOPG   PO462558  12.480  21.260   5.630
 3392DOPG   GL162559  12.490  21.060   6.010
 3392DOPG   GL262560  12.330  21.010   6.330
 3392DOPG   C1A62561  12.790  21.030   6.350
 3392DOPG   D2A62562  12.770  20.850   6.700
 3392DOPG   C3A62563  12.690  20.410   6.760
 3392DOPG   C4A62564  12.610  20.150   6.950
 3392DOPG   C1B62565  12.560  21.380   6.550
 3392DOPG   D2B62566  12.650  21.330   6.950
 3392DOPG   C3B62567  12.810  21.010   7.260
 3392DOPG   C4B62568  12.990  20.630   7.150
 3393DOPG   GL062569  17.620  11.580   8.840
 3393DOPG   PO462570  17.520  11.980   8.620
 3393DOPG   GL162571  17.470  12.210   8.940
 3393DOPG   GL262572  17.780  12.030   9.130
 3393DOPG   C1A62573  17.350  12.200   9.360
 3393DOPG   D2A62574  17.390  12.080   9.810
 3393DOPG   C3A62575  17.670  12.250  10.120
 3393DOPG   C4A62576  18.100  12.430  10.360
 3393DOPG   C1B62577  17.910  12.120   9.580
 3393DOPG   D2B62578  18.200  12.200   9.870
 3393DOPG   C3B62579  18.080  11.900  10.230
 3393DOPG   C4B62580  18.120  11.520  10.360
 3394DOPG   GL062581  19.950  14.730   7.940
 3394DOPG   PO462582  20.250  14.850   8.170
 3394DOPG   GL162583  20.240  14.800   8.640
 3394DOPG   GL262584  20.540  14.900   8.580
 3394DOPG   C1A62585  20.290  15.180   8.940
 3394DOPG   D2A62586  20.260  15.380   9.320
 3394DOPG   C3A62587  19.920  15.680   9.500
 3394DOPG   C4A62588  19.900  16.110   9.600
 3394DOPG   C1B62589  20.540  14.740   9.090
 3394DOPG   D2B62590  20.810  14.750   9.450
 3394DOPG   C3B62591  20.800  14.940   9.830
 3394DOPG   C4B62592  20.730  15.230  10.120
 3395DOPG   GL062593  26.040  17.470  16.880
 3395DOPG   PO462594  26.210  17.710  17.280
 3395DOPG   GL162595  26.610  17.660  17.290
 3395DOPG   GL262596  26.830  17.560  17.030
 3395DOPG   C1A62597  26.820  17.960  17.530
 3395DOPG   D2A62598  27.270  18.030  17.620
 3395DOPG   C3A62599  27.690  18.060  17.650
 3395DOPG   C4A62600  28.090  17.740  17.760
 3395DOPG   C1B62601  27.220  17.670  17.250
 3395DOPG   D2B62602  27.520  17.590  17.670
 3395DOPG   C3B62603  27.840  17.230  17.780
 3395DOPG   C4B62604  28.260  17.230  17.970
 3396DOPG   GL062605  20.790  16.150  14.740
 3396DOPG   PO462606  20.970  16.450  14.770
 3396DOPG   GL162607  20.880  16.720  15.060
 3396DOPG   GL262608  20.750  17.100  15.040
 3396DOPG   C1A62609  21.100  17.020  15.390
 3396DOPG   D2A62610  21.290  17.350  15.640
 3396DOPG   C3A62611  21.150  17.340  16.000
 3396DOPG   C4A62612  20.860  17.400  16.280
 3396DOPG   C1B62613  20.960  17.500  15.230
 3396DOPG   D2B62614  21.130  17.840  15.600
 3396DOPG   C3B62615  20.890  17.810  15.940
 3396DOPG   C4B62616  20.710  17.880  16.260
 3397DOPG   GL062617  13.000  13.100  11.910
 3397DOPG   PO462618  12.930  12.930  12.290
 3397DOPG   GL162619  13.240  13.170  12.360
 3397DOPG   GL262620  13.540  13.120  12.090
 3397DOPG   C1A62621  13.510  13.510  12.440
 3397DOPG   D2A62622  13.980  13.330  12.200
 3397DOPG   C3A62623  14.300  13.440  12.420
 3397DOPG   C4A62624  14.730  13.540  12.320
 3397DOPG   C1B62625  13.800  13.260  11.760
 3397DOPG   D2B62626  14.150  13.280  11.540
 3397DOPG   C3B62627  14.330  13.660  11.320
 3397DOPG   C4B62628  14.910  13.790  11.310
 3398DOPG   GL062629  25.260  15.360   8.300
 3398DOPG   PO462630  25.410  15.770   8.220
 3398DOPG   GL162631  25.380  15.790   7.900
 3398DOPG   GL262632  25.260  16.090   7.890
 3398DOPG   C1A62633  25.660  15.950   7.630
 3398DOPG   D2A62634  26.060  16.080   7.580
 3398DOPG   C3A62635  26.200  16.410   7.260
 3398DOPG   C4A62636  26.250  16.880   7.400
 3398DOPG   C1B62637  25.260  16.030   7.440
 3398DOPG   D2B62638  25.360  15.730   7.060
 3398DOPG   C3B62639  25.580  15.600   6.750
 3398DOPG   C4B62640  25.620  15.280   6.430
 3399DOPG   GL062641  12.960  26.050  13.720
 3399DOPG   PO462642  13.410  26.140  13.490
 3399DOPG   GL162643  13.740  25.900  13.380
 3399DOPG   GL262644  13.700  25.930  13.090
 3399DOPG   C1A62645  13.960  25.500  13.270
 3399DOPG   D2A62646  14.350  25.230  12.990
 3399DOPG   C3A62647  14.360  24.990  12.850
 3399DOPG   C4A62648  14.600  24.700  12.720
 3399DOPG   C1B62649  14.190  25.960  13.100
 3399DOPG   D2B62650  14.600  25.700  13.080
 3399DOPG   C3B62651  14.840  25.260  13.130
 3399DOPG   C4B62652  15.090  25.050  13.430
 3400DOPG   GL062653  25.930  13.080   3.910
 3400DOPG   PO462654  25.920  12.810   4.230
 3400DOPG   GL162655  25.700  12.730   4.720
 3400DOPG   GL262656  25.750  12.370   4.760
 3400DOPG   C1A62657  25.530  12.670   5.210
 3400DOPG   D2A62658  25.320  12.440   5.490
 3400DOPG   C3A62659  25.580  12.420   5.900
 3400DOPG   C4A62660  26.040  12.410   6.030
 3400DOPG   C1B62661  25.990  12.500   5.110
 3400DOPG   D2B62662  25.980  12.510   5.550
 3400DOPG   C3B62663  26.380  12.380   5.680
 3400DOPG   C4B62664  26.600  11.940   6.000
 3401DOPG   GL062665  20.530   1.210   9.050
 3401DOPG   PO462666  20.350   1.470   9.390
 3401DOPG   GL162667  20.220   1.820   9.700
 3401DOPG   GL262668  20.350   1.770  10.090
 3401DOPG   C1A62669  20.100   2.290   9.770
 3401DOPG   D2A62670  20.070   2.750   9.550
 3401DOPG   C3A62671  19.860   3.030   9.940
 3401DOPG   C4A62672  19.650   3.090  10.230
 3401DOPG   C1B62673  20.040   2.120  10.230
 3401DOPG   D2B62674  19.650   2.260  10.410
 3401DOPG   C3B62675  19.740   2.560  10.680
 3401DOPG   C4B62676  20.000   2.960  10.690
 3402DOPG   GL062677  17.970   9.040   9.430
 3402DOPG   PO462678  17.650   8.890   9.320
 3402DOPG   GL162679  17.570   8.690   8.920
 3402DOPG   GL262680  17.800   8.740   8.720
 3402DOPG   C1A62681  17.560   8.330   8.720
 3402DOPG   D2A62682  17.390   8.320   8.360
 3402DOPG   C3A62683  17.190   7.940   8.210
 3402DOPG   C4A62684  17.340   7.670   8.060
 3402DOPG   C1B62685  17.810   8.730   8.300
 3402DOPG   D2B62686  17.600   8.800   7.960
 3402DOPG   C3B62687  17.510   8.580   7.640
 3402DOPG   C4B62688  17.330   8.440   7.270
 3403DOPG   GL062689  18.060  18.830  13.950
 3403DOPG   PO462690  17.920  18.480  14.180
 3403DOPG   GL162691  17.560  18.530  14.400
 3403DOPG   GL262692  17.680  18.510  14.750
 3403DOPG   C1A62693  17.300  18.950  14.600
 3403DOPG   D2A62694  16.970  19.090  14.890
 3403DOPG   C3A62695  17.090  19.000  15.310
 3403DOPG   C4A62696  17.440  18.970  15.590
 3403DOPG   C1B62697  17.650  18.930  14.900
 3403DOPG   D2B62698  17.490  19.230  15.150
 3403DOPG   C3B62699  17.500  19.620  14.990
 3403DOPG   C4B62700  17.520  20.070  14.930
 3404DOPG   GL062701  20.240   9.930  13.370
 3404DOPG   PO462702  20.010   9.900  13.690
 3404DOPG   GL162703  19.960   9.430  13.660
 3404DOPG   GL262704  19.530   9.390  13.690
 3404DOPG   C1A62705  19.950   9.100  13.500
 3404DOPG   D2A62706  19.950   8.550  13.730
 3404DOPG   C3A62707  20.260   8.250  13.650
 3404DOPG   C4A62708  20.580   8.250  13.740
 3404DOPG   C1B62709  19.300   9.770  13.800
 3404DOPG   D2B62710  18.910   9.930  13.980
 3404DOPG   C3B62711  18.560  10.070  13.620
 3404DOPG   C4B62712  18.230  10.020  13.380
 3405DOPG   GL062713  22.630  14.600  12.980
 3405DOPG   PO462714  22.700  14.810  12.580
 3405DOPG   GL162715  23.120  14.720  12.350
 3405DOPG   GL262716  23.060  14.440  12.160
 3405DOPG   C1A62717  23.200  14.790  11.870
 3405DOPG   D2A62718  23.470  14.760  11.460
 3405DOPG   C3A62719  23.140  14.990  11.360
 3405DOPG   C4A62720  22.660  14.830  11.400
 3405DOPG   C1B62721  23.120  14.130  11.810
 3405DOPG   D2B62722  23.410  14.100  11.290
 3405DOPG   C3B62723  23.390  14.500  10.970
 3405DOPG   C4B62724  23.030  14.450  10.660
 3406DOPG   GL062725  13.270  12.310  13.610
 3406DOPG   PO462726  13.440  12.560  13.360
 3406DOPG   GL162727  13.820  12.820  13.660
 3406DOPG   GL262728  13.770  13.200  13.590
 3406DOPG   C1A62729  14.190  12.900  13.440
 3406DOPG   D2A62730  14.430  13.160  13.270
 3406DOPG   C3A62731  14.640  13.300  12.800
 3406DOPG   C4A62732  14.610  13.030  12.460
 3406DOPG   C1B62733  14.020  13.520  13.510
 3406DOPG   D2B62734  13.830  13.860  13.140
 3406DOPG   C3B62735  13.620  14.200  13.290
 3406DOPG   C4B62736  13.550  14.690  13.350
 3407DOPG   GL062737  25.460  20.790  13.560
 3407DOPG   PO462738  25.570  20.590  13.210
 3407DOPG   GL162739  25.930  20.940  13.210
 3407DOPG   GL262740  26.150  20.750  13.340
 3407DOPG   C1A62741  26.020  21.300  13.360
 3407DOPG   D2A62742  26.100  21.650  13.720
 3407DOPG   C3A62743  26.360  21.870  13.960
 3407DOPG   C4A62744  26.900  22.030  14.020
 3407DOPG   C1B62745  26.580  20.610  13.430
 3407DOPG   D2B62746  26.950  20.770  13.630
 3407DOPG   C3B62747  26.930  21.240  13.450
 3407DOPG   C4B62748  27.110  21.700  13.290
 3408DOPG   GL062749  25.260   9.590  17.030
 3408DOPG   PO462750  25.520   9.750  16.730
 3408DOPG   GL162751  25.390  10.110  16.530
 3408DOPG   GL262752  25.190  10.220  16.680
 3408DOPG   C1A62753  25.070  10.300  16.220
 3408DOPG   D2A62754  24.720  10.530  15.990
 3408DOPG   C3A62755  24.400  10.880  16.230
 3408DOPG   C4A62756  23.920  10.940  16.290
 3408DOPG   C1B62757  25.100  10.500  17.030
 3408DOPG   D2B62758  25.180  10.820  17.350
 3408DOPG   C3B62759  24.820  11.080  17.340
 3408DOPG   C4B62760  24.630  11.450  17.150
 3409DOPG   GL062761  17.700  16.490  14.490
 3409DOPG   PO462762  18.000  16.820  14.420
 3409DOPG   GL162763  17.710  16.920  14.710
 3409DOPG   GL262764  17.380  16.840  14.730
 3409DOPG   C1A62765  17.890  16.950  15.060
 3409DOPG   D2A62766  17.880  17.140  15.470
 3409DOPG   C3A62767  17.720  17.410  15.860
 3409DOPG   C4A62768  17.560  17.900  16.120
 3409DOPG   C1B62769  16.970  16.800  15.010
 3409DOPG   D2B62770  16.830  16.970  15.400
 3409DOPG   C3B62771  16.500  16.830  15.600
 3409DOPG   C4B62772  16.150  16.590  15.740
 3410DOPG   GL062773  19.340  10.980  18.640
 3410DOPG   PO462774  19.220  11.380  18.520
 3410DOPG   GL162775  19.250  11.460  18.010
 3410DOPG   GL262776  19.480  11.360  17.730
 3410DOPG   C1A62777  19.020  11.720  17.780
 3410DOPG   D2A62778  18.950  12.030  17.400
 3410DOPG   C3A62779  19.020  11.840  17.010
 3410DOPG   C4A62780  19.110  11.940  16.570
 3410DOPG   C1B62781  19.730  11.280  17.460
 3410DOPG   D2B62782  20.070  11.310  17.380
 3410DOPG   C3B62783  20.110  11.360  17.000
 3410DOPG   C4B62784  20.360  11.190  16.620
 3411DOPG   GL062785  17.300  15.710  15.520
 3411DOPG   PO462786  17.050  15.580  15.250
 3411DOPG   GL162787  16.570  15.300  15.320
 3411DOPG   GL262788  16.700  15.000  15.210
 3411DOPG   C1A62789  16.280  15.290  15.540
 3411DOPG   D2A62790  16.030  15.100  15.840
 3411DOPG   C3A62791  16.090  14.630  15.740
 3411DOPG   C4A62792  15.880  14.230  15.540
 3411DOPG   C1B62793  16.520  14.810  15.550
 3411DOPG   D2B62794  16.520  14.960  15.910
 3411DOPG   C3B62795  16.390  15.280  16.130
 3411DOPG   C4B62796  16.380  15.310  16.560
 3412DOPG   GL062797  13.070  20.190  16.350
 3412DOPG   PO462798  13.090  20.240  16.820
 3412DOPG   GL162799  13.070  20.600  16.970
 3412DOPG   GL262800  12.750  20.540  17.050
 3412DOPG   C1A62801  13.060  20.930  17.240
 3412DOPG   D2A62802  13.060  21.320  17.390
 3412DOPG   C3A62803  13.070  21.720  17.450
 3412DOPG   C4A62804  13.150  22.150  17.530
 3412DOPG   C1B62805  12.540  20.840  17.290
 3412DOPG   D2B62806  12.170  20.960  17.510
 3412DOPG   C3B62807  12.060  21.370  17.390
 3412DOPG   C4B62808  12.160  21.790  17.640
 3413DOPG   GL062809  23.260  11.500  19.010
 3413DOPG   PO462810  23.110  11.470  18.650
 3413DOPG   GL162811  23.230  11.470  18.250
 3413DOPG   GL262812  23.280  11.330  18.020
 3413DOPG   C1A62813  23.280  11.840  17.890
 3413DOPG   D2A62814  23.320  12.390  17.800
 3413DOPG   C3A62815  23.450  12.620  17.450
 3413DOPG   C4A62816  23.820  12.570  17.240
 3413DOPG   C1B62817  22.960  11.470  17.730
 3413DOPG   D2B62818  22.600  11.720  17.670
 3413DOPG   C3B62819  22.630  11.900  17.150
 3413DOPG   C4B62820  22.670  11.800  16.760
 3414DOPG   GL062821  18.430   8.130  10.180
 3414DOPG   PO462822  18.530   8.610  10.130
 3414DOPG   GL162823  18.730   8.750  10.460
 3414DOPG   GL262824  18.470   8.930  10.650
 3414DOPG   C1A62825  19.040   9.110  10.540
 3414DOPG   D2A62826  19.170   9.430  10.790
 3414DOPG   C3A62827  19.180   9.740  11.100
 3414DOPG   C4A62828  19.040   9.790  11.490
 3414DOPG   C1B62829  18.550   9.390  10.680
 3414DOPG   D2B62830  18.720   9.700  10.940
 3414DOPG   C3B62831  18.640   9.950  11.220
 3414DOPG   C4B62832  18.780  10.150  11.610
 3415DOPG   GL062833  14.450  15.760  18.990
 3415DOPG   PO462834  14.780  15.570  19.330
 3415DOPG   GL162835  14.610  15.480  19.670
 3415DOPG   GL262836  14.870  15.370  19.900
 3415DOPG   C1A62837  14.470  15.750  20.020
 3415DOPG   D2A62838  14.150  15.940  20.240
 3415DOPG   C3A62839  14.390  16.320  20.390
 3415DOPG   C4A62840  14.370  16.540  20.770
 3415DOPG   C1B62841  14.900  15.600  20.270
 3415DOPG   D2B62842  14.770  16.010  20.490
 3415DOPG   C3B62843  14.830  16.050  20.970
 3415DOPG   C4B62844  14.750  15.920  21.320
 3416DOPG   GL062845  19.820  16.940  12.080
 3416DOPG   PO462846  20.180  16.820  11.960
 3416DOPG   GL162847  20.430  16.840  11.530
 3416DOPG   GL262848  20.740  17.020  11.470
 3416DOPG   C1A62849  20.310  17.180  11.170
 3416DOPG   D2A62850  20.350  17.700  11.090
 3416DOPG   C3A62851  20.290  17.910  10.670
 3416DOPG   C4A62852  20.190  17.860  10.240
 3416DOPG   C1B62853  20.750  17.360  11.120
 3416DOPG   D2B62854  20.670  17.580  10.650
 3416DOPG   C3B62855  20.570  17.430  10.190
 3416DOPG   C4B62856  20.720  17.360   9.870
 3417DOPG   GL062857  16.410  19.220  13.370
 3417DOPG   PO462858  16.950  19.180  13.270
 3417DOPG   GL162859  16.910  19.360  13.670
 3417DOPG   GL262860  17.230  19.380  13.750
 3417DOPG   C1A62861  16.810  19.570  13.960
 3417DOPG   D2A62862  16.460  19.740  14.010
 3417DOPG   C3A62863  16.420  19.680  13.590
 3417DOPG   C4A62864  16.160  19.580  13.310
 3417DOPG   C1B62865  17.250  19.810  13.950
 3417DOPG   D2B62866  16.880  20.070  14.020
 3417DOPG   C3B62867  16.690  20.050  14.340
 3417DOPG   C4B62868  16.310  19.960  14.430
 3418DOPG   GL062869  19.740  19.960   2.760
 3418DOPG   PO462870  19.730  20.170   3.200
 3418DOPG   GL162871  19.650  20.040   3.700
 3418DOPG   GL262872  19.900  19.970   3.920
 3418DOPG   C1A62873  19.420  20.280   4.030
 3418DOPG   D2A62874  19.680  20.260   4.420
 3418DOPG   C3A62875  19.890  20.130   4.700
 3418DOPG   C4A62876  20.220  19.860   4.570
 3418DOPG   C1B62877  19.730  19.830   4.190
 3418DOPG   D2B62878  19.880  19.540   4.390
 3418DOPG   C3B62879  20.080  19.460   4.810
 3418DOPG   C4B62880  20.110  19.660   5.150
 3419DOPG   GL062881  22.840  15.340  14.220
 3419DOPG   PO462882  22.890  15.640  14.540
 3419DOPG   GL162883  23.330  15.740  14.660
 3419DOPG   GL262884  23.250  15.520  14.970
 3419DOPG   C1A62885  23.700  15.660  14.830
 3419DOPG   D2A62886  24.160  15.660  14.820
 3419DOPG   C3A62887  24.530  15.700  14.890
 3419DOPG   C4A62888  24.890  15.450  14.910
 3419DOPG   C1B62889  23.450  15.750  15.270
 3419DOPG   D2B62890  23.720  15.780  15.710
 3419DOPG   C3B62891  23.960  16.090  15.920
 3419DOPG   C4B62892  24.190  16.460  15.740
 3420DOPG   GL062893  19.080  26.680  18.110
 3420DOPG   PO462894  19.020  26.330  17.840
 3420DOPG   GL162895  19.440  26.140  17.720
 3420DOPG   GL262896  19.770  26.170  17.800
 3420DOPG   C1A62897  19.600  25.760  17.480
 3420DOPG   D2A62898  19.420  25.430  17.070
 3420DOPG   C3A62899  19.260  25.060  17.100
 3420DOPG   C4A62900  19.030  24.740  16.850
 3420DOPG   C1B62901  20.000  26.160  17.430
 3420DOPG   D2B62902  20.280  26.080  17.110
 3420DOPG   C3B62903  20.680  26.020  17.020
 3420DOPG   C4B62904  21.110  26.000  16.780
 3421DOPG   GL062905  18.710  18.770  13.030
 3421DOPG   PO462906  19.090  19.050  13.110
 3421DOPG   GL162907  19.220  19.430  13.200
 3421DOPG   GL262908  18.970  19.630  13.220
 3421DOPG   C1A62909  19.340  19.840  12.940
 3421DOPG   D2A62910  19.400  20.210  12.940
 3421DOPG   C3A62911  19.160  20.520  13.080
 3421DOPG   C4A62912  18.940  20.910  12.920
 3421DOPG   C1B62913  18.920  19.920  12.750
 3421DOPG   D2B62914  18.520  19.960  12.500
 3421DOPG   C3B62915  18.100  20.020  12.630
 3421DOPG   C4B62916  17.590  20.020  12.710
 3422DOPG   GL062917  22.020  16.770  12.550
 3422DOPG   PO462918  22.300  16.390  12.510
 3422DOPG   GL162919  22.760  16.580  12.430
 3422DOPG   GL262920  22.830  16.420  12.210
 3422DOPG   C1A62921  22.980  17.020  12.330
 3422DOPG   D2A62922  23.020  17.260  11.970
 3422DOPG   C3A62923  22.870  17.230  11.700
 3422DOPG   C4A62924  22.740  17.030  11.350
 3422DOPG   C1B62925  23.130  16.190  12.090
 3422DOPG   D2B62926  23.630  16.350  12.090
 3422DOPG   C3B62927  23.860  16.410  12.420
 3422DOPG   C4B62928  24.090  16.680  12.860
 3423DOPG   GL062929  23.350  13.870  13.880
 3423DOPG   PO462930  23.360  14.310  13.580
 3423DOPG   GL162931  23.740  14.440  13.340
 3423DOPG   GL262932  24.020  14.320  13.460
 3423DOPG   C1A62933  24.120  14.660  13.180
 3423DOPG   D2A62934  24.490  14.780  13.030
 3423DOPG   C3A62935  24.770  14.690  13.330
 3423DOPG   C4A62936  24.990  14.870  13.570
 3423DOPG   C1B62937  24.420  14.410  13.590
 3423DOPG   D2B62938  24.710  14.210  13.520
 3423DOPG   C3B62939  25.120  14.380  13.360
 3423DOPG   C4B62940  25.450  14.350  13.140
 3424DOPG   GL062941  19.670   5.300  16.380
 3424DOPG   PO462942  19.600   5.220  15.990
 3424DOPG   GL162943  19.730   4.820  16.130
 3424DOPG   GL262944  19.790   4.690  16.410
 3424DOPG   C1A62945  19.640   4.340  16.060
 3424DOPG   D2A62946  19.640   3.880  16.180
 3424DOPG   C3A62947  19.410   3.580  15.950
 3424DOPG   C4A62948  19.560   3.160  15.730
 3424DOPG   C1B62949  19.940   4.350  16.420
 3424DOPG   D2B62950  19.980   3.910  16.520
 3424DOPG   C3B62951  19.810   3.760  16.630
 3424DOPG   C4B62952  19.830   3.280  16.690
 3425DOPG   GL062953  20.610  20.300   9.630
 3425DOPG   PO462954  20.360  20.130   9.290
 3425DOPG   GL162955  20.340  19.820   9.530
 3425DOPG   GL262956  20.160  19.680   9.420
 3425DOPG   C1A62957  20.460  19.350   9.520
 3425DOPG   D2A62958  20.390  19.070   9.810
 3425DOPG   C3A62959  20.520  19.000  10.230
 3425DOPG   C4A62960  20.620  18.890  10.590
 3425DOPG   C1B62961  19.920  19.340   9.680
 3425DOPG   D2B62962  19.930  18.850   9.750
 3425DOPG   C3B62963  20.070  18.720  10.080
 3425DOPG   C4B62964  20.150  18.740  10.590
 3426DOPG   GL062965  21.220  15.940  14.860
 3426DOPG   PO462966  21.060  15.990  15.210
 3426DOPG   GL162967  21.150  16.120  15.570
 3426DOPG   GL262968  20.990  16.480  15.510
 3426DOPG   C1A62969  21.300  16.070  15.990
 3426DOPG   D2A62970  21.670  16.260  16.230
 3426DOPG   C3A62971  21.910  16.500  15.930
 3426DOPG   C4A62972  22.410  16.590  15.990
 3426DOPG   C1B62973  20.840  16.830  15.760
 3426DOPG   D2B62974  20.530  17.110  15.980
 3426DOPG   C3B62975  20.470  17.150  16.490
 3426DOPG   C4B62976  20.380  17.350  16.920
 3427DOPG   GL062977  25.670  21.030   5.350
 3427DOPG   PO462978  25.990  20.860   5.710
 3427DOPG   GL162979  25.990  20.560   5.980
 3427DOPG   GL262980  26.090  20.200   5.860
 3427DOPG   C1A62981  25.840  20.450   6.450
 3427DOPG   D2A62982  25.520  20.180   6.780
 3427DOPG   C3A62983  25.720  20.080   7.040
 3427DOPG   C4A62984  25.670  19.950   7.400
 3427DOPG   C1B62985  25.900  20.060   6.150
 3427DOPG   D2B62986  25.620  19.900   6.380
 3427DOPG   C3B62987  25.760  19.470   6.250
 3427DOPG   C4B62988  25.710  19.160   6.470
 3428DOPG   GL062989  18.380  27.720  14.320
 3428DOPG   PO462990  18.760  27.960  14.360
 3428DOPG   GL162991  18.850  27.460  14.450
 3428DOPG   GL262992  18.880  27.340  14.760
 3428DOPG   C1A62993  18.840  27.090  14.340
 3428DOPG   D2A62994  19.110  26.820  14.160
 3428DOPG   C3A62995  19.380  26.460  14.350
 3428DOPG   C4A62996  19.330  26.070  14.570
 3428DOPG   C1B62997  18.730  27.030  14.870
 3428DOPG   D2B62998  18.680  26.590  14.920
 3428DOPG   C3B62999  18.920  26.140  14.900
 3428DOPG   C4B63000  18.920  25.710  15.170
 3429DOPG   GL063001  15.540  21.740  14.200
 3429DOPG   PO463002  15.740  22.090  13.860
 3429DOPG   GL163003  15.840  21.710  13.700
 3429DOPG   GL263004  16.030  21.710  13.360
 3429DOPG   C1A63005  15.860  21.210  13.650
 3429DOPG   D2A63006  15.990  20.790  13.670
 3429DOPG   C3A63007  16.030  20.520  13.900
 3429DOPG   C4A63008  16.040  19.970  13.890
 3429DOPG   C1B63009  16.350  21.510  13.100
 3429DOPG   D2B63010  16.370  21.270  12.750
 3429DOPG   C3B63011  16.640  20.950  12.870
 3429DOPG   C4B63012  16.820  20.650  12.730
 3430DOPG   GL063013  16.730  16.060  14.870
 3430DOPG   PO463014  16.600  15.680  14.950
 3430DOPG   GL163015  16.750  15.920  15.490
 3430DOPG   GL263016  17.040  16.180  15.690
 3430DOPG   C1A63017  16.570  16.320  15.710
 3430DOPG   D2A63018  16.530  16.450  16.130
 3430DOPG   C3A63019  16.490  16.110  16.320
 3430DOPG   C4A63020  16.440  15.710  16.270
 3430DOPG   C1B63021  16.940  15.960  16.000
 3430DOPG   D2B63022  17.010  15.780  16.410
 3430DOPG   C3B63023  16.860  15.410  16.660
 3430DOPG   C4B63024  17.100  15.180  16.930
 3431DOPG   GL063025  12.170   7.700   6.900
 3431DOPG   PO463026  12.360   7.690   7.240
 3431DOPG   GL163027  12.550   7.700   7.550
 3431DOPG   GL263028  12.750   7.370   7.540
 3431DOPG   C1A63029  12.670   7.650   7.970
 3431DOPG   D2A63030  12.590   7.320   8.170
 3431DOPG   C3A63031  12.850   7.100   8.480
 3431DOPG   C4A63032  13.300   7.350   8.610
 3431DOPG   C1B63033  13.140   7.700   7.760
 3431DOPG   D2B63034  13.480   7.870   8.000
 3431DOPG   C3B63035  13.620   7.780   8.340
 3431DOPG   C4B63036  13.740   7.500   8.700
 3432DOPG   GL063037  17.950  12.980  13.330
 3432DOPG   PO463038  17.950  12.580  13.140
 3432DOPG   GL163039  17.740  12.260  13.340
 3432DOPG   GL263040  17.530  12.360  13.390
 3432DOPG   C1A63041  17.760  11.940  13.670
 3432DOPG   D2A63042  17.450  11.660  13.540
 3432DOPG   C3A63043  17.040  11.580  13.590
 3432DOPG   C4A63044  16.580  11.490  13.570
 3432DOPG   C1B63045  17.210  12.060  13.360
 3432DOPG   D2B63046  16.910  12.050  13.250
 3432DOPG   C3B63047  16.630  12.200  12.900
 3432DOPG   C4B63048  16.230  12.070  12.890
 3433DOPG   GL063049  11.060  10.930  14.820
 3433DOPG   PO463050  11.000  11.340  15.110
 3433DOPG   GL163051  10.670  11.090  15.090
 3433DOPG   GL263052  10.650  10.790  15.070
 3433DOPG   C1A63053  10.450  11.010  14.660
 3433DOPG   D2A63054  10.030  11.010  14.360
 3433DOPG   C3A63055   9.920  11.420  14.170
 3433DOPG   C4A63056   9.690  11.650  14.180
 3433DOPG   C1B63057  10.220  10.800  15.240
 3433DOPG   D2B63058   9.830  10.950  15.410
 3433DOPG   C3B63059   9.730  10.620  15.400
 3433DOPG   C4B63060   9.320  10.320  15.240
 3434DOPG   GL063061  19.790  15.280  15.220
 3434DOPG   PO463062  20.200  15.530  15.330
 3434DOPG   GL163063  20.450  15.630  15.720
 3434DOPG   GL263064  20.620  15.800  15.660
 3434DOPG   C1A63065  20.300  15.510  16.120
 3434DOPG   D2A63066  20.080  15.530  16.520
 3434DOPG   C3A63067  20.020  15.880  16.880
 3434DOPG   C4A63068  20.070  16.310  16.920
 3434DOPG   C1B63069  20.580  16.320  15.740
 3434DOPG   D2B63070  20.370  16.580  16.150
 3434DOPG   C3B63071  20.580  16.670  16.570
 3434DOPG   C4B63072  20.990  16.560  16.840
 3435DOPG   GL063073  24.050   8.750  17.710
 3435DOPG   PO463074  23.990   8.830  17.400
 3435DOPG   GL163075  23.800   8.940  17.050
 3435DOPG   GL263076  23.770   9.270  17.110
 3435DOPG   C1A63077  23.710   8.960  16.630
 3435DOPG   D2A63078  23.630   9.280  16.270
 3435DOPG   C3A63079  23.180   9.220  16.140
 3435DOPG   C4A63080  22.800   9.170  15.950
 3435DOPG   C1B63081  23.560   9.370  16.870
 3435DOPG   D2B63082  23.230   9.480  16.660
 3435DOPG   C3B63083  23.340   9.800  16.380
 3435DOPG   C4B63084  23.330  10.190  16.130
 3436DOPG   GL063085  20.600  10.990   3.620
 3436DOPG   PO463086  20.890  11.150   3.890
 3436DOPG   GL163087  21.090  10.920   4.180
 3436DOPG   GL263088  20.840  11.090   4.460
 3436DOPG   C1A63089  21.150  10.700   4.650
 3436DOPG   D2A63090  20.930  10.670   4.970
 3436DOPG   C3A63091  21.090  10.820   5.450
 3436DOPG   C4A63092  21.470  10.600   5.710
 3436DOPG   C1B63093  20.980  11.180   4.940
 3436DOPG   D2B63094  20.940  11.310   5.350
 3436DOPG   C3B63095  21.310  11.300   5.640
 3436DOPG   C4B63096  21.700  11.100   5.580
 3437DOPG   GL063097  22.070   5.790  23.220
 3437DOPG   PO463098  21.660   5.770  22.950
 3437DOPG   GL163099  21.530   5.890  22.630
 3437DOPG   GL263100  21.360   6.130  22.670
 3437DOPG   C1A63101  21.320   5.890  22.150
 3437DOPG   D2A63102  21.200   6.240  21.930
 3437DOPG   C3A63103  21.110   6.160  21.470
 3437DOPG   C4A63104  21.120   6.120  20.960
 3437DOPG   C1B63105  21.040   6.260  22.430
 3437DOPG   D2B63106  20.740   6.290  22.090
 3437DOPG   C3B63107  20.760   6.520  21.680
 3437DOPG   C4B63108  20.500   6.830  21.590
 3438DOPG   GL063109  10.120  14.730  15.020
 3438DOPG   PO463110   9.760  14.400  14.880
 3438DOPG   GL163111   9.400  14.120  14.880
 3438DOPG   GL263112   9.310  13.960  14.660
 3438DOPG   C1A63113   9.000  13.900  15.090
 3438DOPG   D2A63114   8.740  13.630  14.970
 3438DOPG   C3A63115   8.460  13.510  14.590
 3438DOPG   C4A63116   8.550  13.250  14.200
 3438DOPG   C1B63117   8.860  14.080  14.690
 3438DOPG   D2B63118   8.840  14.420  14.900
 3438DOPG   C3B63119   8.470  14.580  14.860
 3438DOPG   C4B63120   8.400  14.910  15.210
 3439DOPG   GL063121  16.830  13.910  14.760
 3439DOPG   PO463122  17.170  14.180  14.890
 3439DOPG   GL163123  17.310  14.220  15.390
 3439DOPG   GL263124  17.200  14.590  15.500
 3439DOPG   C1A63125  17.480  14.280  15.840
 3439DOPG   D2A63126  17.480  14.220  16.270
 3439DOPG   C3A63127  17.070  14.030  16.370
 3439DOPG   C4A63128  16.850  14.220  16.690
 3439DOPG   C1B63129  16.980  14.390  15.790
 3439DOPG   D2B63130  16.770  14.430  16.240
 3439DOPG   C3B63131  17.080  14.570  16.430
 3439DOPG   C4B63132  17.300  14.960  16.510
 3440DOPG   GL063133  15.680  13.040   8.940
 3440DOPG   PO463134  15.560  12.650   8.880
 3440DOPG   GL163135  15.700  12.700   9.310
 3440DOPG   GL263136  15.930  13.020   9.360
 3440DOPG   C1A63137  15.990  12.660   9.660
 3440DOPG   D2A63138  16.170  12.860  10.000
 3440DOPG   C3A63139  16.420  12.920  10.390
 3440DOPG   C4A63140  16.570  12.900  10.840
 3440DOPG   C1B63141  15.980  13.260   9.770
 3440DOPG   D2B63142  15.610  13.360   9.960
 3440DOPG   C3B63143  15.650  13.400  10.400
 3440DOPG   C4B63144  15.680  13.240  10.900
 3441DOPG   GL063145  22.610  13.950  12.310
 3441DOPG   PO463146  22.560  13.720  12.030
 3441DOPG   GL163147  22.500  13.460  11.630
 3441DOPG   GL263148  22.210  13.240  11.510
 3441DOPG   C1A63149  22.580  13.410  11.200
 3441DOPG   D2A63150  22.920  13.420  10.880
 3441DOPG   C3A63151  23.200  13.760  10.880
 3441DOPG   C4A63152  23.400  14.040  10.560
 3441DOPG   C1B63153  22.300  12.890  11.390
 3441DOPG   D2B63154  21.990  12.590  11.180
 3441DOPG   C3B63155  21.710  12.160  11.220
 3441DOPG   C4B63156  21.460  11.870  10.880
 3442DOPG   GL063157  25.530  20.340  12.770
 3442DOPG   PO463158  25.240  20.610  12.600
 3442DOPG   GL163159  25.600  20.860  12.630
 3442DOPG   GL263160  25.870  20.810  12.760
 3442DOPG   C1A63161  25.830  21.240  12.590
 3442DOPG   D2A63162  26.080  21.490  12.810
 3442DOPG   C3A63163  26.280  21.940  12.590
 3442DOPG   C4A63164  26.650  22.230  12.540
 3442DOPG   C1B63165  26.280  20.970  12.840
 3442DOPG   D2B63166  26.480  21.120  13.230
 3442DOPG   C3B63167  26.410  21.560  13.180
 3442DOPG   C4B63168  26.450  21.960  13.070
 3443DOPG   GL063169  24.510   7.220  17.610
 3443DOPG   PO463170  24.430   6.840  17.540
 3443DOPG   GL163171  24.390   6.430  17.830
 3443DOPG   GL263172  24.400   6.140  17.690
 3443DOPG   C1A63173  24.520   6.110  18.190
 3443DOPG   D2A63174  24.550   5.660  18.250
 3443DOPG   C3A63175  24.620   5.350  18.550
 3443DOPG   C4A63176  24.610   4.920  18.810
 3443DOPG   C1B63177  24.790   6.020  17.760
 3443DOPG   D2B63178  25.190   5.870  17.740
 3443DOPG   C3B63179  25.290   5.740  18.030
 3443DOPG   C4B63180  25.070   5.540  18.380
 3444DOPG   GL063181  17.740  21.490  15.960
 3444DOPG   PO463182  17.340  21.680  15.850
 3444DOPG   GL163183  17.350  21.260  15.630
 3444DOPG   GL263184  17.530  21.040  15.720
 3444DOPG   C1A63185  17.310  21.010  15.240
 3444DOPG   D2A63186  17.390  20.840  14.770
 3444DOPG   C3A63187  17.510  20.470  14.630
 3444DOPG   C4A63188  17.590  20.310  14.270
 3444DOPG   C1B63189  17.370  20.610  15.590
 3444DOPG   D2B63190  17.570  20.240  15.370
 3444DOPG   C3B63191  17.500  19.770  15.450
 3444DOPG   C4B63192  17.440  19.480  15.700
 3445DOPG   GL063193  22.110  11.720  15.370
 3445DOPG   PO463194  21.670  11.530  15.520
 3445DOPG   GL163195  21.620  11.460  15.920
 3445DOPG   GL263196  21.780  11.660  16.050
 3445DOPG   C1A63197  21.300  11.590  16.260
 3445DOPG   D2A63198  21.280  11.630  16.670
 3445DOPG   C3A63199  20.910  11.580  17.030
 3445DOPG   C4A63200  20.550  11.190  17.140
 3445DOPG   C1B63201  21.690  11.380  16.530
 3445DOPG   D2B63202  21.940  11.130  16.730
 3445DOPG   C3B63203  22.430  11.260  16.630
 3445DOPG   C4B63204  22.610  11.380  16.210
 3446DOPG   GL063205  19.940  19.320  13.870
 3446DOPG   PO463206  20.190  19.040  13.900
 3446DOPG   GL163207  20.540  19.150  14.010
 3446DOPG   GL263208  20.360  19.210  14.360
 3446DOPG   C1A63209  20.820  19.300  14.170
 3446DOPG   D2A63210  21.050  19.370  14.620
 3446DOPG   C3A63211  21.410  19.630  14.630
 3446DOPG   C4A63212  21.490  19.820  14.980
 3446DOPG   C1B63213  20.270  19.600  14.180
 3446DOPG   D2B63214  19.860  19.820  14.050
 3446DOPG   C3B63215  19.440  19.910  14.230
 3446DOPG   C4B63216  19.020  20.060  14.470
 3447DOPG   GL063217  13.780   7.140  13.850
 3447DOPG   PO463218  13.400   7.410  13.810
 3447DOPG   GL163219  13.050   7.250  13.760
 3447DOPG   GL263220  12.670   7.400  13.880
 3447DOPG   C1A63221  12.740   6.950  13.610
 3447DOPG   D2A63222  12.540   6.530  13.470
 3447DOPG   C3A63223  12.170   6.550  13.380
 3447DOPG   C4A63224  11.760   6.440  13.340
 3447DOPG   C1B63225  12.220   7.500  13.850
 3447DOPG   D2B63226  11.860   7.580  13.650
 3447DOPG   C3B63227  11.730   7.200  13.500
 3447DOPG   C4B63228  11.880   6.900  13.230
 3448DOPG   GL063229  20.280  12.790  18.940
 3448DOPG   PO463230  19.980  13.000  19.040
 3448DOPG   GL163231  19.840  12.920  18.590
 3448DOPG   GL263232  19.940  13.130  18.390
 3448DOPG   C1A63233  19.850  12.640  18.190
 3448DOPG   D2A63234  19.640  12.570  17.740
 3448DOPG   C3A63235  19.800  12.680  17.330
 3448DOPG   C4A63236  19.740  12.900  16.940
 3448DOPG   C1B63237  20.300  12.840  18.260
 3448DOPG   D2B63238  20.330  12.470  18.090
 3448DOPG   C3B63239  20.700  12.180  18.150
 3448DOPG   C4B63240  21.010  12.270  17.890
 3449DOPG   GL063241  21.440  14.660  15.260
 3449DOPG   PO463242  21.130  14.440  15.310
 3449DOPG   GL163243  21.240  14.370  15.760
 3449DOPG   GL263244  21.240  14.680  15.840
 3449DOPG   C1A63245  21.410  14.370  16.220
 3449DOPG   D2A63246  21.370  14.580  16.610
 3449DOPG   C3A63247  21.510  14.800  16.950
 3449DOPG   C4A63248  21.810  14.970  17.220
 3449DOPG   C1B63249  20.980  14.540  16.320
 3449DOPG   D2B63250  20.900  14.640  16.650
 3449DOPG   C3B63251  20.940  14.990  16.920
 3449DOPG   C4B63252  20.820  15.370  17.110
 3450DOPG   GL063253  19.530   9.970  18.620
 3450DOPG   PO463254  19.330   9.920  18.280
 3450DOPG   GL163255  19.360  10.130  17.950
 3450DOPG   GL263256  19.120  10.120  17.830
 3450DOPG   C1A63257  19.650  10.290  17.730
 3450DOPG   D2A63258  20.120  10.400  17.610
 3450DOPG   C3A63259  20.200  10.690  17.280
 3450DOPG   C4A63260  20.460  10.820  16.880
 3450DOPG   C1B63261  19.390  10.000  17.460
 3450DOPG   D2B63262  19.260   9.730  17.170
 3450DOPG   C3B63263  19.150   9.730  16.600
 3450DOPG   C4B63264  19.340   9.910  16.120
 3451DOPG   GL063265  16.180  14.520  12.820
 3451DOPG   PO463266  16.350  14.580  12.450
 3451DOPG   GL163267  16.220  14.600  11.990
 3451DOPG   GL263268  15.920  14.840  12.040
 3451DOPG   C1A63269  15.980  14.400  11.730
 3451DOPG   D2A63270  15.870  14.350  11.270
 3451DOPG   C3A63271  15.440  14.360  11.150
 3451DOPG   C4A63272  15.230  14.660  10.820
 3451DOPG   C1B63273  15.600  14.850  11.930
 3451DOPG   D2B63274  15.130  14.690  11.970
 3451DOPG   C3B63275  14.970  14.320  11.810
 3451DOPG   C4B63276  14.550  14.100  11.650
 3452DOPG   GL063277   6.230  12.200  13.710
 3452DOPG   PO463278   6.520  12.300  13.560
 3452DOPG   GL163279   6.850  12.370  13.740
 3452DOPG   GL263280   7.070  12.250  13.590
 3452DOPG   C1A63281   7.100  12.770  13.870
 3452DOPG   D2A63282   7.460  13.030  13.910
 3452DOPG   C3A63283   7.700  12.850  13.580
 3452DOPG   C4A63284   8.040  12.970  13.320
 3452DOPG   C1B63285   7.330  12.520  13.440
 3452DOPG   D2B63286   7.280  13.020  13.390
 3452DOPG   C3B63287   7.000  13.070  13.030
 3452DOPG   C4B63288   7.000  12.940  12.700
 3453DOPG   GL063289  15.100   4.380  21.140
 3453DOPG   PO463290  14.660   4.460  21.320
 3453DOPG   GL163291  14.690   4.860  21.100
 3453DOPG   GL263292  14.300   4.980  21.050
 3453DOPG   C1A63293  14.920   5.160  20.900
 3453DOPG   D2A63294  14.780   5.430  20.490
 3453DOPG   C3A63295  14.730   5.200  20.060
 3453DOPG   C4A63296  14.840   5.310  19.640
 3453DOPG   C1B63297  14.560   4.910  20.650
 3453DOPG   D2B63298  14.790   4.590  20.270
 3453DOPG   C3B63299  15.010   4.440  19.900
 3453DOPG   C4B63300  14.920   4.680  19.530
 3454DOPG   GL063301  11.960  17.920  10.630
 3454DOPG   PO463302  11.830  17.880  10.180
 3454DOPG   GL163303  11.530  18.030  10.030
 3454DOPG   GL263304  11.670  17.940   9.700
 3454DOPG   C1A63305  11.190  18.210   9.870
 3454DOPG   D2A63306  10.810  18.460   9.990
 3454DOPG   C3A63307  10.380  18.480   9.760
 3454DOPG   C4A63308  10.240  18.220   9.390
 3454DOPG   C1B63309  11.410  18.080   9.360
 3454DOPG   D2B63310  11.100  18.510   9.310
 3454DOPG   C3B63311  10.730  18.700   9.560
 3454DOPG   C4B63312  10.600  18.880   9.940
 3455DOPG   GL063313  20.170  14.970  15.190
 3455DOPG   PO463314  20.070  14.660  15.260
 3455DOPG   GL163315  19.920  14.910  15.640
 3455DOPG   GL263316  20.040  15.250  15.750
 3455DOPG   C1A63317  19.800  14.750  16.030
 3455DOPG   D2A63318  19.480  14.830  16.330
 3455DOPG   C3A63319  19.520  14.560  16.640
 3455DOPG   C4A63320  19.270  14.390  16.840
 3455DOPG   C1B63321  19.820  15.700  16.020
 3455DOPG   D2B63322  19.820  16.010  16.390
 3455DOPG   C3B63323  19.980  16.450  16.470
 3455DOPG   C4B63324  20.090  16.840  16.710
 3456DOPG   GL063325  22.050  21.290   9.220
 3456DOPG   PO463326  21.700  21.520   9.160
 3456DOPG   GL163327  21.930  21.630   8.750
 3456DOPG   GL263328  22.320  21.620   8.980
 3456DOPG   C1A63329  22.040  21.940   8.400
 3456DOPG   D2A63330  22.330  22.100   8.180
 3456DOPG   C3A63331  22.300  22.320   7.800
 3456DOPG   C4A63332  22.340  22.390   7.380
 3456DOPG   C1B63333  22.540  21.740   8.590
 3456DOPG   D2B63334  22.840  22.050   8.320
 3456DOPG   C3B63335  22.690  22.380   8.050
 3456DOPG   C4B63336  22.430  22.770   8.020
 3457DOPG   GL063337  14.010  14.810  17.630
 3457DOPG   PO463338  13.810  14.610  17.250
 3457DOPG   GL163339  14.050  14.670  16.790
 3457DOPG   GL263340  14.140  15.080  16.710
 3457DOPG   C1A63341  14.370  14.640  16.480
 3457DOPG   D2A63342  14.750  14.500  16.170
 3457DOPG   C3A63343  14.630  14.700  15.750
 3457DOPG   C4A63344  14.340  14.830  15.460
 3457DOPG   C1B63345  14.500  15.240  16.550
 3457DOPG   D2B63346  14.570  15.530  16.200
 3457DOPG   C3B63347  14.970  15.820  16.050
 3457DOPG   C4B63348  15.050  16.060  15.680
 3458DOPG   GL063349  12.010  25.790  12.750
 3458DOPG   PO463350  11.660  25.640  12.490
 3458DOPG   GL163351  12.020  25.360  12.510
 3458DOPG   GL263352  12.330  25.400  12.640
 3458DOPG   C1A63353  12.160  24.940  12.330
 3458DOPG   D2A63354  11.910  24.650  12.020
 3458DOPG   C3A63355  11.950  24.210  12.000
 3458DOPG   C4A63356  11.910  23.930  12.380
 3458DOPG   C1B63357  12.690  25.530  12.450
 3458DOPG   D2B63358  12.980  25.250  12.080
 3458DOPG   C3B63359  13.320  25.010  12.010
 3458DOPG   C4B63360  13.370  24.480  11.980
 3459DOPG   GL063361  16.290  17.100  13.680
 3459DOPG   PO463362  16.180  17.390  13.910
 3459DOPG   GL163363  15.920  17.220  14.170
 3459DOPG   GL263364  15.570  17.440  14.110
 3459DOPG   C1A63365  15.690  17.340  14.580
 3459DOPG   D2A63366  15.240  17.390  14.700
 3459DOPG   C3A63367  14.910  16.990  14.790
 3459DOPG   C4A63368  14.580  16.770  14.940
 3459DOPG   C1B63369  15.250  17.740  14.070
 3459DOPG   D2B63370  14.810  18.020  14.180
 3459DOPG   C3B63371  14.490  18.050  13.840
 3459DOPG   C4B63372  14.410  17.940  13.490
 3460DOPG   GL063373  18.170  11.160  12.960
 3460DOPG   PO463374  18.470  11.440  13.170
 3460DOPG   GL163375  18.250  11.170  13.500
 3460DOPG   GL263376  18.420  10.970  13.450
 3460DOPG   C1A63377  17.850  10.880  13.720
 3460DOPG   D2A63378  17.850  10.460  14.070
 3460DOPG   C3A63379  18.170  10.110  14.060
 3460DOPG   C4A63380  18.370   9.770  14.040
 3460DOPG   C1B63381  18.330  10.580  13.660
 3460DOPG   D2B63382  17.940  10.460  13.510
 3460DOPG   C3B63383  17.790  10.250  13.140
 3460DOPG   C4B63384  17.750   9.990  12.810
 3461DOPG   GL063385  21.820  10.550  14.660
 3461DOPG   PO463386  22.360  10.650  14.770
 3461DOPG   GL163387  22.440  10.320  15.050
 3461DOPG   GL263388  22.110  10.020  14.930
 3461DOPG   C1A63389  22.750  10.350  15.400
 3461DOPG   D2A63390  23.120  10.270  15.660
 3461DOPG   C3A63391  23.160   9.940  15.490
 3461DOPG   C4A63392  23.360   9.610  15.330
 3461DOPG   C1B63393  22.310   9.930  15.390
 3461DOPG   D2B63394  22.330  10.200  15.840
 3461DOPG   C3B63395  22.550  10.450  15.980
 3461DOPG   C4B63396  22.690  10.820  15.770
 3462DOPG   GL063397  24.790   8.580  11.790
 3462DOPG   PO463398  24.700   8.710  11.230
 3462DOPG   GL163399  24.210   8.710  11.400
 3462DOPG   GL263400  24.330   8.740  11.760
 3462DOPG   C1A63401  23.840   8.630  11.620
 3462DOPG   D2A63402  23.570   8.710  11.910
 3462DOPG   C3A63403  23.550   8.330  12.120
 3462DOPG   C4A63404  23.520   8.340  12.610
 3462DOPG   C1B63405  24.040   8.600  12.080
 3462DOPG   D2B63406  23.730   8.760  12.350
 3462DOPG   C3B63407  23.350   8.850  12.310
 3462DOPG   C4B63408  23.030   8.930  12.450
 3463DOPG   GL063409  22.190  15.800  15.290
 3463DOPG   PO463410  22.030  15.950  15.000
 3463DOPG   GL163411  22.350  16.250  15.170
 3463DOPG   GL263412  22.660  16.290  15.010
 3463DOPG   C1A63413  22.530  16.510  15.550
 3463DOPG   D2A63414  22.880  16.550  15.670
 3463DOPG   C3A63415  23.180  16.870  15.570
 3463DOPG   C4A63416  23.560  17.010  15.460
 3463DOPG   C1B63417  22.900  16.600  15.150
 3463DOPG   D2B63418  23.130  17.000  15.120
 3463DOPG   C3B63419  23.540  17.010  14.920
 3463DOPG   C4B63420  23.910  17.120  14.720
 3464DOPG   GL063421  17.450  13.730  13.780
 3464DOPG   PO463422  17.430  13.520  14.190
 3464DOPG   GL163423  17.080  13.480  14.480
 3464DOPG   GL263424  17.130  13.120  14.560
 3464DOPG   C1A63425  16.620  13.450  14.660
 3464DOPG   D2A63426  16.380  13.250  14.380
 3464DOPG   C3A63427  16.230  12.820  14.390
 3464DOPG   C4A63428  15.990  12.590  14.620
 3464DOPG   C1B63429  16.740  12.870  14.550
 3464DOPG   D2B63430  16.530  12.510  14.660
 3464DOPG   C3B63431  16.620  12.060  14.780
 3464DOPG   C4B63432  16.400  11.650  14.980
 3465DOPG   GL063433  19.770  15.900  19.010
 3465DOPG   PO463434  19.390  15.740  18.990
 3465DOPG   GL163435  19.280  15.850  18.530
 3465DOPG   GL263436  19.200  16.180  18.410
 3465DOPG   C1A63437  19.360  15.620  18.060
 3465DOPG   D2A63438  19.510  15.320  17.730
 3465DOPG   C3A63439  19.340  15.320  17.370
 3465DOPG   C4A63440  19.240  15.090  16.950
 3465DOPG   C1B63441  18.980  16.000  18.130
 3465DOPG   D2B63442  18.590  15.930  17.820
 3465DOPG   C3B63443  18.460  15.570  17.630
 3465DOPG   C4B63444  18.500  15.340  17.360
 3466DOPG   GL063445  28.290  12.190  11.540
 3466DOPG   PO463446  27.940  12.430  11.400
 3466DOPG   GL163447  28.260  12.730  11.340
 3466DOPG   GL263448  28.230  12.830  11.620
 3466DOPG   C1A63449  28.660  12.560  11.330
 3466DOPG   D2A63450  29.050  12.630  11.350
 3466DOPG   C3A63451  29.230  12.410  11.020
 3466DOPG   C4A63452  29.490  11.960  10.940
 3466DOPG   C1B63453  28.620  13.040  11.580
 3466DOPG   D2B63454  29.020  13.220  11.570
 3466DOPG   C3B63455  29.400  13.070  11.380
 3466DOPG   C4B63456  29.890  12.940  11.520
 3467DOPG   GL063457  19.760  18.030  14.600
 3467DOPG   PO463458  19.920  18.480  14.480
 3467DOPG   GL163459  20.180  18.710  14.760
 3467DOPG   GL263460  20.080  19.140  14.750
 3467DOPG   C1A63461  20.430  18.830  15.150
 3467DOPG   D2A63462  20.410  19.070  15.490
 3467DOPG   C3A63463  20.310  19.410  15.330
 3467DOPG   C4A63464  20.230  19.610  15.040
 3467DOPG   C1B63465  19.880  18.950  15.130
 3467DOPG   D2B63466  19.770  18.550  15.390
 3467DOPG   C3B63467  19.800  18.360  15.750
 3467DOPG   C4B63468  19.620  18.300  16.170
 3468DOPG   GL063469  20.990  12.070  15.010
 3468DOPG   PO463470  20.700  11.920  15.390
 3468DOPG   GL163471  20.740  12.180  15.740
 3468DOPG   GL263472  20.840  12.010  15.880
 3468DOPG   C1A63473  20.880  12.480  16.070
 3468DOPG   D2A63474  21.010  12.770  16.470
 3468DOPG   C3A63475  21.040  12.810  16.850
 3468DOPG   C4A63476  21.200  12.810  17.180
 3468DOPG   C1B63477  20.340  11.860  16.040
 3468DOPG   D2B63478  20.310  11.640  16.340
 3468DOPG   C3B63479  19.980  11.420  16.390
 3468DOPG   C4B63480  19.980  11.000  16.400
 3469DOPG   GL063481  12.810   2.420  16.940
 3469DOPG   PO463482  12.930   2.800  17.100
 3469DOPG   GL163483  13.170   3.190  17.010
 3469DOPG   GL263484  13.060   3.300  17.290
 3469DOPG   C1A63485  13.360   3.520  16.910
 3469DOPG   D2A63486  13.480   3.940  17.050
 3469DOPG   C3A63487  13.590   4.390  17.050
 3469DOPG   C4A63488  13.610   4.730  17.280
 3469DOPG   C1B63489  13.210   3.770  17.560
 3469DOPG   D2B63490  13.350   4.230  17.700
 3469DOPG   C3B63491  13.820   4.420  17.610
 3469DOPG   C4B63492  14.030   4.890  17.560
 3470DOPG   GL063493  13.770  13.580  16.080
 3470DOPG   PO463494  13.970  13.620  16.510
 3470DOPG   GL163495  14.450  13.580  16.360
 3470DOPG   GL263496  14.740  13.680  16.510
 3470DOPG   C1A63497  14.820  13.520  15.990
 3470DOPG   D2A63498  15.320  13.690  15.870
 3470DOPG   C3A63499  15.390  13.980  15.540
 3470DOPG   C4A63500  15.320  14.330  15.240
 3470DOPG   C1B63501  15.120  13.590  16.550
 3470DOPG   D2B63502  15.570  13.620  16.390
 3470DOPG   C3B63503  15.770  13.880  16.040
 3470DOPG   C4B63504  15.510  14.160  15.970
 3471DOPG   GL063505  18.410  14.270  14.900
 3471DOPG   PO463506  18.050  14.050  15.200
 3471DOPG   GL163507  17.850  13.910  15.540
 3471DOPG   GL263508  17.660  13.540  15.460
 3471DOPG   C1A63509  17.660  13.800  15.930
 3471DOPG   D2A63510  17.870  13.580  16.290
 3471DOPG   C3A63511  18.220  13.630  16.470
 3471DOPG   C4A63512  18.490  14.010  16.500
 3471DOPG   C1B63513  17.390  13.110  15.410
 3471DOPG   D2B63514  17.140  12.820  15.510
 3471DOPG   C3B63515  16.670  12.590  15.530
 3471DOPG   C4B63516  16.640  12.860  15.880
 3472DOPG   GL063517  26.640  15.250   4.840
 3472DOPG   PO463518  26.480  15.570   4.530
 3472DOPG   GL163519  26.280  15.570   4.910
 3472DOPG   GL263520  25.990  15.350   4.960
 3472DOPG   C1A63521  26.450  15.640   5.320
 3472DOPG   D2A63522  26.500  15.480   5.690
 3472DOPG   C3A63523  26.230  15.630   5.930
 3472DOPG   C4A63524  25.980  15.630   6.280
 3472DOPG   C1B63525  25.810  15.380   5.420
 3472DOPG   D2B63526  25.660  15.420   5.790
 3472DOPG   C3B63527  25.900  15.180   6.030
 3472DOPG   C4B63528  26.240  15.170   6.410
 3473DOPG   GL063529  18.880  17.140  12.000
 3473DOPG   PO463530  18.650  17.080  11.500
 3473DOPG   GL163531  18.760  17.310  11.200
 3473DOPG   GL263532  18.600  17.640  11.240
 3473DOPG   C1A63533  18.590  17.540  10.780
 3473DOPG   D2A63534  18.360  17.490  10.400
 3473DOPG   C3A63535  18.490  17.150  10.150
 3473DOPG   C4A63536  18.500  16.720  10.310
 3473DOPG   C1B63537  18.910  17.810  11.080
 3473DOPG   D2B63538  19.200  17.910  10.730
 3473DOPG   C3B63539  19.260  18.170  10.440
 3473DOPG   C4B63540  19.070  18.630  10.490
 3474DOPG   GL063541  22.080  11.250  14.390
 3474DOPG   PO463542  21.990  11.070  14.750
 3474DOPG   GL163543  22.100  11.090  15.120
 3474DOPG   GL263544  22.330  10.860  15.230
 3474DOPG   C1A63545  21.860  10.920  15.420
 3474DOPG   D2A63546  21.710  10.510  15.470
 3474DOPG   C3A63547  21.730  10.100  15.370
 3474DOPG   C4A63548  21.330   9.830  15.220
 3474DOPG   C1B63549  22.260  10.590  15.540
 3474DOPG   D2B63550  22.020  10.620  15.930
 3474DOPG   C3B63551  21.980  10.310  16.300
 3474DOPG   C4B63552  22.010   9.730  16.250
 3475DOPG   GL063553  11.230  18.810  14.670
 3475DOPG   PO463554  11.050  18.730  15.050
 3475DOPG   GL163555  10.650  18.830  14.870
 3475DOPG   GL263556  10.510  18.550  14.840
 3475DOPG   C1A63557  10.270  19.120  14.980
 3475DOPG   D2A63558  10.040  19.520  15.000
 3475DOPG   C3A63559   9.990  19.820  15.280
 3475DOPG   C4A63560   9.670  19.980  15.530
 3475DOPG   C1B63561  10.170  18.620  15.210
 3475DOPG   D2B63562   9.750  18.660  15.150
 3475DOPG   C3B63563   9.490  18.440  15.460
 3475DOPG   C4B63564   9.080  18.440  15.450
 3476DOPG   GL063565  15.650  10.750  11.480
 3476DOPG   PO463566  15.320  10.480  11.730
 3476DOPG   GL163567  15.620  10.620  12.000
 3476DOPG   GL263568  15.690  10.980  11.880
 3476DOPG   C1A63569  16.040  10.780  12.250
 3476DOPG   D2A63570  16.510  10.640  12.330
 3476DOPG   C3A63571  16.710  11.010  12.350
 3476DOPG   C4A63572  16.690  11.340  12.540
 3476DOPG   C1B63573  16.090  11.210  11.800
 3476DOPG   D2B63574  16.370  11.410  11.500
 3476DOPG   C3B63575  16.590  11.840  11.560
 3476DOPG   C4B63576  16.780  12.280  11.650
 3477DOPG   GL063577  26.360  17.980  14.180
 3477DOPG   PO463578  26.340  17.950  13.720
 3477DOPG   GL163579  26.000  17.640  13.860
 3477DOPG   GL263580  25.830  17.660  14.120
 3477DOPG   C1A63581  25.600  17.380  13.750
 3477DOPG   D2A63582  25.440  17.120  13.500
 3477DOPG   C3A63583  25.050  16.910  13.620
 3477DOPG   C4A63584  24.810  16.530  13.730
 3477DOPG   C1B63585  25.340  17.550  14.130
 3477DOPG   D2B63586  25.130  17.180  13.990
 3477DOPG   C3B63587  24.790  17.110  14.080
 3477DOPG   C4B63588  24.380  17.320  14.100
 3478DOPG   GL063589  14.780  13.580  16.960
 3478DOPG   PO463590  14.700  13.890  17.210
 3478DOPG   GL163591  14.900  14.230  17.180
 3478DOPG   GL263592  14.830  14.530  17.250
 3478DOPG   C1A63593  15.280  14.440  16.880
 3478DOPG   D2A63594  15.400  14.630  16.470
 3478DOPG   C3A63595  15.200  14.670  16.120
 3478DOPG   C4A63596  15.040  14.450  15.760
 3478DOPG   C1B63597  14.790  14.770  16.920
 3478DOPG   D2B63598  14.980  14.920  16.510
 3478DOPG   C3B63599  14.780  14.990  16.120
 3478DOPG   C4B63600  15.070  15.000  15.790
 3479DOPG   GL063601  14.740   7.230  18.250
 3479DOPG   PO463602  15.090   7.000  18.170
 3479DOPG   GL163603  14.680   6.640  18.100
 3479DOPG   GL263604  14.350   6.720  18.160
 3479DOPG   C1A63605  14.450   6.230  18.000
 3479DOPG   D2A63606  14.340   5.890  18.190
 3479DOPG   C3A63607  14.190   5.540  18.060
 3479DOPG   C4A63608  14.220   5.130  17.990
 3479DOPG   C1B63609  13.960   6.600  18.400
 3479DOPG   D2B63610  13.850   6.700  18.850
 3479DOPG   C3B63611  14.100   7.010  18.960
 3479DOPG   C4B63612  14.460   7.060  19.200
 3480DOPG   GL063613  15.810  18.450  13.210
 3480DOPG   PO463614  15.980  18.250  13.610
 3480DOPG   GL163615  16.010  18.320  14.040
 3480DOPG   GL263616  16.210  18.190  14.240
 3480DOPG   C1A63617  15.670  18.390  14.350
 3480DOPG   D2A63618  15.500  17.940  14.540
 3480DOPG   C3A63619  15.020  17.880  14.670
 3480DOPG   C4A63620  14.820  18.190  14.910
 3480DOPG   C1B63621  15.990  18.160  14.640
 3480DOPG   D2B63622  15.640  18.200  14.920
 3480DOPG   C3B63623  15.300  18.320  14.740
 3480DOPG   C4B63624  14.970  18.440  14.430
 3481DOPG   GL063625  11.040  12.020  16.360
 3481DOPG   PO463626  10.770  12.270  16.450
 3481DOPG   GL163627  10.670  11.900  16.770
 3481DOPG   GL263628  10.620  11.630  16.920
 3481DOPG   C1A63629  10.260  11.920  16.740
 3481DOPG   D2A63630   9.790  11.810  16.920
 3481DOPG   C3A63631   9.740  11.380  17.100
 3481DOPG   C4A63632   9.660  10.950  17.120
 3481DOPG   C1B63633  10.260  11.410  16.980
 3481DOPG   D2B63634  10.030  11.440  16.710
 3481DOPG   C3B63635   9.760  11.090  16.650
 3481DOPG   C4B63636   9.760  10.650  16.710
 3482DOPG   GL063637  24.800  12.620   9.450
 3482DOPG   PO463638  24.950  12.170   9.500
 3482DOPG   GL163639  24.740  12.140   9.880
 3482DOPG   GL263640  24.410  11.970  10.100
 3482DOPG   C1A63641  24.770  12.300  10.360
 3482DOPG   D2A63642  24.440  12.580  10.530
 3482DOPG   C3A63643  24.660  12.930  10.420
 3482DOPG   C4A63644  24.670  13.390  10.360
 3482DOPG   C1B63645  24.100  12.150  10.430
 3482DOPG   D2B63646  23.910  12.540  10.590
 3482DOPG   C3B63647  23.560  12.590  10.680
 3482DOPG   C4B63648  23.160  12.470  10.880
 3483DOPG   GL063649  16.360  21.740  10.030
 3483DOPG   PO463650  16.600  21.370  10.090
 3483DOPG   GL163651  16.860  21.160  10.370
 3483DOPG   GL263652  16.770  20.820  10.450
 3483DOPG   C1A63653  17.170  20.990  10.660
 3483DOPG   D2A63654  17.550  20.740  10.760
 3483DOPG   C3A63655  17.770  20.940  11.190
 3483DOPG   C4A63656  17.920  21.180  11.560
 3483DOPG   C1B63657  16.620  20.430  10.610
 3483DOPG   D2B63658  16.440  20.140  10.860
 3483DOPG   C3B63659  16.610  19.820  11.180
 3483DOPG   C4B63660  16.690  19.400  11.350
 3484DOPG   GL063661  14.330   8.610  18.800
 3484DOPG   PO463662  14.640   8.550  19.090
 3484DOPG   GL163663  14.570   8.520  19.480
 3484DOPG   GL263664  14.310   8.410  19.590
 3484DOPG   C1A63665  14.500   8.730  19.880
 3484DOPG   D2A63666  14.710   8.970  20.330
 3484DOPG   C3A63667  14.840   8.740  20.630
 3484DOPG   C4A63668  14.910   8.340  20.710
 3484DOPG   C1B63669  14.210   8.240  19.960
 3484DOPG   D2B63670  13.940   8.240  20.370
 3484DOPG   C3B63671  13.730   7.950  20.470
 3484DOPG   C4B63672  13.500   7.640  20.750
 3485DOPG   GL063673  23.170  13.460  13.640
 3485DOPG   PO463674  23.730  13.480  13.700
 3485DOPG   GL163675  24.010  13.400  13.370
 3485DOPG   GL263676  24.070  13.080  13.310
 3485DOPG   C1A63677  24.380  13.510  13.160
 3485DOPG   D2A63678  24.890  13.450  13.080
 3485DOPG   C3A63679  25.210  13.640  13.070
 3485DOPG   C4A63680  25.490  13.880  13.190
 3485DOPG   C1B63681  24.530  12.990  13.280
 3485DOPG   D2B63682  24.950  12.960  13.130
 3485DOPG   C3B63683  25.150  13.240  13.510
 3485DOPG   C4B63684  25.000  13.260  13.890
 3486DOPG   GL063685  16.470  19.750  17.330
 3486DOPG   PO463686  16.740  20.100  17.340
 3486DOPG   GL163687  16.880  19.820  17.080
 3486DOPG   GL263688  17.220  19.690  17.300
 3486DOPG   C1A63689  16.850  19.580  16.710
 3486DOPG   D2A63690  16.830  19.150  16.520
 3486DOPG   C3A63691  16.560  19.040  16.130
 3486DOPG   C4A63692  16.420  18.870  15.780
 3486DOPG   C1B63693  17.330  19.710  16.880
 3486DOPG   D2B63694  17.280  19.920  16.560
 3486DOPG   C3B63695  17.200  20.340  16.320
 3486DOPG   C4B63696  17.170  20.820  16.200
 3487DOPG   GL063697  20.210  18.860  12.680
 3487DOPG   PO463698  20.340  18.830  13.090
 3487DOPG   GL163699  20.250  19.220  13.390
 3487DOPG   GL263700  20.050  19.430  13.320
 3487DOPG   C1A63701  20.450  19.650  13.160
 3487DOPG   D2A63702  20.730  19.950  13.420
 3487DOPG   C3A63703  20.880  20.350  13.490
 3487DOPG   C4A63704  21.110  20.570  13.760
 3487DOPG   C1B63705  20.270  19.750  13.660
 3487DOPG   D2B63706  20.470  20.210  13.790
 3487DOPG   C3B63707  20.020  20.340  14.010
 3487DOPG   C4B63708  19.660  20.440  13.870
 3488DOPG   GL063709  18.920  12.190  15.250
 3488DOPG   PO463710  18.630  12.140  14.800
 3488DOPG   GL163711  18.290  12.360  14.950
 3488DOPG   GL263712  18.100  12.050  15.000
 3488DOPG   C1A63713  18.060  12.370  15.310
 3488DOPG   D2A63714  17.690  12.150  15.450
 3488DOPG   C3A63715  17.380  12.230  15.030
 3488DOPG   C4A63716  17.160  11.960  14.820
 3488DOPG   C1B63717  17.740  11.820  15.000
 3488DOPG   D2B63718  17.380  11.400  14.950
 3488DOPG   C3B63719  17.580  11.080  14.690
 3488DOPG   C4B63720  17.610  10.710  14.450
 3489DOPG   GL063721  23.460  13.200  14.530
 3489DOPG   PO463722  23.860  13.040  14.590
 3489DOPG   GL163723  24.330  13.000  14.730
 3489DOPG   GL263724  24.280  13.210  14.840
 3489DOPG   C1A63725  24.730  13.150  15.020
 3489DOPG   D2A63726  25.010  13.530  14.970
 3489DOPG   C3A63727  25.240  13.240  15.150
 3489DOPG   C4A63728  25.490  13.160  15.480
 3489DOPG   C1B63729  24.210  13.070  15.260
 3489DOPG   D2B63730  24.300  12.850  15.640
 3489DOPG   C3B63731  24.690  12.550  15.590
 3489DOPG   C4B63732  25.020  12.380  15.920
 3490DOPG   GL063733  16.510  15.600  12.240
 3490DOPG   PO463734  16.310  15.480  11.930
 3490DOPG   GL163735  15.980  15.420  11.570
 3490DOPG   GL263736  15.790  15.230  11.700
 3490DOPG   C1A63737  15.900  15.570  11.110
 3490DOPG   D2A63738  16.060  15.880  10.820
 3490DOPG   C3A63739  16.240  16.370  10.990
 3490DOPG   C4A63740  16.580  16.420  11.080
 3490DOPG   C1B63741  15.340  15.360  11.650
 3490DOPG   D2B63742  14.990  15.490  11.450
 3490DOPG   C3B63743  14.520  15.510  11.610
 3490DOPG   C4B63744  14.150  15.290  11.700
 3491DOPG   GL063745  20.770  13.040  15.190
 3491DOPG   PO463746  20.350  13.190  15.460
 3491DOPG   GL163747  20.340  13.310  15.830
 3491DOPG   GL263748  19.970  13.470  15.890
 3491DOPG   C1A63749  20.200  13.230  16.260
 3491DOPG   D2A63750  19.790  13.150  16.550
 3491DOPG   C3A63751  19.240  13.270  16.570
 3491DOPG   C4A63752  19.090  13.730  16.580
 3491DOPG   C1B63753  19.880  13.580  16.210
 3491DOPG   D2B63754  19.630  13.590  16.610
 3491DOPG   C3B63755  19.530  13.400  16.980
 3491DOPG   C4B63756  19.530  13.130  17.380
 3492DOPG   GL063757  19.640  12.380  14.560
 3492DOPG   PO463758  19.550  11.960  14.620
 3492DOPG   GL163759  19.240  11.670  14.850
 3492DOPG   GL263760  18.930  11.730  15.030
 3492DOPG   C1A63761  19.300  11.310  15.210
 3492DOPG   D2A63762  19.210  10.990  15.550
 3492DOPG   C3A63763  18.900  10.750  15.550
 3492DOPG   C4A63764  18.650  10.400  15.520
 3492DOPG   C1B63765  18.640  11.640  15.400
 3492DOPG   D2B63766  18.430  11.520  15.820
 3492DOPG   C3B63767  18.440  11.740  16.210
 3492DOPG   C4B63768  18.620  11.660  16.560
 3493DOPG   GL063769  13.770  10.640   9.880
 3493DOPG   PO463770  13.510  10.200   9.960
 3493DOPG   GL163771  13.300  10.080   9.660
 3493DOPG   GL263772  13.150   9.810   9.740
 3493DOPG   C1A63773  12.890  10.090   9.490
 3493DOPG   D2A63774  12.780   9.840   9.190
 3493DOPG   C3A63775  12.450   9.900   9.050
 3493DOPG   C4A63776  12.170  10.300   9.100
 3493DOPG   C1B63777  13.270   9.820   9.280
 3493DOPG   D2B63778  13.150   9.580   8.920
 3493DOPG   C3B63779  12.730   9.520   8.680
 3493DOPG   C4B63780  12.310   9.470   8.930
 3494DOPG   GL063781  17.680   1.540  11.310
 3494DOPG   PO463782  18.040   1.750  11.500
 3494DOPG   GL163783  17.920   2.130  11.350
 3494DOPG   GL263784  17.680   2.080  11.170
 3494DOPG   C1A63785  18.190   2.560  11.390
 3494DOPG   D2A63786  18.410   2.870  11.200
 3494DOPG   C3A63787  18.180   3.210  11.140
 3494DOPG   C4A63788  18.050   3.400  10.700
 3494DOPG   C1B63789  17.630   2.390  10.840
 3494DOPG   D2B63790  17.470   2.700  10.480
 3494DOPG   C3B63791  17.270   3.040  10.750
 3494DOPG   C4B63792  17.680   3.310  11.130
 3495DOPG   GL063793  19.110  13.170  12.260
 3495DOPG   PO463794  18.970  13.560  11.880
 3495DOPG   GL163795  18.820  13.290  11.570
 3495DOPG   GL263796  18.430  13.230  11.590
 3495DOPG   C1A63797  18.910  13.190  11.110
 3495DOPG   D2A63798  19.180  13.110  10.780
 3495DOPG   C3A63799  19.470  12.810  10.670
 3495DOPG   C4A63800  19.460  12.540  10.300
 3495DOPG   C1B63801  18.450  12.840  11.280
 3495DOPG   D2B63802  18.650  12.630  10.840
 3495DOPG   C3B63803  18.510  12.680  10.440
 3495DOPG   C4B63804  18.470  12.550  10.020
 3496DOPG   GL063805  21.700  13.620  15.430
 3496DOPG   PO463806  21.790  13.220  15.370
 3496DOPG   GL163807  21.730  13.020  15.710
 3496DOPG   GL263808  21.660  13.390  15.920
 3496DOPG   C1A63809  21.810  12.900  16.180
 3496DOPG   D2A63810  22.000  12.940  16.630
 3496DOPG   C3A63811  22.160  13.170  16.920
 3496DOPG   C4A63812  22.180  12.960  17.400
 3496DOPG   C1B63813  21.720  13.340  16.380
 3496DOPG   D2B63814  21.860  13.600  16.700
 3496DOPG   C3B63815  21.550  13.580  17.090
 3496DOPG   C4B63816  21.250  13.810  17.230
 3497DOPG   GL063817  18.210  19.990  17.330
 3497DOPG   PO463818  18.620  20.210  17.530
 3497DOPG   GL163819  18.830  20.280  17.110
 3497DOPG   GL263820  18.540  20.280  16.910
 3497DOPG   C1A63821  18.990  20.170  16.700
 3497DOPG   D2A63822  19.080  19.820  16.460
 3497DOPG   C3A63823  19.420  19.820  16.220
 3497DOPG   C4A63824  19.490  19.560  15.860
 3497DOPG   C1B63825  18.320  20.300  16.540
 3497DOPG   D2B63826  18.450  20.460  16.180
 3497DOPG   C3B63827  18.320  20.410  15.800
 3497DOPG   C4B63828  17.900  20.530  15.700
 3498DOPG   GL063829  15.610   6.250  13.430
 3498DOPG   PO463830  15.420   5.850  13.190
 3498DOPG   GL163831  15.310   5.550  13.180
 3498DOPG   GL263832  15.560   5.310  13.370
 3498DOPG   C1A63833  15.050   5.090  12.960
 3498DOPG   D2A63834  14.860   4.710  12.760
 3498DOPG   C3A63835  14.850   4.440  12.400
 3498DOPG   C4A63836  15.120   4.070  12.130
 3498DOPG   C1B63837  15.310   4.860  13.380
 3498DOPG   D2B63838  14.840   4.760  13.330
 3498DOPG   C3B63839  14.780   4.240  13.270
 3498DOPG   C4B63840  14.820   3.900  13.440
 3499DOPG   GL063841  19.890  17.120  11.650
 3499DOPG   PO463842  19.550  17.190  11.450
 3499DOPG   GL163843  19.460  17.000  11.040
 3499DOPG   GL263844  19.490  16.640  11.050
 3499DOPG   C1A63845  19.400  17.080  10.610
 3499DOPG   D2A63846  19.350  17.030  10.230
 3499DOPG   C3A63847  19.580  16.930   9.970
 3499DOPG   C4A63848  19.930  16.780   9.790
 3499DOPG   C1B63849  19.490  16.590  10.580
 3499DOPG   D2B63850  19.680  16.520  10.270
 3499DOPG   C3B63851  19.970  16.240  10.110
 3499DOPG   C4B63852  20.290  16.000   9.880
 3500DOPG   GL063853  11.640  17.480  12.480
 3500DOPG   PO463854  11.830  16.980  12.340
 3500DOPG   GL163855  12.170  16.900  12.530
 3500DOPG   GL263856  12.430  16.730  12.450
 3500DOPG   C1A63857  12.510  17.170  12.740
 3500DOPG   D2A63858  12.660  17.570  12.930
 3500DOPG   C3A63859  12.750  18.020  12.950
 3500DOPG   C4A63860  13.080  18.310  13.010
 3500DOPG   C1B63861  12.840  16.580  12.430
 3500DOPG   D2B63862  13.320  16.670  12.510
 3500DOPG   C3B63863  13.280  17.050  12.740
 3500DOPG   C4B63864  13.110  17.500  12.690
 3501DOPG   GL063865  18.240  11.780  18.660
 3501DOPG   PO463866  18.430  11.940  18.370
 3501DOPG   GL163867  18.720  12.130  18.040
 3501DOPG   GL263868  18.740  12.460  18.150
 3501DOPG   C1A63869  19.140  12.240  17.790
 3501DOPG   D2A63870  19.440  12.210  17.420
 3501DOPG   C3A63871  19.330  12.280  17.000
 3501DOPG   C4A63872  19.150  12.440  16.620
 3501DOPG   C1B63873  18.620  12.590  17.730
 3501DOPG   D2B63874  18.210  12.590  17.610
 3501DOPG   C3B63875  18.220  12.650  17.190
 3501DOPG   C4B63876  18.390  12.620  16.870
 3502DOPG   GL063877  23.100  13.870  12.860
 3502DOPG   PO463878  22.720  13.690  12.730
 3502DOPG   GL163879  23.020  13.620  12.330
 3502DOPG   GL263880  23.220  13.980  12.260
 3502DOPG   C1A63881  23.020  13.360  11.790
 3502DOPG   D2A63882  23.320  13.090  11.620
 3502DOPG   C3A63883  23.680  12.750  11.680
 3502DOPG   C4A63884  24.010  12.360  11.930
 3502DOPG   C1B63885  23.510  13.690  12.160
 3502DOPG   D2B63886  23.950  13.410  12.260
 3502DOPG   C3B63887  24.250  13.350  11.920
 3502DOPG   C4B63888  24.510  13.060  11.540
 3503DOPG   GL063889  20.190   9.420  20.710
 3503DOPG   PO463890  20.690   9.350  20.620
 3503DOPG   GL163891  20.790   9.410  20.970
 3503DOPG   GL263892  21.110   9.390  21.160
 3503DOPG   C1A63893  20.630   9.400  21.350
 3503DOPG   D2A63894  20.620   9.210  21.750
 3503DOPG   C3A63895  20.340   8.980  21.970
 3503DOPG   C4A63896  20.110   8.630  21.940
 3503DOPG   C1B63897  21.060   9.540  21.550
 3503DOPG   D2B63898  21.020   9.410  21.990
 3503DOPG   C3B63899  20.700   9.460  22.260
 3503DOPG   C4B63900  20.440   9.490  22.540
 3504DOPG   GL063901  17.510  14.240  12.860
 3504DOPG   PO463902  17.110  14.110  12.670
 3504DOPG   GL163903  16.990  13.920  12.180
 3504DOPG   GL263904  17.200  13.720  11.900
 3504DOPG   C1A63905  16.680  13.740  11.920
 3504DOPG   D2A63906  16.510  13.470  11.530
 3504DOPG   C3A63907  16.050  13.310  11.580
 3504DOPG   C4A63908  15.680  13.420  11.330
 3504DOPG   C1B63909  17.020  13.670  11.550
 3504DOPG   D2B63910  16.740  13.740  11.160
 3504DOPG   C3B63911  16.940  13.800  10.790
 3504DOPG   C4B63912  17.320  13.490  10.510
 3505DOPG   GL063913  19.400   9.430   8.830
 3505DOPG   PO463914  18.960   9.520   8.680
 3505DOPG   GL163915  18.850   9.400   8.270
 3505DOPG   GL263916  18.830   9.760   8.040
 3505DOPG   C1A63917  19.050   9.200   7.880
 3505DOPG   D2A63918  19.000   8.950   7.500
 3505DOPG   C3A63919  18.760   8.970   7.150
 3505DOPG   C4A63920  18.610   9.010   6.820
 3505DOPG   C1B63921  18.840   9.590   7.620
 3505DOPG   D2B63922  18.730   9.670   7.210
 3505DOPG   C3B63923  18.920   9.460   6.960
 3505DOPG   C4B63924  19.110   9.130   6.860
 3506DOPG   GL063925  21.570  12.910  15.090
 3506DOPG   PO463926  21.390  12.870  15.400
 3506DOPG   GL163927  21.050  13.020  15.640
 3506DOPG   GL263928  21.090  13.370  15.690
 3506DOPG   C1A63929  20.860  13.070  16.000
 3506DOPG   D2A63930  20.890  13.240  16.440
 3506DOPG   C3A63931  20.630  13.060  16.710
 3506DOPG   C4A63932  20.190  12.960  16.810
 3506DOPG   C1B63933  21.190  13.510  16.140
 3506DOPG   D2B63934  21.350  13.620  16.610
 3506DOPG   C3B63935  21.090  13.350  16.880
 3506DOPG   C4B63936  20.730  13.520  17.070
 3507DOPG   GL063937  11.800  18.410  10.810
 3507DOPG   PO463938  11.760  18.810  11.000
 3507DOPG   GL163939  11.300  18.780  11.020
 3507DOPG   GL263940  11.110  18.470  10.950
 3507DOPG   C1A63941  10.880  18.970  10.940
 3507DOPG   D2A63942  10.550  18.930  10.770
 3507DOPG   C3A63943  10.410  19.120  10.330
 3507DOPG   C4A63944  10.280  19.420  10.060
 3507DOPG   C1B63945  10.780  18.520  10.600
 3507DOPG   D2B63946  10.350  18.530  10.270
 3507DOPG   C3B63947   9.950  18.700  10.240
 3507DOPG   C4B63948   9.590  18.900  10.120
 3508DOPG   GL063949  12.540  19.220  11.160
 3508DOPG   PO463950  12.140  19.120  11.360
 3508DOPG   GL163951  11.740  19.410  11.240
 3508DOPG   GL263952  11.420  19.230  11.220
 3508DOPG   C1A63953  11.540  19.750  11.150
 3508DOPG   D2A63954  11.240  20.020  10.920
 3508DOPG   C3A63955  10.760  19.920  10.740
 3508DOPG   C4A63956  10.420  19.880  10.940
 3508DOPG   C1B63957  11.240  19.280  10.830
 3508DOPG   D2B63958  10.930  19.300  10.580
 3508DOPG   C3B63959  10.510  19.570  10.550
 3508DOPG   C4B63960  10.390  19.850  10.260
 3509DOPG   GL063961  21.070  19.690  17.290
 3509DOPG   PO463962  20.890  19.310  17.450
 3509DOPG   GL163963  20.850  18.920  17.440
 3509DOPG   GL263964  21.190  18.850  17.270
 3509DOPG   C1A63965  20.420  18.690  17.240
 3509DOPG   D2A63966  19.980  18.460  17.190
 3509DOPG   C3A63967  19.840  18.230  16.950
 3509DOPG   C4A63968  19.980  18.250  16.550
 3509DOPG   C1B63969  20.810  18.860  16.980
 3509DOPG   D2B63970  20.440  18.860  16.760
 3509DOPG   C3B63971  20.210  19.170  16.870
 3509DOPG   C4B63972  19.960  19.380  16.790
 3510DOPG   GL063973  14.230  21.730  21.820
 3510DOPG   PO463974  14.230  21.510  21.360
 3510DOPG   GL163975  14.600  21.620  21.290
 3510DOPG   GL263976  14.790  21.260  21.400
 3510DOPG   C1A63977  14.910  21.500  20.990
 3510DOPG   D2A63978  14.610  21.340  20.690
 3510DOPG   C3A63979  14.770  21.320  20.370
 3510DOPG   C4A63980  15.010  21.550  20.060
 3510DOPG   C1B63981  15.270  21.250  21.290
 3510DOPG   D2B63982  15.380  21.110  20.830
 3510DOPG   C3B63983  15.260  21.180  20.310
 3510DOPG   C4B63984  15.440  21.160  20.020
 3511DOPG   GL063985  20.560   9.080   9.460
 3511DOPG   PO463986  20.340   8.700   9.620
 3511DOPG   GL163987  20.470   8.800   9.990
 3511DOPG   GL263988  20.340   8.580  10.180
 3511DOPG   C1A63989  20.530   9.130  10.280
 3511DOPG   D2A63990  20.630   9.510  10.640
 3511DOPG   C3A63991  20.880   9.530  10.850
 3511DOPG   C4A63992  20.920   9.460  11.350
 3511DOPG   C1B63993  20.040   8.920  10.320
 3511DOPG   D2B63994  20.050   9.320  10.240
 3511DOPG   C3B63995  19.800   9.580  10.050
 3511DOPG   C4B63996  19.630   9.970  10.270
 3512DOPG   GL063997  21.210  11.870  12.160
 3512DOPG   PO463998  21.320  11.370  12.420
 3512DOPG   GL163999  21.480  11.190  11.940
 3512DOPG   GL264000  21.670  11.090  12.100
 3512DOPG   C1A64001  21.210  11.000  11.660
 3512DOPG   D2A64002  21.120  10.680  11.380
 3512DOPG   C3A64003  20.790  10.370  11.460
 3512DOPG   C4A64004  20.920   9.900  11.580
 3512DOPG   C1B64005  21.590  10.710  11.810
 3512DOPG   D2B64006  21.310  10.370  11.750
 3512DOPG   C3B64007  21.430   9.940  11.710
 3512DOPG   C4B64008  21.450   9.600  11.450
 3513DOPG   GL064009  27.000   9.250  17.660
 3513DOPG   PO464010  27.130   9.620  17.540
 3513DOPG   GL164011  27.470   9.700  17.810
 3513DOPG   GL264012  27.540   9.840  18.060
 3513DOPG   C1A64013  27.740   9.420  18.040
 3513DOPG   D2A64014  28.190   9.280  18.160
 3513DOPG   C3A64015  28.350   9.310  18.540
 3513DOPG   C4A64016  28.690   9.380  18.860
 3513DOPG   C1B64017  27.930   9.730  18.350
 3513DOPG   D2B64018  28.290   9.780  18.610
 3513DOPG   C3B64019  28.470  10.130  18.840
 3513DOPG   C4B64020  28.290  10.490  18.770
 3514DOPG   GL064021  13.110  12.010  11.950
 3514DOPG   PO464022  13.410  11.750  12.340
 3514DOPG   GL164023  13.600  12.040  12.310
 3514DOPG   GL264024  13.600  12.190  12.620
 3514DOPG   C1A64025  14.030  12.070  12.510
 3514DOPG   D2A64026  14.310  12.170  12.950
 3514DOPG   C3A64027  14.380  12.640  13.030
 3514DOPG   C4A64028  14.710  12.800  12.910
 3514DOPG   C1B64029  13.890  12.450  12.830
 3514DOPG   D2B64030  13.880  12.670  13.140
 3514DOPG   C3B64031  13.840  13.070  13.100
 3514DOPG   C4B64032  13.590  13.430  12.890
 3515DOPG   GL064033  19.760  10.620  13.620
 3515DOPG   PO464034  19.830  10.210  13.350
 3515DOPG   GL164035  19.830   9.840  13.010
 3515DOPG   GL264036  19.980   9.600  13.120
 3515DOPG   C1A64037  19.600   9.530  12.630
 3515DOPG   D2A64038  19.680   9.670  12.230
 3515DOPG   C3A64039  19.490   9.570  11.930
 3515DOPG   C4A64040  19.100   9.380  11.760
 3515DOPG   C1B64041  19.590   9.420  13.150
 3515DOPG   D2B64042  19.170   9.330  13.320
 3515DOPG   C3B64043  18.900   9.450  13.680
 3515DOPG   C4B64044  18.680   9.430  14.100
 3516DOPG   GL064045  17.920   9.220   8.720
 3516DOPG   PO464046  17.480   9.210   8.780
 3516DOPG   GL164047  17.300   8.890   8.460
 3516DOPG   GL264048  17.140   8.720   8.620
 3516DOPG   C1A64049  17.080   8.660   8.110
 3516DOPG   D2A64050  17.160   8.370   7.870
 3516DOPG   C3A64051  16.870   8.010   7.730
 3516DOPG   C4A64052  16.950   7.610   7.450
 3516DOPG   C1B64053  16.940   8.390   8.510
 3516DOPG   D2B64054  16.780   8.240   8.140
 3516DOPG   C3B64055  16.440   7.900   8.110
 3516DOPG   C4B64056  16.370   7.480   8.230
 3517DOPG   GL064057  12.000   3.510  14.350
 3517DOPG   PO464058  12.250   3.150  14.540
 3517DOPG   GL164059  12.570   3.410  14.420
 3517DOPG   GL264060  12.460   3.650  14.660
 3517DOPG   C1A64061  13.060   3.350  14.280
 3517DOPG   D2A64062  13.450   3.200  14.040
 3517DOPG   C3A64063  13.870   3.220  14.190
 3517DOPG   C4A64064  14.320   3.230  14.410
 3517DOPG   C1B64065  12.410   3.990  14.420
 3517DOPG   D2B64066  12.360   4.470  14.640
 3517DOPG   C3B64067  12.620   4.720  14.350
 3517DOPG   C4B64068  12.780   5.220  14.260
 3518DOPG   GL064069  13.770   8.870  11.250
 3518DOPG   PO464070  13.370   8.750  11.150
 3518DOPG   GL164071  13.010   8.770  10.870
 3518DOPG   GL264072  12.790   8.940  11.030
 3518DOPG   C1A64073  12.800   8.450  10.570
 3518DOPG   D2A64074  12.560   8.200  10.370
 3518DOPG   C3A64075  12.750   7.820  10.150
 3518DOPG   C4A64076  12.730   7.590   9.730
 3518DOPG   C1B64077  12.430   8.710  10.810
 3518DOPG   D2B64078  12.160   8.640  10.460
 3518DOPG   C3B64079  12.100   8.330  10.280
 3518DOPG   C4B64080  12.090   7.980  10.100
 3519DOPG   GL064081  20.060  18.610  12.280
 3519DOPG   PO464082  20.170  18.250  12.000
 3519DOPG   GL164083  20.360  18.190  11.650
 3519DOPG   GL264084  20.210  18.000  11.490
 3519DOPG   C1A64085  20.680  18.390  11.490
 3519DOPG   D2A64086  20.640  18.940  11.470
 3519DOPG   C3A64087  21.090  19.110  11.310
 3519DOPG   C4A64088  21.160  19.220  10.960
 3519DOPG   C1B64089  20.340  18.320  11.140
 3519DOPG   D2B64090  20.560  18.670  11.020
 3519DOPG   C3B64091  20.530  19.140  11.000
 3519DOPG   C4B64092  20.670  19.460  11.250
 3520DOPG   GL064093  16.880  18.340  13.680
 3520DOPG   PO464094  16.420  18.430  13.740
 3520DOPG   GL164095  16.190  18.780  13.610
 3520DOPG   GL264096  16.050  18.920  13.280
 3520DOPG   C1A64097  16.010  19.180  13.670
 3520DOPG   D2A64098  16.200  19.290  13.960
 3520DOPG   C3A64099  16.010  19.480  14.210
 3520DOPG   C4A64100  15.710  19.350  14.460
 3520DOPG   C1B64101  15.990  19.260  12.990
 3520DOPG   D2B64102  15.910  19.600  12.730
 3520DOPG   C3B64103  16.270  19.880  12.850
 3520DOPG   C4B64104  16.410  20.070  13.270
 3521DOPG   GL064105  19.010  20.480  17.770
 3521DOPG   PO464106  19.420  20.460  17.690
 3521DOPG   GL164107  19.580  20.110  17.450
 3521DOPG   GL264108  19.360  20.340  17.210
 3521DOPG   C1A64109  19.770  19.790  17.080
 3521DOPG   D2A64110  19.990  19.880  16.680
 3521DOPG   C3A64111  19.980  19.630  16.290
 3521DOPG   C4A64112  19.870  19.170  16.270
 3521DOPG   C1B64113  19.270  19.950  17.100
 3521DOPG   D2B64114  19.090  19.530  17.100
 3521DOPG   C3B64115  18.880  19.460  16.770
 3521DOPG   C4B64116  18.760  19.450  16.300
 3522DOPG   GL064117  14.870  20.730  16.180
 3522DOPG   PO464118  14.790  20.300  16.350
 3522DOPG   GL164119  15.180  20.200  16.110
 3522DOPG   GL264120  15.430  20.410  16.000
 3522DOPG   C1A64121  15.400  19.780  15.910
 3522DOPG   D2A64122  15.670  19.460  15.910
 3522DOPG   C3A64123  15.800  19.380  16.360
 3522DOPG   C4A64124  15.880  19.450  16.800
 3522DOPG   C1B64125  15.550  20.140  15.600
 3522DOPG   D2B64126  15.370  19.870  15.190
 3522DOPG   C3B64127  15.700  19.460  15.010
 3522DOPG   C4B64128  15.930  19.130  15.080
 3523DOPG   GL064129  28.290  16.370   5.610
 3523DOPG   PO464130  28.760  16.520   5.810
 3523DOPG   GL164131  28.500  16.390   6.150
 3523DOPG   GL264132  28.560  16.180   6.410
 3523DOPG   C1A64133  28.200  16.500   6.440
 3523DOPG   D2A64134  27.830  16.350   6.510
 3523DOPG   C3A64135  27.580  16.440   6.860
 3523DOPG   C4A64136  27.310  16.620   7.070
 3523DOPG   C1B64137  28.440  16.200   6.810
 3523DOPG   D2B64138  28.180  16.410   7.070
 3523DOPG   C3B64139  28.160  16.770   6.880
 3523DOPG   C4B64140  27.970  16.930   6.590
 3524DOPG   GL064141  18.990  15.460  14.850
 3524DOPG   PO464142  18.840  15.590  15.270
 3524DOPG   GL164143  19.060  15.300  15.640
 3524DOPG   GL264144  19.420  15.440  15.700
 3524DOPG   C1A64145  19.100  15.110  16.080
 3524DOPG   D2A64146  19.280  15.210  16.430
 3524DOPG   C3A64147  19.070  15.440  16.640
 3524DOPG   C4A64148  18.860  15.390  16.970
 3524DOPG   C1B64149  19.660  15.270  16.100
 3524DOPG   D2B64150  19.900  15.100  16.440
 3524DOPG   C3B64151  20.250  15.030  16.330
 3524DOPG   C4B64152  20.520  14.770  16.260
 3525DOPG   GL064153  13.590   8.460  11.870
 3525DOPG   PO464154  13.440   8.160  12.240
 3525DOPG   GL164155  13.060   8.040  12.300
 3525DOPG   GL264156  13.030   7.830  12.510
 3525DOPG   C1A64157  12.650   7.840  12.220
 3525DOPG   D2A64158  12.320   7.730  12.470
 3525DOPG   C3A64159  12.080   7.550  12.640
 3525DOPG   C4A64160  11.700   7.440  12.820
 3525DOPG   C1B64161  12.920   7.390  12.330
 3525DOPG   D2B64162  12.990   7.260  11.850
 3525DOPG   C3B64163  13.390   7.180  11.740
 3525DOPG   C4B64164  13.200   6.820  11.810
 3526DOPG   GL064165  10.590  19.960  20.920
 3526DOPG   PO464166  10.990  19.840  20.680
 3526DOPG   GL164167  11.310  19.700  20.390
 3526DOPG   GL264168  11.560  19.990  20.400
 3526DOPG   C1A64169  11.460  19.530  19.970
 3526DOPG   D2A64170  11.550  19.380  19.570
 3526DOPG   C3A64171  11.680  19.450  19.170
 3526DOPG   C4A64172  11.680  19.510  18.760
 3526DOPG   C1B64173  11.780  19.920  20.060
 3526DOPG   D2B64174  12.010  19.990  19.630
 3526DOPG   C3B64175  12.050  19.680  19.390
 3526DOPG   C4B64176  12.440  19.450  19.530
 3527DOPG   GL064177  21.380  26.420   8.150
 3527DOPG   PO464178  21.100  26.370   8.550
 3527DOPG   GL164179  21.000  25.950   8.490
 3527DOPG   GL264180  21.140  25.840   8.140
 3527DOPG   C1A64181  20.940  25.440   8.670
 3527DOPG   D2A64182  20.950  25.020   8.820
 3527DOPG   C3A64183  21.150  24.950   9.180
 3527DOPG   C4A64184  21.400  24.580   9.330
 3527DOPG   C1B64185  21.380  25.560   8.470
 3527DOPG   D2B64186  21.400  25.140   8.520
 3527DOPG   C3B64187  21.130  24.880   8.330
 3527DOPG   C4B64188  20.810  24.720   8.420
 3528DOPG   GL064189  16.860  22.110   3.950
 3528DOPG   PO464190  17.180  21.850   4.100
 3528DOPG   GL164191  17.460  21.830   4.380
 3528DOPG   GL264192  17.400  21.770   4.780
 3528DOPG   C1A64193  17.920  21.720   4.600
 3528DOPG   D2A64194  18.250  21.320   4.490
 3528DOPG   C3A64195  18.530  21.160   4.730
 3528DOPG   C4A64196  18.760  21.200   5.070
 3528DOPG   C1B64197  17.350  21.770   5.330
 3528DOPG   D2B64198  17.290  21.480   5.590
 3528DOPG   C3B64199  17.560  21.330   5.830
 3528DOPG   C4B64200  17.890  21.100   5.750
 3529DOPG   GL064201  21.350  17.890  13.910
 3529DOPG   PO464202  21.740  17.790  14.250
 3529DOPG   GL164203  22.030  17.860  14.600
 3529DOPG   GL264204  22.290  17.670  14.890
 3529DOPG   C1A64205  22.340  18.180  14.930
 3529DOPG   D2A64206  22.700  18.340  15.170
 3529DOPG   C3A64207  22.540  18.840  15.170
 3529DOPG   C4A64208  22.160  19.070  15.180
 3529DOPG   C1B64209  22.030  17.870  15.210
 3529DOPG   D2B64210  22.100  18.050  15.560
 3529DOPG   C3B64211  21.840  18.390  15.860
 3529DOPG   C4B64212  21.500  18.490  16.110
 3530DOPG   GL064213  15.970  16.050  14.220
 3530DOPG   PO464214  15.850  15.630  14.220
 3530DOPG   GL164215  15.530  15.930  14.310
 3530DOPG   GL264216  15.630  16.270  14.510
 3530DOPG   C1A64217  15.180  15.960  14.230
 3530DOPG   D2A64218  14.870  15.740  14.260
 3530DOPG   C3A64219  14.750  15.250  14.190
 3530DOPG   C4A64220  14.420  14.930  14.440
 3530DOPG   C1B64221  15.340  16.080  14.750
 3530DOPG   D2B64222  14.940  15.880  14.910
 3530DOPG   C3B64223  14.780  15.660  15.230
 3530DOPG   C4B64224  14.570  15.270  15.300
 3531DOPG   GL064225  23.480  13.610  13.160
 3531DOPG   PO464226  23.680  13.930  13.430
 3531DOPG   GL164227  23.930  13.830  13.090
 3531DOPG   GL264228  24.000  13.610  12.880
 3531DOPG   C1A64229  23.990  14.220  12.910
 3531DOPG   D2A64230  24.410  14.320  12.840
 3531DOPG   C3A64231  24.690  14.230  12.500
 3531DOPG   C4A64232  25.020  14.000  12.230
 3531DOPG   C1B64233  24.080  13.820  12.470
 3531DOPG   D2B64234  24.360  14.090  12.050
 3531DOPG   C3B64235  24.690  13.890  11.840
 3531DOPG   C4B64236  24.820  13.510  11.650
 3532DOPG   GL064237  18.030  12.450  13.750
 3532DOPG   PO464238  17.980  12.720  14.090
 3532DOPG   GL164239  17.630  12.400  14.170
 3532DOPG   GL264240  17.520  12.310  13.890
 3532DOPG   C1A64241  17.290  12.220  14.350
 3532DOPG   D2A64242  16.920  11.990  14.290
 3532DOPG   C3A64243  16.920  11.580  14.590
 3532DOPG   C4A64244  16.690  11.330  14.800
 3532DOPG   C1B64245  17.300  11.980  13.890
 3532DOPG   D2B64246  17.240  11.610  14.020
 3532DOPG   C3B64247  16.750  11.540  14.120
 3532DOPG   C4B64248  16.420  11.860  14.240
 3533DOPG   GL064249  23.400  19.020   9.500
 3533DOPG   PO464250  22.970  19.070   9.350
 3533DOPG   GL164251  22.650  18.960   9.710
 3533DOPG   GL264252  22.380  18.980   9.510
 3533DOPG   C1A64253  22.660  18.720  10.130
 3533DOPG   D2A64254  22.270  18.590  10.340
 3533DOPG   C3A64255  21.940  18.900  10.460
 3533DOPG   C4A64256  21.560  18.880  10.840
 3533DOPG   C1B64257  22.160  19.120   9.890
 3533DOPG   D2B64258  21.830  19.020   9.940
 3533DOPG   C3B64259  21.820  19.370  10.230
 3533DOPG   C4B64260  21.640  19.840  10.400
 3534DOPG   GL064261  32.440  16.930  12.110
 3534DOPG   PO464262  32.250  16.820  12.560
 3534DOPG   GL164263  31.820  16.880  12.830
 3534DOPG   GL264264  31.820  17.030  13.080
 3534DOPG   C1A64265  31.500  16.780  12.640
 3534DOPG   D2A64266  31.130  16.500  12.690
 3534DOPG   C3A64267  30.840  16.490  12.970
 3534DOPG   C4A64268  30.360  16.540  13.100
 3534DOPG   C1B64269  31.470  16.950  13.210
 3534DOPG   D2B64270  31.250  16.610  13.170
 3534DOPG   C3B64271  30.990  16.360  13.410
 3534DOPG   C4B64272  30.600  16.570  13.580
 3535DOPG   GL064273  15.160  10.690   9.100
 3535DOPG   PO464274  14.830  10.480   8.860
 3535DOPG   GL164275  14.850  10.260   8.460
 3535DOPG   GL264276  14.680  10.440   8.260
 3535DOPG   C1A64277  14.940  10.100   7.990
 3535DOPG   D2A64278  15.080  10.000   7.520
 3535DOPG   C3A64279  14.960   9.820   7.080
 3535DOPG   C4A64280  15.020   9.910   6.720
 3535DOPG   C1B64281  14.440   9.960   8.230
 3535DOPG   D2B64282  13.960   9.920   8.420
 3535DOPG   C3B64283  13.710   9.600   8.240
 3535DOPG   C4B64284  13.300   9.360   8.370
 3536DOPG   GL064285  25.700  18.380   8.580
 3536DOPG   PO464286  25.260  18.450   8.330
 3536DOPG   GL164287  25.590  18.660   8.110
 3536DOPG   GL264288  25.310  18.740   7.840
 3536DOPG   C1A64289  25.830  18.880   8.340
 3536DOPG   D2A64290  25.950  18.860   8.740
 3536DOPG   C3A64291  26.250  18.670   8.840
 3536DOPG   C4A64292  26.720  18.610   8.820
 3536DOPG   C1B64293  25.800  18.950   7.810
 3536DOPG   D2B64294  26.200  19.010   8.030
 3536DOPG   C3B64295  26.260  18.720   8.320
 3536DOPG   C4B64296  26.200  18.410   8.430
 3537DOPG   GL064297  25.460  11.320  10.380
 3537DOPG   PO464298  25.670  10.960  10.550
 3537DOPG   GL164299  25.220  10.830  10.730
 3537DOPG   GL264300  25.160  11.130  10.750
 3537DOPG   C1A64301  24.790  10.930  11.060
 3537DOPG   D2A64302  24.460  11.060  11.430
 3537DOPG   C3A64303  24.130  10.880  11.250
 3537DOPG   C4A64304  23.680  10.950  11.280
 3537DOPG   C1B64305  24.760  11.440  10.830
 3537DOPG   D2B64306  24.560  11.730  11.090
 3537DOPG   C3B64307  24.240  11.660  11.390
 3537DOPG   C4B64308  24.120  11.770  11.740
 3538DOPG   GL064309  21.370  12.160  12.920
 3538DOPG   PO464310  21.460  12.370  12.540
 3538DOPG   GL164311  21.430  12.280  12.090
 3538DOPG   GL264312  21.220  12.480  11.820
 3538DOPG   C1A64313  21.680  12.130  11.780
 3538DOPG   D2A64314  22.150  12.090  11.610
 3538DOPG   C3A64315  22.270  12.220  11.230
 3538DOPG   C4A64316  22.460  12.570  11.010
 3538DOPG   C1B64317  21.240  12.230  11.530
 3538DOPG   D2B64318  21.230  11.850  11.380
 3538DOPG   C3B64319  21.340  11.420  11.290
 3538DOPG   C4B64320  21.650  11.140  11.520
 3539DOPG   GL064321  23.120  20.040  10.350
 3539DOPG   PO464322  23.340  20.110  10.680
 3539DOPG   GL164323  23.250  19.920  11.120
 3539DOPG   GL264324  23.560  19.920  11.430
 3539DOPG   C1A64325  23.070  19.470  11.370
 3539DOPG   D2A64326  22.690  19.150  11.540
 3539DOPG   C3A64327  22.400  19.330  11.520
 3539DOPG   C4A64328  22.200  19.520  11.150
 3539DOPG   C1B64329  23.100  19.950  11.570
 3539DOPG   D2B64330  22.730  20.200  11.300
 3539DOPG   C3B64331  22.430  20.430  11.510
 3539DOPG   C4B64332  22.010  20.360  11.480
 3540DOPG   GL064333  13.320  21.340  13.550
 3540DOPG   PO464334  13.010  21.560  13.540
 3540DOPG   GL164335  12.790  21.820  13.330
 3540DOPG   GL264336  12.890  22.130  13.020
 3540DOPG   C1A64337  12.420  22.170  13.330
 3540DOPG   D2A64338  12.030  22.330  13.250
 3540DOPG   C3A64339  11.630  22.090  13.170
 3540DOPG   C4A64340  11.370  21.730  13.100
 3540DOPG   C1B64341  12.750  22.460  12.820
 3540DOPG   D2B64342  12.480  22.510  12.470
 3540DOPG   C3B64343  12.100  22.440  12.410
 3540DOPG   C4B64344  11.750  22.620  12.160
 3541DOPG   GL064345  21.200   5.640  11.140
 3541DOPG   PO464346  21.330   5.650  11.600
 3541DOPG   GL164347  21.400   5.280  11.510
 3541DOPG   GL264348  21.390   5.030  11.820
 3541DOPG   C1A64349  21.720   5.090  11.230
 3541DOPG   D2A64350  21.870   4.720  11.010
 3541DOPG   C3A64351  21.710   4.400  11.160
 3541DOPG   C4A64352  21.480   4.370  11.520
 3541DOPG   C1B64353  21.330   4.820  11.340
 3541DOPG   D2B64354  21.260   4.510  11.080
 3541DOPG   C3B64355  21.380   4.090  10.880
 3541DOPG   C4B64356  20.990   3.810  10.950
 3542DOPG   GL064357  22.740  27.440  12.830
 3542DOPG   PO464358  22.890  27.340  13.210
 3542DOPG   GL164359  22.650  27.020  13.140
 3542DOPG   GL264360  22.710  26.810  13.400
 3542DOPG   C1A64361  22.380  26.610  13.070
 3542DOPG   D2A64362  22.240  26.370  12.680
 3542DOPG   C3A64363  22.090  25.970  12.670
 3542DOPG   C4A64364  21.910  25.640  12.610
 3542DOPG   C1B64365  22.580  26.440  13.470
 3542DOPG   D2B64366  22.750  26.070  13.410
 3542DOPG   C3B64367  22.590  25.700  13.370
 3542DOPG   C4B64368  22.610  25.280  13.580
 3543DOPG   GL064369  15.590  18.100   7.810
 3543DOPG   PO464370  15.230  17.900   7.870
 3543DOPG   GL164371  15.020  18.100   7.610
 3543DOPG   GL264372  15.340  18.230   7.380
 3543DOPG   C1A64373  14.890  18.390   7.220
 3543DOPG   D2A64374  14.710  18.810   7.150
 3543DOPG   C3A64375  14.830  18.950   6.720
 3543DOPG   C4A64376  14.750  18.950   6.270
 3543DOPG   C1B64377  15.460  18.190   6.850
 3543DOPG   D2B64378  15.300  18.140   6.480
 3543DOPG   C3B64379  15.430  17.890   6.140
 3543DOPG   C4B64380  15.250  17.800   5.720
 3544DOPG   GL064381  21.010  18.470   8.660
 3544DOPG   PO464382  21.070  18.040   8.510
 3544DOPG   GL164383  21.240  18.000   8.880
 3544DOPG   GL264384  21.630  17.950   8.830
 3544DOPG   C1A64385  21.020  18.000   9.180
 3544DOPG   D2A64386  20.660  17.770   9.500
 3544DOPG   C3A64387  20.560  17.920   9.850
 3544DOPG   C4A64388  20.770  17.900  10.300
 3544DOPG   C1B64389  21.890  17.940   9.130
 3544DOPG   D2B64390  21.860  18.320   9.200
 3544DOPG   C3B64391  21.530  18.450   9.440
 3544DOPG   C4B64392  21.140  18.560   9.260
 3545DOPG   GL064393  22.130  15.410  14.940
 3545DOPG   PO464394  22.250  15.220  15.360
 3545DOPG   GL164395  22.500  15.310  15.720
 3545DOPG   GL264396  22.630  15.160  15.700
 3545DOPG   C1A64397  22.320  15.450  16.110
 3545DOPG   D2A64398  22.320  15.660  16.470
 3545DOPG   C3A64399  22.280  16.050  16.550
 3545DOPG   C4A64400  22.260  16.470  16.580
 3545DOPG   C1B64401  22.860  15.430  16.060
 3545DOPG   D2B64402  22.730  15.360  16.450
 3545DOPG   C3B64403  22.900  15.500  16.860
 3545DOPG   C4B64404  23.130  15.820  17.000
 3546DOPG   GL064405  19.620   6.770  13.230
 3546DOPG   PO464406  19.650   6.560  12.860
 3546DOPG   GL164407  19.660   6.960  12.740
 3546DOPG   GL264408  19.850   7.120  12.480
 3546DOPG   C1A64409  19.590   7.410  12.790
 3546DOPG   D2A64410  19.600   7.710  13.110
 3546DOPG   C3A64411  19.980   8.010  13.200
 3546DOPG   C4A64412  20.070   8.450  13.220
 3546DOPG   C1B64413  20.110   7.410  12.870
 3546DOPG   D2B64414  20.400   7.630  13.110
 3546DOPG   C3B64415  20.500   8.010  13.310
 3546DOPG   C4B64416  20.810   8.420  13.300
 3547DOPG   GL064417  22.760   8.030  19.560
 3547DOPG   PO464418  22.600   7.710  19.310
 3547DOPG   GL164419  22.790   7.570  19.690
 3547DOPG   GL264420  23.090   7.490  19.560
 3547DOPG   C1A64421  22.650   7.270  20.040
 3547DOPG   D2A64422  22.450   6.900  20.200
 3547DOPG   C3A64423  22.440   6.870  20.660
 3547DOPG   C4A64424  22.430   6.880  21.120
 3547DOPG   C1B64425  23.150   7.290  19.950
 3547DOPG   D2B64426  23.350   6.960  20.160
 3547DOPG   C3B64427  23.600   6.650  20.270
 3547DOPG   C4B64428  23.870   6.540  20.480
 3548DOPG   GL064429  27.390  24.900  12.720
 3548DOPG   PO464430  27.290  24.410  12.510
 3548DOPG   GL164431  27.050  24.040  12.620
 3548DOPG   GL264432  27.170  23.650  12.650
 3548DOPG   C1A64433  26.680  23.890  12.820
 3548DOPG   D2A64434  26.490  23.830  13.240
 3548DOPG   C3A64435  26.150  23.540  13.100
 3548DOPG   C4A64436  25.860  23.450  12.700
 3548DOPG   C1B64437  27.000  23.600  12.260
 3548DOPG   D2B64438  26.550  23.480  12.280
 3548DOPG   C3B64439  26.280  23.710  12.590
 3548DOPG   C4B64440  25.940  23.990  12.540
 3549DOPG   GL064441  12.910  19.780  16.680
 3549DOPG   PO464442  12.650  20.090  16.630
 3549DOPG   GL164443  12.370  20.260  16.640
 3549DOPG   GL264444  12.190  20.340  16.420
 3549DOPG   C1A64445  12.210  20.670  16.960
 3549DOPG   D2A64446  11.770  20.960  17.110
 3549DOPG   C3A64447  11.700  21.350  16.970
 3549DOPG   C4A64448  11.370  21.690  16.790
 3549DOPG   C1B64449  11.790  20.250  16.660
 3549DOPG   D2B64450  11.620  20.470  16.980
 3549DOPG   C3B64451  11.110  20.480  17.200
 3549DOPG   C4B64452  10.810  20.690  17.460
 3550DOPG   GL064453  16.600  19.810  18.950
 3550DOPG   PO464454  16.360  19.970  18.710
 3550DOPG   GL164455  16.010  20.060  18.860
 3550DOPG   GL264456  15.730  20.270  18.730
 3550DOPG   C1A64457  15.940  20.290  19.190
 3550DOPG   D2A64458  15.890  20.430  19.620
 3550DOPG   C3A64459  15.770  20.840  19.720
 3550DOPG   C4A64460  15.580  21.250  19.510
 3550DOPG   C1B64461  15.670  20.660  18.930
 3550DOPG   D2B64462  15.580  20.750  19.270
 3550DOPG   C3B64463  15.150  21.010  19.420
 3550DOPG   C4B64464  14.940  21.090  19.910
 3551DOPG   GL064465  23.730   3.590   9.030
 3551DOPG   PO464466  24.200   3.580   9.070
 3551DOPG   GL164467  24.060   3.940   9.240
 3551DOPG   GL264468  24.280   4.180   9.440
 3551DOPG   C1A64469  23.810   4.320   9.330
 3551DOPG   D2A64470  23.550   4.700   9.300
 3551DOPG   C3A64471  23.690   5.120   9.480
 3551DOPG   C4A64472  23.430   5.480   9.680
 3551DOPG   C1B64473  24.260   4.590   9.280
 3551DOPG   D2B64474  24.010   4.860   9.100
 3551DOPG   C3B64475  23.860   5.380   8.960
 3551DOPG   C4B64476  23.640   5.750   8.780
 3552DOPG   GL064477  10.980  17.780   5.000
 3552DOPG   PO464478  11.040  17.510   5.370
 3552DOPG   GL164479  11.220  17.620   5.700
 3552DOPG   GL264480  11.540  17.690   5.700
 3552DOPG   C1A64481  11.100  17.610   6.190
 3552DOPG   D2A64482  11.100  17.510   6.640
 3552DOPG   C3A64483  11.130  17.180   6.820
 3552DOPG   C4A64484  10.830  16.830   6.790
 3552DOPG   C1B64485  11.700  17.750   6.110
 3552DOPG   D2B64486  11.890  17.810   6.440
 3552DOPG   C3B64487  12.120  17.460   6.550
 3552DOPG   C4B64488  12.290  17.130   6.770
 3553DOPG   GL064489  10.400  22.420  18.410
 3553DOPG   PO464490  10.290  22.050  18.190
 3553DOPG   GL164491  10.720  21.930  18.030
 3553DOPG   GL264492  10.870  21.890  18.330
 3553DOPG   C1A64493  10.890  21.700  17.740
 3553DOPG   D2A64494  10.660  21.390  17.540
 3553DOPG   C3A64495  10.940  21.120  17.310
 3553DOPG   C4A64496  11.220  20.990  17.070
 3553DOPG   C1B64497  11.150  22.250  18.070
 3553DOPG   D2B64498  11.050  22.710  17.830
 3553DOPG   C3B64499  11.140  22.850  17.370
 3553DOPG   C4B64500  11.330  23.150  17.160
 3554DOPG   GL064501  24.260  18.740  18.290
 3554DOPG   PO464502  23.850  18.890  18.550
 3554DOPG   GL164503  24.160  18.860  18.960
 3554DOPG   GL264504  24.400  18.940  18.780
 3554DOPG   C1A64505  24.330  19.000  19.290
 3554DOPG   D2A64506  24.520  19.210  19.620
 3554DOPG   C3A64507  24.210  19.100  19.970
 3554DOPG   C4A64508  24.070  18.700  20.060
 3554DOPG   C1B64509  24.730  19.160  19.000
 3554DOPG   D2B64510  25.190  19.190  18.980
 3554DOPG   C3B64511  25.500  19.280  19.350
 3554DOPG   C4B64512  25.300  19.100  19.720
 3555DOPG   GL064513  19.850   4.560  12.820
 3555DOPG   PO464514  19.620   4.810  13.060
 3555DOPG   GL164515  19.510   4.370  13.140
 3555DOPG   GL264516  19.450   4.310  13.490
 3555DOPG   C1A64517  19.620   4.020  13.110
 3555DOPG   D2A64518  19.540   3.520  13.090
 3555DOPG   C3A64519  19.640   3.360  12.660
 3555DOPG   C4A64520  20.120   3.130  12.570
 3555DOPG   C1B64521  19.390   3.830  13.520
 3555DOPG   D2B64522  19.160   3.440  13.790
 3555DOPG   C3B64523  19.360   3.100  13.960
 3555DOPG   C4B64524  19.620   2.730  13.850
 3556DOPG   GL064525  20.730   6.520  15.240
 3556DOPG   PO464526  20.640   6.870  15.130
 3556DOPG   GL164527  20.730   7.220  15.020
 3556DOPG   GL264528  20.560   7.360  14.970
 3556DOPG   C1A64529  20.950   7.650  15.020
 3556DOPG   D2A64530  21.010   8.090  14.930
 3556DOPG   C3A64531  21.260   8.380  15.130
 3556DOPG   C4A64532  21.310   8.670  15.530
 3556DOPG   C1B64533  20.320   7.590  14.820
 3556DOPG   D2B64534  20.060   7.840  14.590
 3556DOPG   C3B64535  20.080   8.320  14.660
 3556DOPG   C4B64536  20.000   8.740  14.860
 3557DOPG   GL064537  17.900  14.390  11.670
 3557DOPG   PO464538  17.780  13.970  11.890
 3557DOPG   GL164539  18.000  13.880  11.600
 3557DOPG   GL264540  18.180  14.090  11.420
 3557DOPG   C1A64541  17.940  13.590  11.250
 3557DOPG   D2A64542  18.070  13.160  11.120
 3557DOPG   C3A64543  18.410  13.080  10.810
 3557DOPG   C4A64544  18.670  13.190  10.540
 3557DOPG   C1B64545  18.390  13.980  11.090
 3557DOPG   D2B64546  18.460  13.800  10.630
 3557DOPG   C3B64547  18.100  13.780  10.300
 3557DOPG   C4B64548  17.780  13.370  10.220
 3558DOPG   GL064549  20.660  11.130  13.410
 3558DOPG   PO464550  20.650  10.680  13.240
 3558DOPG   GL164551  20.880  10.410  12.890
 3558DOPG   GL264552  21.070  10.670  12.680
 3558DOPG   C1A64553  21.280  10.190  12.710
 3558DOPG   D2A64554  21.450   9.910  12.520
 3558DOPG   C3A64555  21.610  10.100  12.190
 3558DOPG   C4A64556  21.770  10.230  11.820
 3558DOPG   C1B64557  21.080  10.700  12.220
 3558DOPG   D2B64558  20.870  10.720  11.830
 3558DOPG   C3B64559  20.670  10.330  11.950
 3558DOPG   C4B64560  20.480   9.930  12.070
 3559DOPG   GL064561  18.530  17.550   7.410
 3559DOPG   PO464562  18.220  17.310   7.200
 3559DOPG   GL164563  18.340  17.300   6.690
 3559DOPG   GL264564  18.090  17.650   6.780
 3559DOPG   C1A64565  18.460  17.120   6.380
 3559DOPG   D2A64566  18.220  16.780   6.130
 3559DOPG   C3A64567  18.330  16.930   5.760
 3559DOPG   C4A64568  18.360  16.770   5.330
 3559DOPG   C1B64569  18.290  17.680   6.380
 3559DOPG   D2B64570  18.360  17.500   5.960
 3559DOPG   C3B64571  18.130  17.680   5.610
 3559DOPG   C4B64572  17.690  17.980   5.540
 3560DOPG   GL064573  21.060   6.660  10.760
 3560DOPG   PO464574  21.170   6.530  10.430
 3560DOPG   GL164575  21.300   6.270  10.120
 3560DOPG   GL264576  21.180   6.020  10.340
 3560DOPG   C1A64577  21.320   5.950   9.770
 3560DOPG   D2A64578  21.610   5.520   9.720
 3560DOPG   C3A64579  21.760   5.390   9.260
 3560DOPG   C4A64580  22.110   5.550   8.970
 3560DOPG   C1B64581  21.230   5.580  10.130
 3560DOPG   D2B64582  21.340   5.150  10.320
 3560DOPG   C3B64583  21.500   4.760  10.150
 3560DOPG   C4B64584  21.590   4.590   9.840
 3561DOPG   GL064585  18.280  12.050  13.120
 3561DOPG   PO464586  18.040  12.190  12.760
 3561DOPG   GL164587  17.800  12.030  12.340
 3561DOPG   GL264588  17.750  11.730  12.530
 3561DOPG   C1A64589  17.340  11.850  12.340
 3561DOPG   D2A64590  17.020  11.800  12.000
 3561DOPG   C3A64591  17.090  11.940  11.610
 3561DOPG   C4A64592  17.050  12.080  11.270
 3561DOPG   C1B64593  17.670  11.340  12.790
 3561DOPG   D2B64594  17.770  11.270  13.250
 3561DOPG   C3B64595  17.340  11.120  13.400
 3561DOPG   C4B64596  17.000  11.010  13.340
 3562DOPG   GL064597  11.610  13.070   5.250
 3562DOPG   PO464598  11.760  13.390   5.040
 3562DOPG   GL164599  12.020  13.560   5.340
 3562DOPG   GL264600  12.280  13.790   5.200
 3562DOPG   C1A64601  12.180  13.560   5.760
 3562DOPG   D2A64602  12.340  13.880   6.030
 3562DOPG   C3A64603  12.300  14.070   6.340
 3562DOPG   C4A64604  12.420  14.080   6.780
 3562DOPG   C1B64605  12.490  13.980   5.530
 3562DOPG   D2B64606  12.820  13.880   5.850
 3562DOPG   C3B64607  13.200  13.590   5.740
 3562DOPG   C4B64608  13.520  13.520   5.960
 3563DOPG   GL064609  16.970   8.830  10.440
 3563DOPG   PO464610  16.560   9.010  10.550
 3563DOPG   GL164611  16.720   9.090  10.990
 3563DOPG   GL264612  16.680   9.450  11.060
 3563DOPG   C1A64613  17.160   9.180  11.130
 3563DOPG   D2A64614  17.590   9.000  11.090
 3563DOPG   C3A64615  17.930   9.200  10.810
 3563DOPG   C4A64616  18.090   9.560  10.530
 3563DOPG   C1B64617  16.690   9.330  11.490
 3563DOPG   D2B64618  16.820   9.540  11.870
 3563DOPG   C3B64619  16.720   9.940  11.970
 3563DOPG   C4B64620  16.870  10.240  12.240
 3564DOPG   GL064621  23.300  12.900  13.960
 3564DOPG   PO464622  23.790  12.900  13.720
 3564DOPG   GL164623  24.240  13.070  13.760
 3564DOPG   GL264624  24.490  12.970  13.780
 3564DOPG   C1A64625  24.570  13.420  13.570
 3564DOPG   D2A64626  24.780  13.760  13.420
 3564DOPG   C3A64627  24.870  14.030  13.130
 3564DOPG   C4A64628  24.850  14.420  12.900
 3564DOPG   C1B64629  24.920  12.760  13.780
 3564DOPG   D2B64630  25.320  12.820  13.680
 3564DOPG   C3B64631  25.490  13.150  13.920
 3564DOPG   C4B64632  25.730  13.560  14.060
 3565DOPG   GL064633  20.980   9.330  18.090
 3565DOPG   PO464634  20.760   9.700  18.100
 3565DOPG   GL164635  21.040   9.770  17.730
 3565DOPG   GL264636  21.320   9.520  17.680
 3565DOPG   C1A64637  21.130   9.870  17.360
 3565DOPG   D2A64638  21.320   9.940  16.960
 3565DOPG   C3A64639  21.100  10.160  16.540
 3565DOPG   C4A64640  20.790  10.490  16.630
 3565DOPG   C1B64641  21.540   9.380  17.220
 3565DOPG   D2B64642  21.630   9.460  16.760
 3565DOPG   C3B64643  22.050   9.410  16.610
 3565DOPG   C4B64644  22.390   9.730  16.570
 3566DOPG   GL064645  22.810  16.410   8.100
 3566DOPG   PO464646  22.890  16.210   8.600
 3566DOPG   GL164647  22.710  15.980   8.790
 3566DOPG   GL264648  22.530  16.300   8.980
 3566DOPG   C1A64649  22.500  15.810   9.200
 3566DOPG   D2A64650  22.490  15.740   9.550
 3566DOPG   C3A64651  22.310  15.990   9.800
 3566DOPG   C4A64652  22.280  15.990  10.180
 3566DOPG   C1B64653  22.230  16.050   8.830
 3566DOPG   D2B64654  21.990  15.720   9.100
 3566DOPG   C3B64655  22.000  15.730   9.540
 3566DOPG   C4B64656  21.880  15.850   9.960
 3567DOPG   GL064657  22.790  14.330  12.580
 3567DOPG   PO464658  23.230  14.280  12.650
 3567DOPG   GL164659  23.640  14.240  12.450
 3567DOPG   GL264660  23.560  14.500  12.170
 3567DOPG   C1A64661  23.830  14.000  12.060
 3567DOPG   D2A64662  24.040  13.970  11.680
 3567DOPG   C3A64663  23.820  13.870  11.270
 3567DOPG   C4A64664  23.540  13.490  11.290
 3567DOPG   C1B64665  23.690  14.800  11.890
 3567DOPG   D2B64666  24.010  15.060  11.790
 3567DOPG   C3B64667  24.370  14.870  11.600
 3567DOPG   C4B64668  24.580  14.410  11.730
 3568DOPG   GL064669  14.250  18.140   9.280
 3568DOPG   PO464670  14.700  18.030   9.250
 3568DOPG   GL164671  14.790  17.970   9.650
 3568DOPG   GL264672  14.610  17.900   9.990
 3568DOPG   C1A64673  14.980  17.580   9.900
 3568DOPG   D2A64674  15.180  17.250  10.250
 3568DOPG   C3A64675  15.130  17.420  10.670
 3568DOPG   C4A64676  15.130  17.270  11.080
 3568DOPG   C1B64677  15.000  18.030  10.210
 3568DOPG   D2B64678  15.190  17.900  10.580
 3568DOPG   C3B64679  15.110  17.770  11.020
 3568DOPG   C4B64680  14.820  17.570  11.280
 3569DOPG   GL064681  10.810  17.160  13.110
 3569DOPG   PO464682  10.620  17.270  12.660
 3569DOPG   GL164683  10.290  17.250  12.920
 3569DOPG   GL264684  10.290  17.620  12.980
 3569DOPG   C1A64685   9.790  17.190  12.770
 3569DOPG   D2A64686   9.360  17.060  12.560
 3569DOPG   C3A64687   9.260  17.040  12.150
 3569DOPG   C4A64688   8.910  16.940  11.940
 3569DOPG   C1B64689   9.810  17.720  13.030
 3569DOPG   D2B64690   9.370  17.730  13.160
 3569DOPG   C3B64691   9.000  17.760  13.420
 3569DOPG   C4B64692   8.660  17.940  13.700
 3570DOPG   GL064693  21.000  12.090  12.580
 3570DOPG   PO464694  20.690  11.760  12.570
 3570DOPG   GL164695  20.650  11.350  12.360
 3570DOPG   GL264696  20.940  11.210  12.240
 3570DOPG   C1A64697  20.590  11.110  11.890
 3570DOPG   D2A64698  20.600  10.860  11.390
 3570DOPG   C3A64699  20.540  10.840  10.930
 3570DOPG   C4A64700  20.260  11.050  10.710
 3570DOPG   C1B64701  21.030  11.540  11.770
 3570DOPG   D2B64702  20.800  11.490  11.310
 3570DOPG   C3B64703  20.930  11.150  11.000
 3570DOPG   C4B64704  21.080  10.800  10.880
 3571DOPG   GL064705  13.970  20.790  11.350
 3571DOPG   PO464706  13.710  20.870  10.960
 3571DOPG   GL164707  13.300  21.160  10.940
 3571DOPG   GL264708  13.270  21.100  10.640
 3571DOPG   C1A64709  13.030  21.460  11.000
 3571DOPG   D2A64710  12.700  21.680  11.160
 3571DOPG   C3A64711  12.430  21.940  10.950
 3571DOPG   C4A64712  12.140  22.170  10.840
 3571DOPG   C1B64713  12.890  21.290  10.550
 3571DOPG   D2B64714  12.830  21.690  10.560
 3571DOPG   C3B64715  12.980  21.980  10.710
 3571DOPG   C4B64716  12.950  22.480  10.650
 3572DOPG   GL064717  17.110  17.410  12.480
 3572DOPG   PO464718  16.770  17.670  12.470
 3572DOPG   GL164719  16.520  17.870  12.170
 3572DOPG   GL264720  16.180  17.670  12.200
 3572DOPG   C1A64721  16.370  18.140  11.890
 3572DOPG   D2A64722  16.290  18.610  11.600
 3572DOPG   C3A64723  16.680  18.770  11.450
 3572DOPG   C4A64724  16.730  18.990  11.010
 3572DOPG   C1B64725  15.930  17.940  11.950
 3572DOPG   D2B64726  15.800  18.350  11.770
 3572DOPG   C3B64727  15.830  18.530  11.350
 3572DOPG   C4B64728  15.910  19.040  11.350
 3573DOPG   GL064729  19.420  10.300  14.610
 3573DOPG   PO464730  19.730  10.360  14.320
 3573DOPG   GL164731  19.570   9.880  14.290
 3573DOPG   GL264732  19.740   9.610  14.110
 3573DOPG   C1A64733  19.250   9.610  14.380
 3573DOPG   D2A64734  19.150   9.270  14.090
 3573DOPG   C3A64735  19.340   8.970  14.290
 3573DOPG   C4A64736  19.530   8.660  14.590
 3573DOPG   C1B64737  19.740   9.470  14.530
 3573DOPG   D2B64738  19.700   9.230  14.770
 3573DOPG   C3B64739  19.170   9.010  14.740
 3573DOPG   C4B64740  18.850   9.020  14.470
 3574DOPG   GL064741  21.910  15.950  12.070
 3574DOPG   PO464742  21.940  16.060  11.650
 3574DOPG   GL164743  22.190  16.300  11.560
 3574DOPG   GL264744  22.550  16.400  11.770
 3574DOPG   C1A64745  22.370  16.740  11.410
 3574DOPG   D2A64746  22.300  17.130  11.680
 3574DOPG   C3A64747  22.450  17.500  11.540
 3574DOPG   C4A64748  22.580  17.460  11.080
 3574DOPG   C1B64749  22.840  16.550  11.550
 3574DOPG   D2B64750  22.740  16.600  11.130
 3574DOPG   C3B64751  22.470  16.970  10.890
 3574DOPG   C4B64752  22.240  16.940  10.510
 3575DOPG   GL064753  16.330   7.040  17.750
 3575DOPG   PO464754  16.230   6.770  18.040
 3575DOPG   GL164755  16.450   6.470  18.390
 3575DOPG   GL264756  16.710   6.300  18.490
 3575DOPG   C1A64757  16.260   6.340  18.750
 3575DOPG   D2A64758  16.340   6.110  19.150
 3575DOPG   C3A64759  16.330   5.640  19.160
 3575DOPG   C4A64760  16.510   5.350  18.910
 3575DOPG   C1B64761  16.550   5.850  18.720
 3575DOPG   D2B64762  16.110   5.560  18.680
 3575DOPG   C3B64763  15.870   5.390  18.980
 3575DOPG   C4B64764  15.890   5.320  19.420
 3576DOPG   GL064765  22.960  14.200  15.410
 3576DOPG   PO464766  22.740  14.460  15.300
 3576DOPG   GL164767  22.920  14.500  15.790
 3576DOPG   GL264768  22.850  14.750  15.860
 3576DOPG   C1A64769  22.890  14.430  16.240
 3576DOPG   D2A64770  23.160  14.300  16.490
 3576DOPG   C3A64771  23.620  14.310  16.470
 3576DOPG   C4A64772  23.820  14.460  16.070
 3576DOPG   C1B64773  23.200  14.910  16.000
 3576DOPG   D2B64774  23.510  14.790  16.360
 3576DOPG   C3B64775  23.600  15.020  16.680
 3576DOPG   C4B64776  23.610  14.930  17.120
 3577DOPG   GL064777  16.620  23.110  10.730
 3577DOPG   PO464778  16.950  23.230  11.060
 3577DOPG   GL164779  16.730  23.610  10.880
 3577DOPG   GL264780  16.640  23.810  11.090
 3577DOPG   C1A64781  16.720  23.720  10.530
 3577DOPG   D2A64782  16.740  24.160  10.340
 3577DOPG   C3A64783  16.850  24.350   9.910
 3577DOPG   C4A64784  16.730  24.650   9.600
 3577DOPG   C1B64785  16.590  24.210  10.810
 3577DOPG   D2B64786  16.610  24.630  10.530
 3577DOPG   C3B64787  16.920  24.700  10.320
 3577DOPG   C4B64788  17.220  24.920  10.250
 3578DOPG   GL064789  17.460  12.890  13.320
 3578DOPG   PO464790  17.630  12.820  13.730
 3578DOPG   GL164791  17.190  12.600  13.630
 3578DOPG   GL264792  16.980  12.420  13.830
 3578DOPG   C1A64793  17.060  12.510  13.090
 3578DOPG   D2A64794  16.870  12.670  12.790
 3578DOPG   C3A64795  16.870  12.450  12.470
 3578DOPG   C4A64796  16.990  12.350  12.070
 3578DOPG   C1B64797  16.700  12.460  13.490
 3578DOPG   D2B64798  16.260  12.390  13.540
 3578DOPG   C3B64799  16.100  12.370  13.970
 3578DOPG   C4B64800  16.090  12.200  14.340
 3579DOPG   GL064801  11.360  11.350  14.720
 3579DOPG   PO464802  11.050  11.270  14.400
 3579DOPG   GL164803  10.890  10.870  14.320
 3579DOPG   GL264804  10.940  10.600  14.190
 3579DOPG   C1A64805  10.450  10.710  14.240
 3579DOPG   D2A64806  10.150  10.500  14.160
 3579DOPG   C3A64807   9.800  10.600  14.290
 3579DOPG   C4A64808   9.390  10.680  14.290
 3579DOPG   C1B64809  10.600  10.270  14.120
 3579DOPG   D2B64810  10.380   9.970  14.320
 3579DOPG   C3B64811  10.260   9.600  14.270
 3579DOPG   C4B64812   9.840   9.630  14.450
 3580DOPG   GL064813  14.250  26.390  16.130
 3580DOPG   PO464814  14.020  26.480  15.730
 3580DOPG   GL164815  13.940  26.080  15.690
 3580DOPG   GL264816  13.630  25.820  15.430
 3580DOPG   C1A64817  13.980  25.580  15.710
 3580DOPG   D2A64818  14.330  25.180  15.700
 3580DOPG   C3A64819  14.500  24.880  15.330
 3580DOPG   C4A64820  14.380  24.780  14.910
 3580DOPG   C1B64821  13.420  25.460  15.600
 3580DOPG   D2B64822  13.390  25.130  15.490
 3580DOPG   C3B64823  13.500  24.820  15.320
 3580DOPG   C4B64824  13.870  24.650  14.970
 3581DOPG   GL064825  21.850  13.020  12.300
 3581DOPG   PO464826  22.040  12.690  12.050
 3581DOPG   GL164827  21.880  12.780  11.630
 3581DOPG   GL264828  21.680  13.090  11.700
 3581DOPG   C1A64829  21.490  12.680  11.440
 3581DOPG   D2A64830  21.290  12.380  11.070
 3581DOPG   C3A64831  21.480  12.380  10.790
 3581DOPG   C4A64832  21.780  12.720  10.770
 3581DOPG   C1B64833  21.860  13.130  11.200
 3581DOPG   D2B64834  22.100  13.370  10.980
 3581DOPG   C3B64835  22.390  13.390  10.470
 3581DOPG   C4B64836  22.340  13.750  10.210
 3582DOPG   GL064837  19.920  16.790  18.780
 3582DOPG   PO464838  19.880  16.320  18.740
 3582DOPG   GL164839  19.730  16.120  18.300
 3582DOPG   GL264840  19.950  15.790  18.330
 3582DOPG   C1A64841  19.460  16.130  17.950
 3582DOPG   D2A64842  19.460  15.900  17.500
 3582DOPG   C3A64843  19.360  15.770  17.120
 3582DOPG   C4A64844  19.550  15.600  16.640
 3582DOPG   C1B64845  19.870  15.800  17.920
 3582DOPG   D2B64846  19.960  15.830  17.520
 3582DOPG   C3B64847  19.820  15.530  17.180
 3582DOPG   C4B64848  19.890  15.230  16.900
 3583DOPG   GL064849  24.300  26.180   8.910
 3583DOPG   PO464850  24.090  25.810   8.980
 3583DOPG   GL164851  24.010  25.330   9.090
 3583DOPG   GL264852  24.350  25.190   9.170
 3583DOPG   C1A64853  23.870  24.860   9.070
 3583DOPG   D2A64854  24.240  24.610   9.120
 3583DOPG   C3A64855  24.320  24.160   9.250
 3583DOPG   C4A64856  24.090  24.080   9.610
 3583DOPG   C1B64857  24.310  24.990   9.520
 3583DOPG   D2B64858  24.210  24.560   9.590
 3583DOPG   C3B64859  23.830  24.420   9.320
 3583DOPG   C4B64860  23.400  24.520   9.490
 3584DOPG   GL064861  19.850  12.980  14.570
 3584DOPG   PO464862  20.070  13.030  14.960
 3584DOPG   GL164863  20.070  12.790  15.410
 3584DOPG   GL264864  19.890  12.600  15.470
 3584DOPG   C1A64865  19.970  12.770  15.900
 3584DOPG   D2A64866  19.960  12.640  16.260
 3584DOPG   C3A64867  20.260  12.290  16.400
 3584DOPG   C4A64868  20.630  12.070  16.350
 3584DOPG   C1B64869  19.690  12.260  15.690
 3584DOPG   D2B64870  19.650  11.810  15.480
 3584DOPG   C3B64871  19.260  11.450  15.740
 3584DOPG   C4B64872  18.920  11.230  15.810
 3585DOPG   GL064873  24.430  18.000  17.950
 3585DOPG   PO464874  24.010  17.830  17.790
 3585DOPG   GL164875  23.830  17.780  17.350
 3585DOPG   GL264876  23.550  17.710  17.430
 3585DOPG   C1A64877  23.760  17.380  17.190
 3585DOPG   D2A64878  23.890  16.960  17.060
 3585DOPG   C3A64879  23.640  16.700  16.760
 3585DOPG   C4A64880  23.290  16.790  16.570
 3585DOPG   C1B64881  23.290  17.700  17.170
 3585DOPG   D2B64882  23.010  17.730  16.900
 3585DOPG   C3B64883  23.060  17.590  16.480
 3585DOPG   C4B64884  22.990  17.240  16.260
 3586DOPG   GL064885  19.300  11.580  13.360
 3586DOPG   PO464886  19.240  11.440  13.810
 3586DOPG   GL164887  19.020  11.070  14.030
 3586DOPG   GL264888  18.870  10.860  13.850
 3586DOPG   C1A64889  18.850  10.800  14.370
 3586DOPG   D2A64890  18.950  10.490  14.590
 3586DOPG   C3A64891  18.580  10.230  14.850
 3586DOPG   C4A64892  18.560   9.770  14.880
 3586DOPG   C1B64893  18.720  10.510  13.950
 3586DOPG   D2B64894  18.600  10.200  14.320
 3586DOPG   C3B64895  18.820   9.930  14.450
 3586DOPG   C4B64896  18.850   9.480  14.600
 3587DOPG   GL064897  16.600  15.300  14.010
 3587DOPG   PO464898  16.280  15.360  14.460
 3587DOPG   GL164899  15.860  15.270  14.570
 3587DOPG   GL264900  15.590  15.170  14.390
 3587DOPG   C1A64901  15.590  15.320  14.900
 3587DOPG   D2A64902  15.300  15.550  14.960
 3587DOPG   C3A64903  15.250  15.860  15.290
 3587DOPG   C4A64904  15.200  16.250  15.240
 3587DOPG   C1B64905  15.190  15.300  14.490
 3587DOPG   D2B64906  14.810  15.430  14.730
 3587DOPG   C3B64907  14.450  15.480  14.510
 3587DOPG   C4B64908  14.370  15.590  14.190
 3588DOPG   GL064909  23.250  11.760  13.700
 3588DOPG   PO464910  23.450  11.880  13.240
 3588DOPG   GL164911  23.680  11.730  12.930
 3588DOPG   GL264912  23.580  11.950  12.680
 3588DOPG   C1A64913  24.030  11.500  12.760
 3588DOPG   D2A64914  24.260  11.210  12.660
 3588DOPG   C3A64915  24.580  11.160  12.360
 3588DOPG   C4A64916  24.740  10.760  12.310
 3588DOPG   C1B64917  23.710  11.640  12.350
 3588DOPG   D2B64918  23.810  11.290  12.140
 3588DOPG   C3B64919  23.880  11.000  12.410
 3588DOPG   C4B64920  23.870  10.850  12.820
 3589DOPG   GL064921  21.590  13.400   7.750
 3589DOPG   PO464922  21.740  13.540   7.420
 3589DOPG   GL164923  21.930  13.320   7.000
 3589DOPG   GL264924  21.600  13.160   7.060
 3589DOPG   C1A64925  22.170  13.180   6.650
 3589DOPG   D2A64926  22.240  13.280   6.260
 3589DOPG   C3A64927  22.400  13.080   6.040
 3589DOPG   C4A64928  22.720  12.970   5.630
 3589DOPG   C1B64929  21.580  13.210   6.560
 3589DOPG   D2B64930  21.740  13.150   6.120
 3589DOPG   C3B64931  21.930  12.790   5.920
 3589DOPG   C4B64932  22.110  12.720   5.570
 3590DOPG   GL064933  11.140  12.190  22.470
 3590DOPG   PO464934  10.880  11.970  22.170
 3590DOPG   GL164935  11.280  11.850  22.050
 3590DOPG   GL264936  11.570  11.920  22.240
 3590DOPG   C1A64937  11.500  11.790  21.690
 3590DOPG   D2A64938  11.780  11.500  21.530
 3590DOPG   C3A64939  12.020  11.670  21.190
 3590DOPG   C4A64940  12.060  11.530  20.780
 3590DOPG   C1B64941  11.910  11.770  21.930
 3590DOPG   D2B64942  12.260  11.670  21.650
 3590DOPG   C3B64943  12.470  11.400  21.360
 3590DOPG   C4B64944  12.740  11.060  21.330
 3591DOPG   GL064945  14.900  20.480  17.350
 3591DOPG   PO464946  14.500  20.740  17.440
 3591DOPG   GL164947  14.410  21.000  17.810
 3591DOPG   GL264948  14.640  20.830  18.040
 3591DOPG   C1A64949  14.570  21.330  18.090
 3591DOPG   D2A64950  14.370  21.520  18.470
 3591DOPG   C3A64951  14.270  21.460  18.940
 3591DOPG   C4A64952  14.070  21.360  19.320
 3591DOPG   C1B64953  14.870  21.070  18.400
 3591DOPG   D2B64954  14.970  20.920  18.780
 3591DOPG   C3B64955  15.340  21.170  18.970
 3591DOPG   C4B64956  15.770  21.130  19.090
 3592DOPG   GL064957  16.750  14.760  14.740
 3592DOPG   PO464958  16.940  14.620  15.050
 3592DOPG   GL164959  16.770  14.370  15.330
 3592DOPG   GL264960  16.790  14.050  15.270
 3592DOPG   C1A64961  16.530  14.310  15.760
 3592DOPG   D2A64962  16.610  13.990  16.110
 3592DOPG   C3A64963  16.700  13.540  15.920
 3592DOPG   C4A64964  17.110  13.520  15.600
 3592DOPG   C1B64965  16.810  13.930  15.680
 3592DOPG   D2B64966  17.140  13.910  15.930
 3592DOPG   C3B64967  17.290  13.530  16.260
 3592DOPG   C4B64968  17.500  13.750  16.580
 3593DOPG   GL064969  18.610  23.180  10.270
 3593DOPG   PO464970  18.110  23.390  10.170
 3593DOPG   GL164971  17.780  23.580  10.100
 3593DOPG   GL264972  17.980  23.850   9.910
 3593DOPG   C1A64973  17.690  23.960  10.290
 3593DOPG   D2A64974  17.680  24.260   9.900
 3593DOPG   C3A64975  17.890  24.700   9.840
 3593DOPG   C4A64976  17.980  25.030   9.620
 3593DOPG   C1B64977  17.920  23.920   9.510
 3593DOPG   D2B64978  18.150  24.120   9.180
 3593DOPG   C3B64979  18.270  24.540   8.980
 3593DOPG   C4B64980  18.420  24.840   8.640
 3594DOPG   GL064981  19.110  12.200  14.710
 3594DOPG   PO464982  18.920  11.910  14.460
 3594DOPG   GL164983  18.560  11.680  14.660
 3594DOPG   GL264984  18.390  11.750  14.430
 3594DOPG   C1A64985  18.360  11.540  15.090
 3594DOPG   D2A64986  18.110  11.800  15.480
 3594DOPG   C3A64987  18.110  11.890  15.890
 3594DOPG   C4A64988  17.920  11.920  16.320
 3594DOPG   C1B64989  18.040  11.670  14.540
 3594DOPG   D2B64990  17.950  11.330  14.910
 3594DOPG   C3B64991  18.220  10.970  15.010
 3594DOPG   C4B64992  18.540  10.700  14.980
 3595DOPG   GL064993  13.010  22.600   6.100
 3595DOPG   PO464994  13.300  22.300   6.090
 3595DOPG   GL164995  13.210  22.160   6.450
 3595DOPG   GL264996  13.450  22.310   6.800
 3595DOPG   C1A64997  13.250  21.790   6.740
 3595DOPG   D2A64998  13.480  21.480   7.070
 3595DOPG   C3A64999  13.220  21.220   7.570
 3595DOPG   C4A65000  12.910  21.130   7.890
 3595DOPG   C1B65001  13.650  21.940   6.960
 3595DOPG   D2B65002  13.980  21.820   7.210
 3595DOPG   C3B65003  14.070  21.780   7.560
 3595DOPG   C4B65004  14.230  21.610   7.930
 3596DOPG   GL065005  11.240  18.220  21.880
 3596DOPG   PO465006  11.480  18.280  21.560
 3596DOPG   GL165007  11.570  18.090  21.100
 3596DOPG   GL265008  11.990  18.190  21.000
 3596DOPG   C1A65009  11.670  18.260  20.690
 3596DOPG   D2A65010  11.700  18.160  20.210
 3596DOPG   C3A65011  11.720  18.490  19.850
 3596DOPG   C4A65012  11.590  18.770  19.520
 3596DOPG   C1B65013  12.080  17.960  20.700
 3596DOPG   D2B65014  12.370  17.580  20.490
 3596DOPG   C3B65015  12.820  17.590  20.450
 3596DOPG   C4B65016  13.250  17.810  20.540
 3597DOPG   GL065017  20.830  23.130  12.580
 3597DOPG   PO465018  20.370  22.900  12.600
 3597DOPG   GL165019  20.290  22.560  12.790
 3597DOPG   GL265020  20.230  22.670  13.150
 3597DOPG   C1A65021  20.220  22.080  12.770
 3597DOPG   D2A65022  20.130  21.980  12.340
 3597DOPG   C3A65023  20.100  21.540  12.240
 3597DOPG   C4A65024  20.030  21.110  12.480
 3597DOPG   C1B65025  20.040  22.330  13.170
 3597DOPG   D2B65026  20.200  21.850  13.330
 3597DOPG   C3B65027  20.020  21.400  13.220
 3597DOPG   C4B65028  19.950  21.020  13.010
 3598DOPG   GL065029  21.860  13.500  12.270
 3598DOPG   PO465030  22.090  13.980  12.250
 3598DOPG   GL165031  22.060  13.830  11.800
 3598DOPG   GL265032  21.920  13.520  11.730
 3598DOPG   C1A65033  22.180  13.760  11.410
 3598DOPG   D2A65034  21.950  13.840  10.870
 3598DOPG   C3A65035  21.890  13.500  10.560
 3598DOPG   C4A65036  21.900  13.090  10.430
 3598DOPG   C1B65037  21.640  13.570  11.350
 3598DOPG   D2B65038  21.590  13.490  10.940
 3598DOPG   C3B65039  21.180  13.370  10.960
 3598DOPG   C4B65040  20.980  13.680  11.120
 3599DOPG   GL065041  20.240  17.910  14.580
 3599DOPG   PO465042  20.070  17.740  14.880
 3599DOPG   GL165043  20.180  18.100  15.180
 3599DOPG   GL265044  20.440  18.160  14.980
 3599DOPG   C1A65045  20.280  18.460  15.460
 3599DOPG   D2A65046  20.230  18.560  15.860
 3599DOPG   C3A65047  20.330  18.910  16.060
 3599DOPG   C4A65048  20.590  19.300  15.980
 3599DOPG   C1B65049  20.700  18.390  15.140
 3599DOPG   D2B65050  20.790  18.730  15.440
 3599DOPG   C3B65051  21.180  18.750  15.430
 3599DOPG   C4B65052  21.480  18.740  15.700
 3600DOPG   GL065053  11.640  10.230  14.910
 3600DOPG   PO465054  11.350  10.450  14.810
 3600DOPG   GL165055  11.040  10.470  14.690
 3600DOPG   GL265056  11.000  10.250  14.550
 3600DOPG   C1A65057  10.520  10.400  14.620
 3600DOPG   D2A65058  10.130  10.610  14.720
 3600DOPG   C3A65059   9.770  10.520  14.830
 3600DOPG   C4A65060   9.320  10.440  14.750
 3600DOPG   C1B65061  10.760   9.890  14.660
 3600DOPG   D2B65062  10.510   9.570  14.710
 3600DOPG   C3B65063  10.120   9.440  14.780
 3600DOPG   C4B65064   9.790   9.080  14.550
 3601DOPG   GL065065  19.880  14.480  12.000
 3601DOPG   PO465066  20.290  14.170  11.980
 3601DOPG   GL165067  20.430  14.060  11.580
 3601DOPG   GL265068  20.520  13.690  11.580
 3601DOPG   C1A65069  20.560  14.260  11.240
 3601DOPG   D2A65070  20.660  14.530  10.870
 3601DOPG   C3A65071  20.450  14.820  10.820
 3601DOPG   C4A65072  20.400  15.120  10.500
 3601DOPG   C1B65073  20.390  13.830  11.110
 3601DOPG   D2B65074  20.650  13.880  10.630
 3601DOPG   C3B65075  21.120  13.700  10.540
 3601DOPG   C4B65076  21.220  13.650  10.090
 3602DOPG   GL065077  13.660   2.530  17.560
 3602DOPG   PO465078  13.560   2.850  17.750
 3602DOPG   GL165079  13.810   3.180  17.930
 3602DOPG   GL265080  13.570   3.460  17.710
 3602DOPG   C1A65081  14.250   3.400  18.080
 3602DOPG   D2A65082  14.480   3.830  17.860
 3602DOPG   C3A65083  14.640   4.110  18.070
 3602DOPG   C4A65084  14.700   4.400  18.570
 3602DOPG   C1B65085  13.990   3.440  17.580
 3602DOPG   D2B65086  14.460   3.330  17.580
 3602DOPG   C3B65087  14.860   3.590  17.470
 3602DOPG   C4B65088  14.970   3.950  17.260
 3603DOPG   GL065089  17.920   7.180  14.500
 3603DOPG   PO465090  18.320   6.880  14.610
 3603DOPG   GL165091  18.780   7.020  14.900
 3603DOPG   GL265092  18.620   7.350  15.140
 3603DOPG   C1A65093  19.210   7.130  14.920
 3603DOPG   D2A65094  19.460   7.470  15.160
 3603DOPG   C3A65095  19.790   7.820  14.970
 3603DOPG   C4A65096  19.740   8.350  15.070
 3603DOPG   C1B65097  18.890   7.720  15.170
 3603DOPG   D2B65098  19.020   8.140  15.230
 3603DOPG   C3B65099  18.820   8.340  15.620
 3603DOPG   C4B65100  18.870   8.640  15.980
 3604DOPG   GL065101  22.700  10.560  14.300
 3604DOPG   PO465102  22.690  10.930  14.370
 3604DOPG   GL165103  22.950  10.780  14.680
 3604DOPG   GL265104  23.290  10.900  14.740
 3604DOPG   C1A65105  23.040  10.600  15.100
 3604DOPG   D2A65106  23.150  10.760  15.590
 3604DOPG   C3A65107  23.560  10.640  15.710
 3604DOPG   C4A65108  23.980  10.380  15.430
 3604DOPG   C1B65109  23.540  10.710  15.080
 3604DOPG   D2B65110  23.860  10.580  15.020
 3604DOPG   C3B65111  24.010  10.120  14.930
 3604DOPG   C4B65112  24.300   9.980  14.600
 3605DOPG   GL065113  25.530  14.110   9.020
 3605DOPG   PO465114  25.300  14.070   9.470
 3605DOPG   GL165115  24.930  14.060   9.620
 3605DOPG   GL265116  24.530  14.090   9.490
 3605DOPG   C1A65117  24.760  14.270   9.980
 3605DOPG   D2A65118  24.880  14.050  10.410
 3605DOPG   C3A65119  24.590  14.270  10.670
 3605DOPG   C4A65120  24.420  14.730  10.770
 3605DOPG   C1B65121  24.260  13.790   9.660
 3605DOPG   D2B65122  24.110  13.390   9.720
 3605DOPG   C3B65123  23.830  13.350  10.020
 3605DOPG   C4B65124  23.650  13.110  10.300
 3606DOPG   GL065125  19.720  12.660  14.980
 3606DOPG   PO465126  19.350  12.670  15.200
 3606DOPG   GL165127  19.180  12.640  15.600
 3606DOPG   GL265128  19.090  12.870  15.800
 3606DOPG   C1A65129  19.020  12.300  15.870
 3606DOPG   D2A65130  18.850  12.280  16.260
 3606DOPG   C3A65131  18.470  12.290  16.150
 3606DOPG   C4A65132  18.180  12.530  16.370
 3606DOPG   C1B65133  19.050  12.750  16.180
 3606DOPG   D2B65134  18.730  12.680  16.480
 3606DOPG   C3B65135  18.840  12.730  16.930
 3606DOPG   C4B65136  19.250  12.870  16.870
 3607DOPG   GL065137  16.540  14.270  14.820
 3607DOPG   PO465138  16.390  14.410  14.470
 3607DOPG   GL165139  16.040  14.270  14.400
 3607DOPG   GL265140  16.020  14.170  14.690
 3607DOPG   C1A65141  15.740  13.930  14.410
 3607DOPG   D2A65142  15.590  13.590  14.570
 3607DOPG   C3A65143  15.280  13.720  14.920
 3607DOPG   C4A65144  15.000  13.720  15.310
 3607DOPG   C1B65145  15.770  14.310  15.000
 3607DOPG   D2B65146  15.770  14.660  15.210
 3607DOPG   C3B65147  15.560  14.650  15.590
 3607DOPG   C4B65148  15.710  14.770  16.040
 3608DOPG   GL065149  18.150  18.200  12.250
 3608DOPG   PO465150  18.290  17.850  12.000
 3608DOPG   GL165151  18.090  17.820  11.580
 3608DOPG   GL265152  17.770  17.650  11.490
 3608DOPG   C1A65153  17.900  17.980  11.210
 3608DOPG   D2A65154  17.550  18.230  10.940
 3608DOPG   C3A65155  17.480  18.600  10.660
 3608DOPG   C4A65156  17.230  18.590  10.300
 3608DOPG   C1B65157  17.440  17.720  11.160
 3608DOPG   D2B65158  17.170  17.830  10.880
 3608DOPG   C3B65159  16.800  18.040  10.910
 3608DOPG   C4B65160  16.500  18.150  10.700
 3609DOPG   GL065161  22.710  20.510  17.350
 3609DOPG   PO465162  22.370  20.430  17.070
 3609DOPG   GL165163  22.200  20.010  16.830
 3609DOPG   GL265164  21.980  19.730  17.000
 3609DOPG   C1A65165  22.100  19.660  16.420
 3609DOPG   D2A65166  22.080  19.400  16.070
 3609DOPG   C3A65167  22.130  19.450  15.670
 3609DOPG   C4A65168  22.190  19.590  15.400
 3609DOPG   C1B65169  22.310  19.480  16.890
 3609DOPG   D2B65170  22.480  19.330  16.560
 3609DOPG   C3B65171  22.350  18.970  16.270
 3609DOPG   C4B65172  21.980  18.880  16.000
 3610DOPG   GL065173  22.070  18.200   8.740
 3610DOPG   PO465174  22.360  18.450   8.900
 3610DOPG   GL165175  22.350  18.430   9.380
 3610DOPG   GL265176  22.500  18.420   9.690
 3610DOPG   C1A65177  22.100  18.140   9.580
 3610DOPG   D2A65178  21.690  18.050   9.720
 3610DOPG   C3A65179  21.480  17.830   9.380
 3610DOPG   C4A65180  21.370  17.560   9.010
 3610DOPG   C1B65181  22.400  18.190  10.010
 3610DOPG   D2B65182  22.440  18.020  10.380
 3610DOPG   C3B65183  22.080  18.220  10.640
 3610DOPG   C4B65184  21.820  17.940  10.920
 3611DOPG   GL065185  27.080   8.360  14.210
 3611DOPG   PO465186  27.040   8.780  14.220
 3611DOPG   GL165187  27.320   8.540  13.830
 3611DOPG   GL265188  27.230   8.240  13.690
 3611DOPG   C1A65189  27.630   8.380  13.950
 3611DOPG   D2A65190  28.060   8.310  14.030
 3611DOPG   C3A65191  28.350   8.550  13.720
 3611DOPG   C4A65192  28.260   8.850  13.450
 3611DOPG   C1B65193  27.660   8.110  13.560
 3611DOPG   D2B65194  28.140   8.130  13.470
 3611DOPG   C3B65195  28.430   7.980  13.890
 3611DOPG   C4B65196  28.830   8.010  14.190
 3612DOPG   GL065197  10.870  23.140  18.100
 3612DOPG   PO465198  10.520  22.930  17.890
 3612DOPG   GL165199  10.640  22.440  17.700
 3612DOPG   GL265200  10.460  22.260  17.820
 3612DOPG   C1A65201  10.960  22.190  17.600
 3612DOPG   D2A65202  11.370  21.930  17.750
 3612DOPG   C3A65203  11.310  21.670  18.100
 3612DOPG   C4A65204  11.160  21.430  18.420
 3612DOPG   C1B65205  10.460  21.890  17.470
 3612DOPG   D2B65206  10.670  21.970  17.000
 3612DOPG   C3B65207  11.140  22.000  17.120
 3612DOPG   C4B65208  11.510  22.190  16.810
 3613DOPG   GL065209  25.240  23.200   6.580
 3613DOPG   PO465210  25.130  22.900   6.900
 3613DOPG   GL165211  24.970  22.750   7.230
 3613DOPG   GL265212  25.050  22.870   7.460
 3613DOPG   C1A65213  24.910  22.330   7.370
 3613DOPG   D2A65214  24.710  21.910   7.210
 3613DOPG   C3A65215  24.930  21.540   7.080
 3613DOPG   C4A65216  25.230  21.440   6.650
 3613DOPG   C1B65217  25.190  22.600   7.720
 3613DOPG   D2B65218  25.010  22.180   7.860
 3613DOPG   C3B65219  24.590  22.070   7.940
 3613DOPG   C4B65220  24.370  21.920   8.390
 3614DOPG   GL065221  20.450  12.020  14.940
 3614DOPG   PO465222  20.190  11.800  15.280
 3614DOPG   GL165223  20.340  11.590  15.650
 3614DOPG   GL265224  20.630  11.430  15.620
 3614DOPG   C1A65225  20.000  11.430  15.900
 3614DOPG   D2A65226  19.560  11.250  16.070
 3614DOPG   C3A65227  19.240  11.040  16.130
 3614DOPG   C4A65228  19.010  10.660  16.030
 3614DOPG   C1B65229  20.720  11.560  15.990
 3614DOPG   D2B65230  20.780  11.460  16.430
 3614DOPG   C3B65231  20.880  11.110  16.360
 3614DOPG   C4B65232  21.050  10.700  16.180
 3615DOPG   GL065233  16.090  15.420  12.500
 3615DOPG   PO465234  15.880  15.330  12.180
 3615DOPG   GL165235  15.490  15.690  12.010
 3615DOPG   GL265236  15.750  15.870  11.690
 3615DOPG   C1A65237  15.050  15.810  11.870
 3615DOPG   D2A65238  14.940  16.020  11.390
 3615DOPG   C3A65239  14.950  15.870  11.030
 3615DOPG   C4A65240  15.010  15.560  10.740
 3615DOPG   C1B65241  15.390  15.870  11.380
 3615DOPG   D2B65242  15.410  15.510  11.090
 3615DOPG   C3B65243  15.570  15.160  11.240
 3615DOPG   C4B65244  15.650  14.760  11.410
 3616DOPG   GL065245  12.290  20.800  15.990
 3616DOPG   PO465246  12.470  20.770  15.550
 3616DOPG   GL165247  12.060  20.880  15.420
 3616DOPG   GL265248  12.190  21.170  15.430
 3616DOPG   C1A65249  11.670  20.930  15.390
 3616DOPG   D2A65250  11.370  20.850  15.670
 3616DOPG   C3A65251  11.000  20.660  15.550
 3616DOPG   C4A65252  10.890  20.390  15.240
 3616DOPG   C1B65253  11.970  21.450  15.690
 3616DOPG   D2B65254  11.710  21.670  15.980
 3616DOPG   C3B65255  11.620  21.550  16.350
 3616DOPG   C4B65256  11.570  21.180  16.530
 3617DOPG   GL065257  11.810  18.570  14.310
 3617DOPG   PO465258  12.030  18.690  14.130
 3617DOPG   GL165259  12.380  18.400  13.950
 3617DOPG   GL265260  12.620  18.620  14.120
 3617DOPG   C1A65261  12.640  18.000  13.850
 3617DOPG   D2A65262  12.990  17.720  13.880
 3617DOPG   C3A65263  13.180  17.420  13.620
 3617DOPG   C4A65264  13.540  17.580  13.430
 3617DOPG   C1B65265  12.970  18.340  13.880
 3617DOPG   D2B65266  13.140  18.360  13.530
 3617DOPG   C3B65267  13.480  18.150  13.270
 3617DOPG   C4B65268  13.960  18.030  13.380
 3618DOPG   GL065269  22.160   9.910  14.060
 3618DOPG   PO465270  22.280  10.370  13.960
 3618DOPG   GL165271  22.350   9.950  13.640
 3618DOPG   GL265272  22.000   9.900  13.530
 3618DOPG   C1A65273  22.600   9.600  13.560
 3618DOPG   D2A65274  22.670   9.260  13.300
 3618DOPG   C3A65275  22.710   9.170  12.890
 3618DOPG   C4A65276  22.630   8.810  12.750
 3618DOPG   C1B65277  22.320   9.590  13.200
 3618DOPG   D2B65278  22.250   9.530  12.790
 3618DOPG   C3B65279  22.200   9.060  12.740
 3618DOPG   C4B65280  22.180   8.720  13.050
 3619DOPG   GL065281  19.690  11.330  18.760
 3619DOPG   PO465282  19.970  10.880  18.620
 3619DOPG   GL165283  19.750  10.970  18.260
 3619DOPG   GL265284  19.660  11.250  18.250
 3619DOPG   C1A65285  19.680  10.880  17.820
 3619DOPG   D2A65286  19.670  10.790  17.460
 3619DOPG   C3A65287  19.610  10.940  17.090
 3619DOPG   C4A65288  19.680  11.230  16.760
 3619DOPG   C1B65289  19.960  11.500  17.880
 3619DOPG   D2B65290  19.880  11.740  17.470
 3619DOPG   C3B65291  20.080  11.970  17.230
 3619DOPG   C4B65292  20.310  12.130  16.970
 3620DOPG   GL065293  19.280   9.420   9.440
 3620DOPG   PO465294  19.170   9.110   9.690
 3620DOPG   GL165295  19.340   9.190  10.130
 3620DOPG   GL265296  19.360   9.540  10.320
 3620DOPG   C1A65297  19.530   8.950  10.530
 3620DOPG   D2A65298  19.690   9.200  11.010
 3620DOPG   C3A65299  19.980   9.140  11.200
 3620DOPG   C4A65300  20.340   9.200  11.530
 3620DOPG   C1B65301  19.670   9.490  10.530
 3620DOPG   D2B65302  19.920   9.660  10.830
 3620DOPG   C3B65303  19.700  10.010  11.160
 3620DOPG   C4B65304  19.730  10.520  11.270
 3621DOPG   GL065305  21.460  15.870  11.750
 3621DOPG   PO465306  21.080  15.930  11.890
 3621DOPG   GL165307  21.060  16.140  11.520
 3621DOPG   GL265308  20.960  16.470  11.620
 3621DOPG   C1A65309  21.210  16.220  11.070
 3621DOPG   D2A65310  21.240  16.400  10.630
 3621DOPG   C3A65311  20.910  16.750  10.390
 3621DOPG   C4A65312  21.000  17.170  10.300
 3621DOPG   C1B65313  20.690  16.190  11.250
 3621DOPG   D2B65314  20.620  15.800  11.120
 3621DOPG   C3B65315  21.000  15.720  10.810
 3621DOPG   C4B65316  21.440  15.910  10.770
 3622DOPG   GL065317  10.720   5.020  18.380
 3622DOPG   PO465318  11.130   5.180  18.330
 3622DOPG   GL165319  11.350   5.480  18.070
 3622DOPG   GL265320  11.250   5.370  17.760
 3622DOPG   C1A65321  11.480   5.880  17.800
 3622DOPG   D2A65322  11.710   5.820  17.420
 3622DOPG   C3A65323  12.120   5.630  17.350
 3622DOPG   C4A65324  12.500   5.590  17.390
 3622DOPG   C1B65325  11.620   5.330  17.490
 3622DOPG   D2B65326  11.850   5.240  17.140
 3622DOPG   C3B65327  12.260   5.210  17.060
 3622DOPG   C4B65328  12.680   5.220  17.060
 3623DOPG   GL065329  20.580  16.900  12.380
 3623DOPG   PO465330  21.080  16.910  12.180
 3623DOPG   GL165331  21.080  16.890  11.830
 3623DOPG   GL265332  21.320  17.240  11.740
 3623DOPG   C1A65333  21.390  16.740  11.520
 3623DOPG   D2A65334  21.400  16.800  11.030
 3623DOPG   C3A65335  21.710  16.500  10.710
 3623DOPG   C4A65336  21.780  16.130  10.420
 3623DOPG   C1B65337  21.180  17.120  11.290
 3623DOPG   D2B65338  21.150  17.250  10.840
 3623DOPG   C3B65339  21.120  17.720  10.800
 3623DOPG   C4B65340  21.320  18.020  10.760
 3624DOPG   GL065341  20.880  10.870  14.190
 3624DOPG   PO465342  21.230  10.860  14.470
 3624DOPG   GL165343  21.140  10.590  14.890
 3624DOPG   GL265344  20.990  10.390  14.930
 3624DOPG   C1A65345  21.330  10.350  15.250
 3624DOPG   D2A65346  21.310  10.060  15.620
 3624DOPG   C3A65347  21.480  10.350  15.990
 3624DOPG   C4A65348  21.710  10.700  16.320
 3624DOPG   C1B65349  20.860  10.120  15.240
 3624DOPG   D2B65350  20.880   9.830  15.570
 3624DOPG   C3B65351  21.020   9.450  15.530
 3624DOPG   C4B65352  21.280   9.190  15.280
 3625DOPG   GL065353  25.490  19.330  14.390
 3625DOPG   PO465354  25.720  18.920  14.500
 3625DOPG   GL165355  25.450  18.660  14.270
 3625DOPG   GL265356  25.090  18.870  14.220
 3625DOPG   C1A65357  25.380  18.210  14.240
 3625DOPG   D2A65358  25.460  17.930  14.440
 3625DOPG   C3A65359  25.110  17.660  14.580
 3625DOPG   C4A65360  24.750  17.360  14.540
 3625DOPG   C1B65361  24.910  18.430  14.400
 3625DOPG   D2B65362  24.910  18.070  14.320
 3625DOPG   C3B65363  24.680  17.760  14.220
 3625DOPG   C4B65364  24.310  17.730  13.890
 3626DOPG   GL065365  11.770  10.750  13.610
 3626DOPG   PO465366  11.590  10.500  13.310
 3626DOPG   GL165367  11.290  10.310  13.320
 3626DOPG   GL265368  11.060  10.500  13.350
 3626DOPG   C1A65369  10.950  10.060  13.110
 3626DOPG   D2A65370  10.570   9.810  13.230
 3626DOPG   C3A65371  10.190   9.680  13.100
 3626DOPG   C4A65372   9.790   9.570  12.940
 3626DOPG   C1B65373  10.640  10.510  13.290
 3626DOPG   D2B65374  10.300  10.720  13.200
 3626DOPG   C3B65375   9.900  10.580  12.890
 3626DOPG   C4B65376   9.480  10.640  12.860
 3627DOPG   GL065377  22.610  16.070  13.770
 3627DOPG   PO465378  22.570  16.420  13.930
 3627DOPG   GL165379  22.930  16.480  13.960
 3627DOPG   GL265380  22.940  16.520  14.310
 3627DOPG   C1A65381  23.380  16.500  13.970
 3627DOPG   D2A65382  23.660  16.630  14.210
 3627DOPG   C3A65383  24.050  16.410  14.450
 3627DOPG   C4A65384  24.120  16.160  14.780
 3627DOPG   C1B65385  23.230  16.760  14.590
 3627DOPG   D2B65386  23.650  16.540  14.650
 3627DOPG   C3B65387  23.910  16.500  15.050
 3627DOPG   C4B65388  24.320  16.570  15.270
 3628DOPG   GL065389  19.170  17.930  14.040
 3628DOPG   PO465390  18.980  17.920  14.440
 3628DOPG   GL165391  18.810  18.090  14.770
 3628DOPG   GL265392  19.060  18.340  14.980
 3628DOPG   C1A65393  18.550  18.180  15.100
 3628DOPG   D2A65394  18.140  18.230  15.120
 3628DOPG   C3A65395  17.850  18.600  15.250
 3628DOPG   C4A65396  17.720  18.590  15.680
 3628DOPG   C1B65397  19.300  18.410  15.360
 3628DOPG   D2B65398  19.390  18.640  15.790
 3628DOPG   C3B65399  19.640  18.890  15.760
 3628DOPG   C4B65400  19.970  18.900  15.610
 3629DOPG   GL065401  17.740  17.100  11.420
 3629DOPG   PO465402  17.770  16.690  11.490
 3629DOPG   GL165403  17.940  16.650  11.100
 3629DOPG   GL265404  18.230  16.760  10.990
 3629DOPG   C1A65405  17.920  16.450  10.770
 3629DOPG   D2A65406  17.900  16.630  10.310
 3629DOPG   C3A65407  18.100  16.420  10.030
 3629DOPG   C4A65408  18.290  16.070   9.790
 3629DOPG   C1B65409  18.190  17.100  10.610
 3629DOPG   D2B65410  17.850  17.580  10.560
 3629DOPG   C3B65411  17.410  17.750  10.380
 3629DOPG   C4B65412  17.150  18.130  10.510
 3630DOPG   GL065413  12.700  13.580  18.400
 3630DOPG   PO465414  12.980  13.890  18.470
 3630DOPG   GL165415  12.770  13.880  18.910
 3630DOPG   GL265416  12.620  13.640  18.910
 3630DOPG   C1A65417  12.450  14.090  19.150
 3630DOPG   D2A65418  12.080  14.130  19.390
 3630DOPG   C3A65419  12.070  13.930  19.790
 3630DOPG   C4A65420  11.940  13.880  20.210
 3630DOPG   C1B65421  12.880  13.470  19.170
 3630DOPG   D2B65422  13.190  13.540  19.510
 3630DOPG   C3B65423  13.050  13.790  19.950
 3630DOPG   C4B65424  12.950  13.820  20.430
 3631DOPG   GL065425  14.420  26.690  12.950
 3631DOPG   PO465426  14.560  26.860  13.330
 3631DOPG   GL165427  14.900  26.570  13.400
 3631DOPG   GL265428  15.220  26.720  13.480
 3631DOPG   C1A65429  14.860  26.120  13.650
 3631DOPG   D2A65430  15.300  25.830  13.700
 3631DOPG   C3A65431  15.340  25.540  13.310
 3631DOPG   C4A65432  15.310  25.210  12.880
 3631DOPG   C1B65433  15.280  26.280  13.510
 3631DOPG   D2B65434  15.520  26.020  13.340
 3631DOPG   C3B65435  15.820  25.650  13.540
 3631DOPG   C4B65436  15.890  25.290  13.870
 3632DOPG   GL065437  27.530  13.270  16.060
 3632DOPG   PO465438  27.500  13.070  15.720
 3632DOPG   GL165439  27.160  13.210  15.510
 3632DOPG   GL265440  26.970  13.060  15.250
 3632DOPG   C1A65441  26.940  13.510  15.130
 3632DOPG   D2A65442  26.750  13.260  14.720
 3632DOPG   C3A65443  26.400  12.910  14.790
 3632DOPG   C4A65444  25.960  12.660  14.870
 3632DOPG   C1B65445  26.520  13.080  15.240
 3632DOPG   D2B65446  26.110  12.960  15.330
 3632DOPG   C3B65447  25.890  13.120  15.000
 3632DOPG   C4B65448  25.510  13.030  14.760
 3633DOPG   GL065449  11.760   9.620  16.090
 3633DOPG   PO465450  11.680   9.470  15.700
 3633DOPG   GL165451  11.340   9.310  15.960
 3633DOPG   GL265452  11.360   9.430  16.230
 3633DOPG   C1A65453  10.870   9.320  15.820
 3633DOPG   D2A65454  10.460   9.070  15.760
 3633DOPG   C3A65455  10.180   8.740  15.780
 3633DOPG   C4A65456   9.760   8.640  15.770
 3633DOPG   C1B65457  10.930   9.270  16.360
 3633DOPG   D2B65458  10.560   8.980  16.220
 3633DOPG   C3B65459  10.560   8.650  16.600
 3633DOPG   C4B65460  10.370   8.210  16.700
 3634DOPG   GL065461  22.250  13.140   8.410
 3634DOPG   PO465462  22.640  13.240   8.460
 3634DOPG   GL165463  22.730  13.010   8.940
 3634DOPG   GL265464  22.970  13.250   9.070
 3634DOPG   C1A65465  22.460  12.800   9.180
 3634DOPG   D2A65466  22.160  13.010   9.540
 3634DOPG   C3A65467  21.950  13.320   9.580
 3634DOPG   C4A65468  21.730  13.430   9.140
 3634DOPG   C1B65469  22.720  13.210   9.560
 3634DOPG   D2B65470  22.410  13.290   9.820
 3634DOPG   C3B65471  22.250  12.870  10.070
 3634DOPG   C4B65472  22.250  12.780  10.500
 3635DOPG   GL065473  22.490  10.130  18.410
 3635DOPG   PO465474  22.270   9.660  18.380
 3635DOPG   GL165475  22.100   9.930  18.060
 3635DOPG   GL265476  22.460  10.080  17.920
 3635DOPG   C1A65477  22.110  10.130  17.610
 3635DOPG   D2A65478  22.230  10.080  17.230
 3635DOPG   C3A65479  22.250   9.700  17.070
 3635DOPG   C4A65480  22.090   9.360  17.080
 3635DOPG   C1B65481  22.500   9.810  17.490
 3635DOPG   D2B65482  22.570   9.350  17.300
 3635DOPG   C3B65483  22.580   9.370  16.850
 3635DOPG   C4B65484  22.840   9.600  16.400
 3636DOPG   GL065485  22.860  26.380   8.190
 3636DOPG   PO465486  22.930  26.240   8.570
 3636DOPG   GL165487  22.950  25.810   8.370
 3636DOPG   GL265488  23.240  25.790   8.630
 3636DOPG   C1A65489  23.120  25.360   8.250
 3636DOPG   D2A65490  23.110  25.060   8.620
 3636DOPG   C3A65491  22.810  24.980   8.990
 3636DOPG   C4A65492  22.660  24.610   9.020
 3636DOPG   C1B65493  22.930  25.510   8.770
 3636DOPG   D2B65494  22.460  25.320   8.900
 3636DOPG   C3B65495  22.300  25.330   9.290
 3636DOPG   C4B65496  21.910  25.150   9.330
 3637DOPG   GL065497  23.740  12.740  14.200
 3637DOPG   PO465498  24.200  12.970  14.240
 3637DOPG   GL165499  24.600  12.810  14.280
 3637DOPG   GL265500  24.630  12.620  14.550
 3637DOPG   C1A65501  25.060  12.640  14.220
 3637DOPG   D2A65502  25.400  12.620  14.510
 3637DOPG   C3A65503  25.370  12.500  15.010
 3637DOPG   C4A65504  25.590  12.740  15.250
 3637DOPG   C1B65505  24.980  12.880  14.620
 3637DOPG   D2B65506  25.160  13.130  14.340
 3637DOPG   C3B65507  25.490  13.520  14.590
 3637DOPG   C4B65508  25.330  13.870  14.630
 3638DOPG   GL065509  10.040  15.320   5.260
 3638DOPG   PO465510  10.070  15.330   5.700
 3638DOPG   GL165511  10.500  15.310   5.980
 3638DOPG   GL265512  10.470  15.370   6.330
 3638DOPG   C1A65513  10.910  15.270   6.180
 3638DOPG   D2A65514  11.010  15.430   6.450
 3638DOPG   C3A65515  10.860  15.500   6.740
 3638DOPG   C4A65516  10.920  15.350   7.130
 3638DOPG   C1B65517  10.390  15.830   6.420
 3638DOPG   D2B65518  10.660  16.000   6.610
 3638DOPG   C3B65519  11.120  15.930   6.570
 3638DOPG   C4B65520  11.540  15.950   6.670
 3639DOPG   GL065521  10.850  20.270   6.400
 3639DOPG   PO465522  10.960  20.600   6.200
 3639DOPG   GL165523  11.250  20.590   6.580
 3639DOPG   GL265524  11.440  20.790   6.650
 3639DOPG   C1A65525  11.450  20.270   6.880
 3639DOPG   D2A65526  11.630  19.920   7.030
 3639DOPG   C3A65527  11.640  19.590   7.340
 3639DOPG   C4A65528  11.620  19.330   7.650
 3639DOPG   C1B65529  11.910  20.700   6.560
 3639DOPG   D2B65530  12.160  20.500   6.790
 3639DOPG   C3B65531  11.870  20.370   7.160
 3639DOPG   C4B65532  11.590  20.310   7.460
 3640DOPG   GL065533   6.650  11.430  10.860
 3640DOPG   PO465534   7.130  11.580  10.800
 3640DOPG   GL165535   7.460  11.410  11.040
 3640DOPG   GL265536   7.660  11.700  11.200
 3640DOPG   C1A65537   7.850  11.290  11.310
 3640DOPG   D2A65538   8.260  11.040  11.130
 3640DOPG   C3A65539   8.540  11.200  10.810
 3640DOPG   C4A65540   8.690  11.520  10.590
 3640DOPG   C1B65541   7.890  11.920  11.030
 3640DOPG   D2B65542   8.150  11.900  10.610
 3640DOPG   C3B65543   8.330  12.230  10.510
 3640DOPG   C4B65544   8.540  12.670  10.620
 3641DOPG   GL065545   8.740  21.900  16.730
 3641DOPG   PO465546   8.590  21.720  16.370
 3641DOPG   GL165547   9.090  21.590  16.190
 3641DOPG   GL265548   9.450  21.790  16.180
 3641DOPG   C1A65549   9.430  21.280  15.870
 3641DOPG   D2A65550   9.450  20.920  15.630
 3641DOPG   C3A65551   9.640  20.490  15.680
 3641DOPG   C4A65552   9.740  20.360  16.060
 3641DOPG   C1B65553   9.860  21.550  16.230
 3641DOPG   D2B65554  10.260  21.360  16.120
 3641DOPG   C3B65555  10.380  21.140  15.720
 3641DOPG   C4B65556  10.440  20.820  15.280
 3642DOPG   GL065557  16.320  17.460  13.420
 3642DOPG   PO465558  16.210  17.800  13.210
 3642DOPG   GL165559  15.910  18.000  13.030
 3642DOPG   GL265560  15.580  17.960  13.210
 3642DOPG   C1A65561  15.580  18.120  12.770
 3642DOPG   D2A65562  15.620  18.600  12.670
 3642DOPG   C3A65563  15.600  19.050  12.830
 3642DOPG   C4A65564  15.480  19.470  12.590
 3642DOPG   C1B65565  15.360  18.370  13.400
 3642DOPG   D2B65566  15.690  18.630  13.710
 3642DOPG   C3B65567  15.570  19.060  13.500
 3642DOPG   C4B65568  15.560  19.440  13.190
 3643DOPG   GL065569  11.740  15.540  12.770
 3643DOPG   PO465570  12.110  15.610  12.860
 3643DOPG   GL165571  12.470  15.560  12.830
 3643DOPG   GL265572  12.540  15.690  12.610
 3643DOPG   C1A65573  12.920  15.440  12.810
 3643DOPG   D2A65574  13.150  15.270  12.560
 3643DOPG   C3A65575  13.590  15.430  12.780
 3643DOPG   C4A65576  13.980  15.300  12.950
 3643DOPG   C1B65577  12.900  15.960  12.640
 3643DOPG   D2B65578  13.320  16.220  12.800
 3643DOPG   C3B65579  13.600  16.360  13.030
 3643DOPG   C4B65580  13.560  16.520  13.330
 3644DOPG   GL065581  17.050  13.510  13.450
 3644DOPG   PO465582  17.020  13.100  13.360
 3644DOPG   GL165583  16.550  13.170  13.490
 3644DOPG   GL265584  16.480  12.840  13.270
 3644DOPG   C1A65585  16.200  13.210  13.380
 3644DOPG   D2A65586  15.930  12.860  13.170
 3644DOPG   C3A65587  15.930  12.460  13.190
 3644DOPG   C4A65588  15.840  12.130  13.530
 3644DOPG   C1B65589  16.340  12.560  12.900
 3644DOPG   D2B65590  16.380  12.310  12.480
 3644DOPG   C3B65591  16.390  12.550  12.110
 3644DOPG   C4B65592  16.540  12.770  11.920
 3645DOPG   GL065593  20.920   0.590  13.020
 3645DOPG   PO465594  20.740   0.960  13.020
 3645DOPG   GL165595  20.890   1.450  13.230
 3645DOPG   GL265596  21.270   1.380  13.350
 3645DOPG   C1A65597  20.890   1.650  13.620
 3645DOPG   D2A65598  20.930   2.060  13.770
 3645DOPG   C3A65599  20.490   2.250  13.610
 3645DOPG   C4A65600  20.390   2.610  13.400
 3645DOPG   C1B65601  21.380   1.760  13.370
 3645DOPG   D2B65602  21.440   2.100  13.620
 3645DOPG   C3B65603  21.340   2.490  13.430
 3645DOPG   C4B65604  21.080   2.910  13.250
 3646DOPG   GL065605  12.470   8.360  16.990
 3646DOPG   PO465606  12.710   8.050  17.080
 3646DOPG   GL165607  12.730   7.550  17.250
 3646DOPG   GL265608  12.670   7.320  17.060
 3646DOPG   C1A65609  12.890   7.240  17.540
 3646DOPG   D2A65610  12.620   6.900  17.510
 3646DOPG   C3A65611  12.530   6.520  17.680
 3646DOPG   C4A65612  12.860   6.100  17.620
 3646DOPG   C1B65613  12.320   6.940  17.080
 3646DOPG   D2B65614  12.160   6.560  17.360
 3646DOPG   C3B65615  11.940   6.180  17.100
 3646DOPG   C4B65616  11.960   5.760  16.920
 3647DOPG   GL065617  18.170  18.880   8.200
 3647DOPG   PO465618  18.430  18.530   8.470
 3647DOPG   GL165619  18.650  18.250   8.680
 3647DOPG   GL265620  18.490  18.000   8.830
 3647DOPG   C1A65621  19.010  18.100   8.870
 3647DOPG   D2A65622  19.220  17.920   9.280
 3647DOPG   C3A65623  19.570  17.930   9.680
 3647DOPG   C4A65624  19.720  17.940  10.120
 3647DOPG   C1B65625  18.160  17.940   9.220
 3647DOPG   D2B65626  18.290  17.670   9.500
 3647DOPG   C3B65627  18.030  17.450   9.850
 3647DOPG   C4B65628  17.980  17.060  10.020
 3648DOPG   GL065629  17.660  18.060  14.130
 3648DOPG   PO465630  17.520  17.680  14.160
 3648DOPG   GL165631  17.390  17.920  14.540
 3648DOPG   GL265632  17.460  17.880  14.900
 3648DOPG   C1A65633  17.190  18.250  14.730
 3648DOPG   D2A65634  17.270  18.580  14.980
 3648DOPG   C3A65635  17.350  18.490  15.420
 3648DOPG   C4A65636  17.340  18.240  15.720
 3648DOPG   C1B65637  17.590  18.110  15.280
 3648DOPG   D2B65638  17.830  18.120  15.800
 3648DOPG   C3B65639  18.070  17.930  16.110
 3648DOPG   C4B65640  17.970  17.600  16.280
 3649DOPG   GL065641  20.650  21.950  15.780
 3649DOPG   PO465642  20.310  22.140  15.600
 3649DOPG   GL165643  20.320  21.780  15.440
 3649DOPG   GL265644  20.020  21.810  15.370
 3649DOPG   C1A65645  20.230  21.330  15.120
 3649DOPG   D2A65646  19.900  21.060  15.070
 3649DOPG   C3A65647  19.460  21.120  15.230
 3649DOPG   C4A65648  19.040  21.150  15.140
 3649DOPG   C1B65649  19.820  21.460  15.420
 3649DOPG   D2B65650  19.900  21.170  15.680
 3649DOPG   C3B65651  20.090  20.820  15.500
 3649DOPG   C4B65652  19.990  20.310  15.580
 3650DOPG   GL065653  20.610  11.550  15.090
 3650DOPG   PO465654  21.060  11.600  15.140
 3650DOPG   GL165655  21.150  11.320  15.500
 3650DOPG   GL265656  20.910  11.040  15.630
 3650DOPG   C1A65657  21.200  11.200  15.960
 3650DOPG   D2A65658  21.360  11.060  16.320
 3650DOPG   C3A65659  21.270  10.820  16.640
 3650DOPG   C4A65660  21.490  10.750  17.040
 3650DOPG   C1B65661  20.640  10.690  15.730
 3650DOPG   D2B65662  20.620  10.240  15.670
 3650DOPG   C3B65663  20.140  10.230  15.770
 3650DOPG   C4B65664  20.010  10.630  16.070
 3651DOPG   GL065665  18.240  15.710  15.370
 3651DOPG   PO465666  18.430  15.270  15.310
 3651DOPG   GL165667  18.520  15.300  15.680
 3651DOPG   GL265668  18.610  15.640  15.710
 3651DOPG   C1A65669  18.690  15.350  16.090
 3651DOPG   D2A65670  18.660  15.710  16.350
 3651DOPG   C3A65671  18.480  15.690  16.770
 3651DOPG   C4A65672  18.290  15.740  17.120
 3651DOPG   C1B65673  18.660  16.000  15.950
 3651DOPG   D2B65674  18.840  16.300  15.850
 3651DOPG   C3B65675  19.290  16.570  15.920
 3651DOPG   C4B65676  19.670  16.680  16.170
 3652DOPG   GL065677  22.250  13.400  14.670
 3652DOPG   PO465678  22.660  13.380  14.840
 3652DOPG   GL165679  22.790  13.360  15.240
 3652DOPG   GL265680  22.980  13.530  15.190
 3652DOPG   C1A65681  22.850  13.460  15.730
 3652DOPG   D2A65682  23.210  13.490  16.010
 3652DOPG   C3A65683  23.440  13.870  16.160
 3652DOPG   C4A65684  23.350  14.300  16.020
 3652DOPG   C1B65685  23.170  13.780  15.500
 3652DOPG   D2B65686  23.010  13.960  15.830
 3652DOPG   C3B65687  22.860  13.920  16.270
 3652DOPG   C4B65688  22.860  13.940  16.720
 3653DOPG   GL065689  20.400  10.310  13.000
 3653DOPG   PO465690  20.640   9.970  13.010
 3653DOPG   GL165691  20.410   9.800  12.800
 3653DOPG   GL265692  20.500   9.510  12.930
 3653DOPG   C1A65693  20.070   9.700  12.550
 3653DOPG   D2A65694  20.070   9.280  12.640
 3653DOPG   C3A65695  20.150   9.140  13.040
 3653DOPG   C4A65696  20.290   8.900  13.160
 3653DOPG   C1B65697  20.660   9.160  12.650
 3653DOPG   D2B65698  21.050   9.220  12.280
 3653DOPG   C3B65699  21.480   9.410  12.280
 3653DOPG   C4B65700  21.870   9.710  12.380
 3654DOPG   GL065701  20.250  11.240  12.670
 3654DOPG   PO465702  19.810  11.370  12.520
 3654DOPG   GL165703  19.410  11.320  12.260
 3654DOPG   GL265704  19.450  10.970  12.300
 3654DOPG   C1A65705  19.160  11.120  11.880
 3654DOPG   D2A65706  18.800  10.970  11.670
 3654DOPG   C3A65707  18.810  10.620  11.450
 3654DOPG   C4A65708  18.400  10.440  11.240
 3654DOPG   C1B65709  19.330  10.600  12.120
 3654DOPG   D2B65710  19.090  10.490  11.820
 3654DOPG   C3B65711  19.320  10.820  11.470
 3654DOPG   C4B65712  19.690  11.190  11.420
 3655DOPG   GL065713  19.400  14.350   7.620
 3655DOPG   PO465714  19.460  14.610   7.940
 3655DOPG   GL165715  19.380  14.830   8.480
 3655DOPG   GL265716  19.060  15.070   8.440
 3655DOPG   C1A65717  19.370  15.090   8.830
 3655DOPG   D2A65718  19.230  15.320   9.090
 3655DOPG   C3A65719  19.380  15.430   9.530
 3655DOPG   C4A65720  19.570  15.310   9.910
 3655DOPG   C1B65721  18.660  15.090   8.450
 3655DOPG   D2B65722  18.210  15.020   8.320
 3655DOPG   C3B65723  17.970  14.780   8.710
 3655DOPG   C4B65724  17.950  14.570   9.010
 3656DOPG   GL065725  16.770  18.190  13.060
 3656DOPG   PO465726  16.450  18.000  12.830
 3656DOPG   GL165727  16.080  18.140  12.510
 3656DOPG   GL265728  16.050  18.350  12.710
 3656DOPG   C1A65729  15.850  18.400  12.230
 3656DOPG   D2A65730  15.380  18.590  12.200
 3656DOPG   C3A65731  15.520  19.060  12.210
 3656DOPG   C4A65732  15.280  19.390  12.170
 3656DOPG   C1B65733  16.060  18.820  12.710
 3656DOPG   D2B65734  15.950  19.220  12.440
 3656DOPG   C3B65735  16.100  19.300  12.050
 3656DOPG   C4B65736  16.310  19.100  11.680
 3657DOPG   GL065737  11.890  16.910  14.490
 3657DOPG   PO465738  11.560  16.800  14.230
 3657DOPG   GL165739  12.020  16.520  14.240
 3657DOPG   GL265740  12.200  16.350  13.890
 3657DOPG   C1A65741  12.470  16.730  14.150
 3657DOPG   D2A65742  12.870  16.760  13.990
 3657DOPG   C3A65743  12.950  16.850  13.560
 3657DOPG   C4A65744  12.610  16.770  13.210
 3657DOPG   C1B65745  12.250  16.690  13.640
 3657DOPG   D2B65746  12.360  17.050  13.760
 3657DOPG   C3B65747  12.590  17.250  13.520
 3657DOPG   C4B65748  12.660  17.660  13.500
 3658DOPG   GL065749  16.720  21.260   3.880
 3658DOPG   PO465750  16.340  20.930   4.040
 3658DOPG   GL165751  16.400  20.800   4.410
 3658DOPG   GL265752  16.200  20.690   4.510
 3658DOPG   C1A65753  16.730  20.800   4.730
 3658DOPG   D2A65754  17.050  20.570   4.920
 3658DOPG   C3A65755  17.500  20.520   5.220
 3658DOPG   C4A65756  17.700  20.330   5.460
 3658DOPG   C1B65757  16.340  20.480   4.870
 3658DOPG   D2B65758  16.480  20.300   5.190
 3658DOPG   C3B65759  16.590  19.860   5.220
 3658DOPG   C4B65760  16.620  19.540   4.980
 3659DOPG   GL065761  16.550  18.740  12.930
 3659DOPG   PO465762  17.000  18.610  13.160
 3659DOPG   GL165763  16.890  18.500  12.680
 3659DOPG   GL265764  17.060  18.200  12.510
 3659DOPG   C1A65765  16.970  18.790  12.330
 3659DOPG   D2A65766  17.200  19.200  12.250
 3659DOPG   C3A65767  17.570  19.450  12.150
 3659DOPG   C4A65768  17.740  19.900  12.120
 3659DOPG   C1B65769  16.800  18.370  12.180
 3659DOPG   D2B65770  16.590  18.690  11.980
 3659DOPG   C3B65771  16.150  18.840  12.090
 3659DOPG   C4B65772  15.860  18.860  11.830
 3660DOPG   GL065773  18.140   6.680  11.650
 3660DOPG   PO465774  18.100   6.780  12.130
 3660DOPG   GL165775  18.160   7.240  12.160
 3660DOPG   GL265776  18.490   7.230  12.350
 3660DOPG   C1A65777  18.120   7.690  12.070
 3660DOPG   D2A65778  18.120   8.030  12.330
 3660DOPG   C3A65779  18.470   8.050  12.590
 3660DOPG   C4A65780  18.730   8.030  12.850
 3660DOPG   C1B65781  18.590   7.620  12.310
 3660DOPG   D2B65782  18.910   7.970  12.390
 3660DOPG   C3B65783  18.930   8.340  12.100
 3660DOPG   C4B65784  18.880   8.780  11.950
 3661DOPG   GL065785  21.280  15.500  15.110
 3661DOPG   PO465786  21.280  15.140  15.340
 3661DOPG   GL165787  21.340  15.160  15.730
 3661DOPG   GL265788  21.610  15.300  15.860
 3661DOPG   C1A65789  21.250  15.070  16.130
 3661DOPG   D2A65790  21.350  15.210  16.510
 3661DOPG   C3A65791  21.020  15.540  16.700
 3661DOPG   C4A65792  20.670  15.720  16.500
 3661DOPG   C1B65793  21.420  15.630  16.130
 3661DOPG   D2B65794  21.360  15.840  16.490
 3661DOPG   C3B65795  21.650  15.900  16.890
 3661DOPG   C4B65796  21.700  15.880  17.290
 3662DOPG   GL065797  16.750   6.910  17.980
 3662DOPG   PO465798  16.850   6.950  18.350
 3662DOPG   GL165799  16.630   6.690  18.820
 3662DOPG   GL265800  16.780   6.500  19.010
 3662DOPG   C1A65801  16.340   6.760  19.040
 3662DOPG   D2A65802  15.880   6.600  19.150
 3662DOPG   C3A65803  15.900   6.260  19.390
 3662DOPG   C4A65804  16.130   5.980  19.590
 3662DOPG   C1B65805  16.990   6.090  19.050
 3662DOPG   D2B65806  17.030   5.720  19.260
 3662DOPG   C3B65807  17.040   5.710  19.630
 3662DOPG   C4B65808  16.870   5.350  19.970
 3663DOPG   GL065809  25.950   4.480   7.580
 3663DOPG   PO465810  25.530   4.460   7.750
 3663DOPG   GL165811  25.290   4.820   7.810
 3663DOPG   GL265812  24.960   4.770   7.800
 3663DOPG   C1A65813  25.080   5.160   8.070
 3663DOPG   D2A65814  24.910   5.470   8.220
 3663DOPG   C3A65815  24.980   5.870   8.540
 3663DOPG   C4A65816  25.100   6.080   8.910
 3663DOPG   C1B65817  24.650   4.730   8.080
 3663DOPG   D2B65818  24.250   4.620   8.190
 3663DOPG   C3B65819  23.820   4.520   8.310
 3663DOPG   C4B65820  23.430   4.760   8.260
 3664DOPG   GL065821  20.950  18.170  13.500
 3664DOPG   PO465822  21.250  18.330  13.230
 3664DOPG   GL165823  21.560  18.580  13.300
 3664DOPG   GL265824  21.770  18.310  13.330
 3664DOPG   C1A65825  21.950  18.920  13.340
 3664DOPG   D2A65826  22.310  19.110  13.190
 3664DOPG   C3A65827  22.550  18.880  12.960
 3664DOPG   C4A65828  22.880  18.650  12.970
 3664DOPG   C1B65829  22.020  18.510  13.050
 3664DOPG   D2B65830  22.120  18.950  12.750
 3664DOPG   C3B65831  21.830  19.080  12.400
 3664DOPG   C4B65832  21.920  19.550  12.420
 3665DOPG   GL065833  22.170  13.670   8.320
 3665DOPG   PO465834  22.070  14.050   8.260
 3665DOPG   GL165835  22.010  14.110   8.660
 3665DOPG   GL265836  21.790  13.780   8.740
 3665DOPG   C1A65837  21.820  14.190   9.050
 3665DOPG   D2A65838  21.680  14.300   9.380
 3665DOPG   C3A65839  21.470  14.250   9.760
 3665DOPG   C4A65840  21.250  14.140  10.210
 3665DOPG   C1B65841  22.000  13.470   8.710
 3665DOPG   D2B65842  22.490  13.590   8.750
 3665DOPG   C3B65843  22.500  14.040   8.830
 3665DOPG   C4B65844  22.270  14.400   9.020
 3666DOPG   GL065845  10.280  14.310  14.230
 3666DOPG   PO465846   9.920  14.370  13.960
 3666DOPG   GL165847   9.510  14.550  14.090
 3666DOPG   GL265848   9.330  14.460  14.520
 3666DOPG   C1A65849   9.120  14.610  13.950
 3666DOPG   D2A65850   8.820  14.740  14.010
 3666DOPG   C3A65851   8.740  15.050  14.170
 3666DOPG   C4A65852   8.410  15.330  14.360
 3666DOPG   C1B65853   9.230  14.190  14.250
 3666DOPG   D2B65854   8.970  14.100  14.000
 3666DOPG   C3B65855   8.600  14.300  13.910
 3666DOPG   C4B65856   8.350  14.660  13.810
 3667DOPG   GL065857  24.440  18.320  17.090
 3667DOPG   PO465858  24.250  18.620  16.800
 3667DOPG   GL165859  24.030  18.560  16.390
 3667DOPG   GL265860  24.090  18.750  16.110
 3667DOPG   C1A65861  23.730  18.260  16.140
 3667DOPG   D2A65862  23.520  17.920  15.850
 3667DOPG   C3A65863  23.620  17.690  15.610
 3667DOPG   C4A65864  23.550  17.490  15.210
 3667DOPG   C1B65865  23.580  18.690  16.240
 3667DOPG   D2B65866  23.200  18.630  15.860
 3667DOPG   C3B65867  23.120  18.230  15.750
 3667DOPG   C4B65868  23.090  18.020  15.350
 3668DOPG   GL065869  11.830  11.340  12.360
 3668DOPG   PO465870  11.330  11.280  12.280
 3668DOPG   GL165871  11.130  11.080  12.040
 3668DOPG   GL265872  11.400  11.170  11.820
 3668DOPG   C1A65873  10.930  10.760  11.760
 3668DOPG   D2A65874  10.830  10.570  11.490
 3668DOPG   C3A65875  10.810  10.820  11.080
 3668DOPG   C4A65876  10.720  10.720  10.690
 3668DOPG   C1B65877  11.220  11.000  11.380
 3668DOPG   D2B65878  11.070  11.250  11.060
 3668DOPG   C3B65879  10.720  11.360  10.940
 3668DOPG   C4B65880  10.440  11.190  10.560
 3669DOPG   GL065881  12.010  16.520  17.230
 3669DOPG   PO465882  11.650  16.460  17.110
 3669DOPG   GL165883  11.450  16.580  17.550
 3669DOPG   GL265884  11.270  16.910  17.450
 3669DOPG   C1A65885  11.370  16.890  17.940
 3669DOPG   D2A65886  11.310  17.210  18.280
 3669DOPG   C3A65887  10.810  17.380  18.200
 3669DOPG   C4A65888  10.420  17.570  18.070
 3669DOPG   C1B65889  11.010  17.260  17.350
 3669DOPG   D2B65890  10.740  17.470  17.090
 3669DOPG   C3B65891  10.420  17.760  17.190
 3669DOPG   C4B65892  10.260  18.150  17.210
 3670DOPG   GL065893  17.400  16.230  12.270
 3670DOPG   PO465894  17.250  16.630  12.240
 3670DOPG   GL165895  16.800  16.780  11.890
 3670DOPG   GL265896  16.650  16.470  11.820
 3670DOPG   C1A65897  16.550  16.890  11.470
 3670DOPG   D2A65898  16.660  17.030  11.130
 3670DOPG   C3A65899  16.300  16.880  10.820
 3670DOPG   C4A65900  16.080  17.200  10.680
 3670DOPG   C1B65901  16.200  16.540  11.500
 3670DOPG   D2B65902  15.940  16.730  11.160
 3670DOPG   C3B65903  15.640  16.780  11.060
 3670DOPG   C4B65904  15.250  16.710  11.090
 3671DOPG   GL065905  21.990  11.830  12.700
 3671DOPG   PO465906  21.570  11.870  12.540
 3671DOPG   GL165907  21.690  11.660  12.180
 3671DOPG   GL265908  21.970  11.750  12.040
 3671DOPG   C1A65909  21.540  11.660  11.780
 3671DOPG   D2A65910  21.760  11.690  11.380
 3671DOPG   C3A65911  22.000  11.280  11.240
 3671DOPG   C4A65912  22.380  11.140  11.320
 3671DOPG   C1B65913  22.040  11.530  11.710
 3671DOPG   D2B65914  22.230  11.710  11.270
 3671DOPG   C3B65915  22.170  11.880  10.890
 3671DOPG   C4B65916  22.110  12.290  10.710
 3672DOPG   GL065917  22.930   8.740  19.840
 3672DOPG   PO465918  22.610   8.980  19.920
 3672DOPG   GL165919  22.780   9.120  20.230
 3672DOPG   GL265920  23.010   9.150  20.290
 3672DOPG   C1A65921  22.900   8.770  20.650
 3672DOPG   D2A65922  23.220   8.570  20.960
 3672DOPG   C3A65923  22.970   8.320  21.280
 3672DOPG   C4A65924  22.750   8.360  21.620
 3672DOPG   C1B65925  23.180   9.160  20.760
 3672DOPG   D2B65926  23.070   9.220  21.150
 3672DOPG   C3B65927  23.370   9.050  21.380
 3672DOPG   C4B65928  23.400   8.640  21.460
 3673DOPG   GL065929  15.650  21.340  16.340
 3673DOPG   PO465930  15.370  21.720  16.410
 3673DOPG   GL165931  15.270  22.150  16.460
 3673DOPG   GL265932  15.340  22.290  16.670
 3673DOPG   C1A65933  14.990  22.510  16.450
 3673DOPG   D2A65934  14.940  22.870  16.700
 3673DOPG   C3A65935  14.630  23.220  16.420
 3673DOPG   C4A65936  14.540  23.310  16.040
 3673DOPG   C1B65937  15.180  22.550  16.990
 3673DOPG   D2B65938  15.260  22.710  17.340
 3673DOPG   C3B65939  15.040  23.010  17.230
 3673DOPG   C4B65940  14.680  23.200  17.010
 3674DOPG   GL065941  19.620  12.320  12.060
 3674DOPG   PO465942  19.780  12.180  12.430
 3674DOPG   GL165943  19.930  11.950  12.080
 3674DOPG   GL265944  19.770  11.620  11.990
 3674DOPG   C1A65945  20.160  11.910  11.720
 3674DOPG   D2A65946  20.370  11.740  11.310
 3674DOPG   C3A65947  20.450  11.970  10.950
 3674DOPG   C4A65948  20.560  12.390  10.670
 3674DOPG   C1B65949  19.510  11.540  11.740
 3674DOPG   D2B65950  19.200  11.320  11.350
 3674DOPG   C3B65951  19.470  11.100  10.950
 3674DOPG   C4B65952  19.410  10.550  10.890
 3675DOPG   GL065953  14.360   1.730  16.140
 3675DOPG   PO465954  14.010   1.820  16.390
 3675DOPG   GL165955  14.110   2.250  16.480
 3675DOPG   GL265956  13.800   2.270  16.610
 3675DOPG   C1A65957  14.470   2.460  16.500
 3675DOPG   D2A65958  14.770   2.560  16.810
 3675DOPG   C3A65959  14.860   2.970  16.790
 3675DOPG   C4A65960  14.970   3.300  16.480
 3675DOPG   C1B65961  14.010   2.690  16.500
 3675DOPG   D2B65962  14.320   2.950  16.720
 3675DOPG   C3B65963  14.150   3.210  17.090
 3675DOPG   C4B65964  13.920   3.610  17.060
 3676DOPG   GL065965  29.180  18.420   6.550
 3676DOPG   PO465966  28.850  18.400   7.030
 3676DOPG   GL165967  28.690  18.510   7.460
 3676DOPG   GL265968  28.750  18.590   7.770
 3676DOPG   C1A65969  28.370  18.350   7.650
 3676DOPG   D2A65970  28.040  18.080   7.580
 3676DOPG   C3A65971  27.970  17.820   7.970
 3676DOPG   C4A65972  28.000  17.950   8.490
 3676DOPG   C1B65973  28.440  18.900   7.670
 3676DOPG   D2B65974  28.120  18.640   7.320
 3676DOPG   C3B65975  27.750  18.510   7.500
 3676DOPG   C4B65976  27.320  18.550   7.320
 3677DOPG   GL065977  23.030  18.020  18.180
 3677DOPG   PO465978  22.650  18.260  18.540
 3677DOPG   GL165979  22.500  18.220  18.040
 3677DOPG   GL265980  22.250  18.450  17.840
 3677DOPG   C1A65981  22.630  18.440  17.570
 3677DOPG   D2A65982  22.710  18.550  17.270
 3677DOPG   C3A65983  22.440  18.410  16.960
 3677DOPG   C4A65984  22.090  18.180  16.820
 3677DOPG   C1B65985  21.880  18.620  17.690
 3677DOPG   D2B65986  21.690  18.830  17.370
 3677DOPG   C3B65987  21.530  18.490  16.990
 3677DOPG   C4B65988  21.290  18.380  16.660
 3678DOPG   GL065989  23.060   6.460  11.760
 3678DOPG   PO465990  22.690   6.040  11.820
 3678DOPG   GL165991  22.870   5.600  11.710
 3678DOPG   GL265992  22.600   5.500  11.840
 3678DOPG   C1A65993  22.890   5.220  11.540
 3678DOPG   D2A65994  22.930   4.810  11.420
 3678DOPG   C3A65995  23.330   4.600  11.360
 3678DOPG   C4A65996  23.370   4.190  11.380
 3678DOPG   C1B65997  22.430   5.020  11.690
 3678DOPG   D2B65998  22.530   4.680  11.740
 3678DOPG   C3B65999  22.440   4.210  11.760
 3678DOPG   C4B66000  22.340   3.900  11.440
 3679DOPG   GL066001  13.900  12.580   8.670
 3679DOPG   PO466002  14.180  12.860   8.400
 3679DOPG   GL166003  13.940  12.600   8.170
 3679DOPG   GL266004  13.920  12.870   7.950
 3679DOPG   C1A66005  13.550  12.440   8.100
 3679DOPG   D2A66006  13.120  12.490   7.850
 3679DOPG   C3A66007  12.700  12.790   7.750
 3679DOPG   C4A66008  12.260  12.820   7.660
 3679DOPG   C1B66009  13.640  12.680   7.690
 3679DOPG   D2B66010  13.110  12.760   7.400
 3679DOPG   C3B66011  12.830  12.530   7.360
 3679DOPG   C4B66012  12.380  12.410   7.250
 3680DOPG   GL066013  13.920   9.070  18.670
 3680DOPG   PO466014  13.700   8.850  18.880
 3680DOPG   GL166015  13.460   8.600  19.150
 3680DOPG   GL266016  13.480   8.380  18.930
 3680DOPG   C1A66017  13.400   8.360  19.460
 3680DOPG   D2A66018  13.300   7.960  19.510
 3680DOPG   C3A66019  13.090   7.850  19.860
 3680DOPG   C4A66020  12.640   7.970  19.780
 3680DOPG   C1B66021  13.130   8.070  19.030
 3680DOPG   D2B66022  12.800   8.090  19.310
 3680DOPG   C3B66023  12.500   8.410  19.560
 3680DOPG   C4B66024  12.320   8.770  19.630
 3681DOPG   GL066025  21.980  22.710  13.390
 3681DOPG   PO466026  22.140  23.010  13.310
 3681DOPG   GL166027  22.200  23.440  13.190
 3681DOPG   GL266028  22.010  23.580  13.370
 3681DOPG   C1A66029  22.550  23.750  13.030
 3681DOPG   D2A66030  22.960  23.860  12.890
 3681DOPG   C3A66031  23.100  24.230  13.060
 3681DOPG   C4A66032  23.070  24.540  12.950
 3681DOPG   C1B66033  22.360  23.860  13.480
 3681DOPG   D2B66034  22.650  24.170  13.280
 3681DOPG   C3B66035  22.460  24.270  12.990
 3681DOPG   C4B66036  22.230  24.380  12.730
 3682DOPG   GL066037   6.610  13.990  11.840
 3682DOPG   PO466038   6.530  13.840  11.520
 3682DOPG   GL166039   6.920  14.010  11.290
 3682DOPG   GL266040   6.950  14.260  11.550
 3682DOPG   C1A66041   7.310  14.080  11.040
 3682DOPG   D2A66042   7.650  13.800  10.950
 3682DOPG   C3A66043   8.110  13.910  10.920
 3682DOPG   C4A66044   8.440  14.050  11.160
 3682DOPG   C1B66045   7.330  14.490  11.310
 3682DOPG   D2B66046   7.620  14.760  11.160
 3682DOPG   C3B66047   7.940  14.860  10.810
 3682DOPG   C4B66048   8.360  14.870  10.560
 3683DOPG   GL066049  19.350  18.000  12.090
 3683DOPG   PO466050  19.300  18.290  11.870
 3683DOPG   GL166051  19.450  18.470  11.510
 3683DOPG   GL266052  19.740  18.490  11.370
 3683DOPG   C1A66053  19.350  18.800  11.320
 3683DOPG   D2A66054  19.070  19.240  11.290
 3683DOPG   C3A66055  18.820  19.420  10.920
 3683DOPG   C4A66056  18.690  19.830  10.830
 3683DOPG   C1B66057  19.880  18.420  10.970
 3683DOPG   D2B66058  19.920  18.330  10.510
 3683DOPG   C3B66059  20.420  18.340  10.470
 3683DOPG   C4B66060  20.670  18.470  10.080
 3684DOPG   GL066061  17.660  14.850  19.100
 3684DOPG   PO466062  17.490  14.660  18.640
 3684DOPG   GL166063  17.310  14.640  18.180
 3684DOPG   GL266064  17.460  14.480  17.960
 3684DOPG   C1A66065  17.200  14.990  18.010
 3684DOPG   D2A66066  17.250  15.130  17.690
 3684DOPG   C3A66067  17.500  15.290  17.270
 3684DOPG   C4A66068  17.560  15.290  16.770
 3684DOPG   C1B66069  17.900  14.280  17.850
 3684DOPG   D2B66070  18.220  14.190  17.590
 3684DOPG   C3B66071  18.150  14.360  17.190
 3684DOPG   C4B66072  18.050  14.430  16.810
 3685DOPG   GL066073  10.950  17.400  15.280
 3685DOPG   PO466074  10.850  17.550  14.900
 3685DOPG   GL166075  10.370  17.430  14.970
 3685DOPG   GL266076  10.330  17.330  15.290
 3685DOPG   C1A66077  10.090  17.740  14.810
 3685DOPG   D2A66078  10.060  17.860  14.440
 3685DOPG   C3A66079   9.650  17.890  14.170
 3685DOPG   C4A66080   9.410  17.520  14.180
 3685DOPG   C1B66081   9.970  17.650  15.340
 3685DOPG   D2B66082   9.690  17.770  15.550
 3685DOPG   C3B66083   9.300  17.890  15.430
 3685DOPG   C4B66084   8.980  17.660  15.370
 3686DOPG   GL066085  14.800  12.200   8.390
 3686DOPG   PO466086  14.410  12.360   8.510
 3686DOPG   GL166087  14.300  12.110   8.190
 3686DOPG   GL266088  14.540  12.090   8.000
 3686DOPG   C1A66089  14.090  11.760   7.900
 3686DOPG   D2A66090  14.030  11.320   7.640
 3686DOPG   C3A66091  13.790  11.030   7.490
 3686DOPG   C4A66092  13.490  10.900   7.120
 3686DOPG   C1B66093  14.500  12.010   7.510
 3686DOPG   D2B66094  14.090  11.920   7.370
 3686DOPG   C3B66095  13.840  11.520   7.220
 3686DOPG   C4B66096  13.440  11.390   6.940
 3687DOPG   GL066097  20.240   8.100  10.050
 3687DOPG   PO466098  20.010   8.130  10.520
 3687DOPG   GL166099  20.350   8.520  10.670
 3687DOPG   GL266100  20.350   8.410  10.980
 3687DOPG   C1A66101  20.490   8.830  10.770
 3687DOPG   D2A66102  20.630   9.080  11.050
 3687DOPG   C3A66103  20.460   9.460  11.090
 3687DOPG   C4A66104  20.590   9.850  11.120
 3687DOPG   C1B66105  20.340   8.750  11.290
 3687DOPG   D2B66106  19.960   8.720  11.440
 3687DOPG   C3B66107  19.730   9.120  11.690
 3687DOPG   C4B66108  19.690   9.080  12.150
 3688DOPG   GL066109  16.910   7.630  11.930
 3688DOPG   PO466110  17.200   7.680  12.200
 3688DOPG   GL166111  17.600   7.890  12.400
 3688DOPG   GL266112  17.590   8.050  12.700
 3688DOPG   C1A66113  17.710   8.400  12.370
 3688DOPG   D2A66114  17.850   8.860  12.300
 3688DOPG   C3A66115  18.270   9.040  12.330
 3688DOPG   C4A66116  18.570   9.160  11.940
 3688DOPG   C1B66117  17.300   8.420  12.830
 3688DOPG   D2B66118  17.060   8.780  12.990
 3688DOPG   C3B66119  17.130   8.960  13.340
 3688DOPG   C4B66120  17.170   9.310  13.470
 3689DOPG   GL066121  17.810  15.030  11.490
 3689DOPG   PO466122  17.360  14.940  11.590
 3689DOPG   GL166123  17.490  14.620  11.510
 3689DOPG   GL266124  17.330  14.440  11.380
 3689DOPG   C1A66125  17.740  14.640  11.190
 3689DOPG   D2A66126  17.690  14.520  10.770
 3689DOPG   C3A66127  17.620  14.600  10.320
 3689DOPG   C4A66128  17.320  14.390  10.030
 3689DOPG   C1B66129  17.270  14.250  11.050
 3689DOPG   D2B66130  17.430  14.040  10.670
 3689DOPG   C3B66131  17.720  13.750  10.700
 3689DOPG   C4B66132  18.060  13.560  10.780
 3690DOPG   GL066133  19.130  23.290  14.640
 3690DOPG   PO466134  19.170  23.780  14.640
 3690DOPG   GL166135  18.850  24.170  14.550
 3690DOPG   GL266136  18.920  24.450  14.470
 3690DOPG   C1A66137  18.710  24.350  14.980
 3690DOPG   D2A66138  18.840  24.800  15.090
 3690DOPG   C3A66139  18.690  25.270  15.010
 3690DOPG   C4A66140  18.670  25.670  14.710
 3690DOPG   C1B66141  19.090  24.840  14.490
 3690DOPG   D2B66142  19.000  25.260  14.450
 3690DOPG   C3B66143  19.150  25.510  14.750
 3690DOPG   C4B66144  19.460  25.530  14.960
 3691DOPG   GL066145  17.880  15.000  15.220
 3691DOPG   PO466146  17.880  15.440  15.120
 3691DOPG   GL166147  17.930  15.380  15.560
 3691DOPG   GL266148  17.650  15.480  15.740
 3691DOPG   C1A66149  18.110  15.250  15.990
 3691DOPG   D2A66150  18.250  15.360  16.360
 3691DOPG   C3A66151  18.070  15.630  16.560
 3691DOPG   C4A66152  17.690  15.800  16.500
 3691DOPG   C1B66153  17.940  15.700  16.010
 3691DOPG   D2B66154  18.260  15.800  16.090
 3691DOPG   C3B66155  18.240  16.020  16.410
 3691DOPG   C4B66156  18.130  16.170  16.760
 3692DOPG   GL066157  19.720  13.790  15.700
 3692DOPG   PO466158  19.980  14.210  15.640
 3692DOPG   GL166159  19.940  14.090  16.050
 3692DOPG   GL266160  20.090  14.390  16.110
 3692DOPG   C1A66161  19.680  14.160  16.360
 3692DOPG   D2A66162  19.160  14.250  16.360
 3692DOPG   C3A66163  18.820  13.940  16.090
 3692DOPG   C4A66164  18.820  13.950  15.600
 3692DOPG   C1B66165  20.040  14.570  16.470
 3692DOPG   D2B66166  20.300  14.780  16.800
 3692DOPG   C3B66167  20.660  14.470  17.030
 3692DOPG   C4B66168  21.100  14.260  16.920
 3693DOPG   GL066169  18.710  10.760   3.630
 3693DOPG   PO466170  18.910  10.430   3.840
 3693DOPG   GL166171  18.880  10.860   4.120
 3693DOPG   GL266172  19.180  11.030   4.190
 3693DOPG   C1A66173  18.780  11.190   4.510
 3693DOPG   D2A66174  19.080  11.080   4.990
 3693DOPG   C3A66175  19.010  10.810   5.300
 3693DOPG   C4A66176  18.670  10.780   5.650
 3693DOPG   C1B66177  19.060  10.740   4.540
 3693DOPG   D2B66178  19.030  10.520   4.900
 3693DOPG   C3B66179  19.200  10.080   4.850
 3693DOPG   C4B66180  19.490   9.930   4.670
 3694DOPG   GL066181  16.580  14.640  13.120
 3694DOPG   PO466182  16.360  14.120  13.120
 3694DOPG   GL166183  16.060  13.940  12.810
 3694DOPG   GL266184  16.160  14.110  12.520
 3694DOPG   C1A66185  15.830  13.640  12.520
 3694DOPG   D2A66186  15.470  13.390  12.340
 3694DOPG   C3A66187  15.070  13.360  12.610
 3694DOPG   C4A66188  15.060  13.190  13.110
 3694DOPG   C1B66189  15.770  14.010  12.270
 3694DOPG   D2B66190  15.640  13.780  11.990
 3694DOPG   C3B66191  15.250  13.890  11.730
 3694DOPG   C4B66192  15.040  14.250  11.340
 3695DOPG   GL066193  16.710  17.590  13.090
 3695DOPG   PO466194  16.320  17.450  12.830
 3695DOPG   GL166195  15.940  17.660  12.690
 3695DOPG   GL266196  15.620  17.520  12.720
 3695DOPG   C1A66197  15.670  17.920  12.380
 3695DOPG   D2A66198  15.150  18.220  12.410
 3695DOPG   C3A66199  14.860  18.140  12.150
 3695DOPG   C4A66200  14.870  17.640  12.310
 3695DOPG   C1B66201  15.210  17.780  12.770
 3695DOPG   D2B66202  15.010  18.130  12.950
 3695DOPG   C3B66203  15.150  18.560  12.880
 3695DOPG   C4B66204  15.180  18.900  12.570
 3696DOPG   GL066205  20.350  13.910  14.830
 3696DOPG   PO466206  20.450  13.860  15.250
 3696DOPG   GL166207  20.350  13.810  15.670
 3696DOPG   GL266208  20.690  13.700  15.830
 3696DOPG   C1A66209  20.330  13.840  16.110
 3696DOPG   D2A66210  20.100  14.000  16.540
 3696DOPG   C3A66211  20.350  13.950  16.950
 3696DOPG   C4A66212  20.360  13.810  17.370
 3696DOPG   C1B66213  20.690  13.550  16.120
 3696DOPG   D2B66214  20.510  13.570  16.590
 3696DOPG   C3B66215  20.110  13.480  16.770
 3696DOPG   C4B66216  19.990  13.290  17.140
 3697DOPG   GL066217  10.200  23.330  16.420
 3697DOPG   PO466218   9.780  23.450  16.610
 3697DOPG   GL166219   9.820  23.020  16.600
 3697DOPG   GL266220  10.040  22.840  16.320
 3697DOPG   C1A66221   9.770  22.440  16.520
 3697DOPG   D2A66222   9.980  22.090  16.370
 3697DOPG   C3A66223  10.220  22.020  16.700
 3697DOPG   C4A66224  10.090  21.850  17.120
 3697DOPG   C1B66225  10.270  22.480  16.380
 3697DOPG   D2B66226  10.550  22.100  16.310
 3697DOPG   C3B66227  10.700  21.650  16.520
 3697DOPG   C4B66228  11.010  21.240  16.680
 3698DOPG   GL066229  12.600  14.950  14.820
 3698DOPG   PO466230  12.890  15.050  15.150
 3698DOPG   GL166231  13.110  15.150  14.750
 3698DOPG   GL266232  13.150  15.530  14.770
 3698DOPG   C1A66233  13.480  15.120  14.630
 3698DOPG   D2A66234  13.920  15.200  14.620
 3698DOPG   C3A66235  14.000  15.250  14.190
 3698DOPG   C4A66236  14.230  15.170  13.850
 3698DOPG   C1B66237  13.620  15.600  14.810
 3698DOPG   D2B66238  13.930  15.650  14.480
 3698DOPG   C3B66239  14.040  15.980  14.170
 3698DOPG   C4B66240  14.000  16.020  13.810
 3699DOPG   GL066241  17.660  19.580  12.940
 3699DOPG   PO466242  17.390  19.290  12.740
 3699DOPG   GL166243  17.140  19.610  13.000
 3699DOPG   GL266244  17.250  19.570  13.260
 3699DOPG   C1A66245  16.690  19.640  12.900
 3699DOPG   D2A66246  16.380  19.330  12.640
 3699DOPG   C3A66247  16.510  19.040  12.560
 3699DOPG   C4A66248  16.390  18.590  12.390
 3699DOPG   C1B66249  16.970  19.820  13.440
 3699DOPG   D2B66250  16.920  20.230  13.450
 3699DOPG   C3B66251  16.710  20.560  13.210
 3699DOPG   C4B66252  16.390  20.450  12.870
 3700DOPG   GL066253  16.920  13.540  13.880
 3700DOPG   PO466254  16.870  13.860  14.120
 3700DOPG   GL166255  16.530  13.960  14.160
 3700DOPG   GL266256  16.370  14.040  13.860
 3700DOPG   C1A66257  16.250  13.780  14.410
 3700DOPG   D2A66258  16.300  13.790  14.850
 3700DOPG   C3A66259  15.860  13.710  15.100
 3700DOPG   C4A66260  15.830  13.640  15.560
 3700DOPG   C1B66261  16.030  13.860  13.990
 3700DOPG   D2B66262  15.710  13.500  13.890
 3700DOPG   C3B66263  15.880  13.230  14.140
 3700DOPG   C4B66264  15.880  13.120  14.540
 3701DOPG   GL066265  21.330  18.730  13.860
 3701DOPG   PO466266  21.010  18.590  13.650
 3701DOPG   GL166267  21.170  18.860  13.360
 3701DOPG   GL266268  21.160  18.850  13.050
 3701DOPG   C1A66269  21.510  19.090  13.350
 3701DOPG   D2A66270  21.830  19.440  13.370
 3701DOPG   C3A66271  21.890  19.750  13.120
 3701DOPG   C4A66272  21.670  20.130  13.030
 3701DOPG   C1B66273  21.180  19.170  12.950
 3701DOPG   D2B66274  21.370  19.460  12.600
 3701DOPG   C3B66275  21.050  19.610  12.330
 3701DOPG   C4B66276  20.550  19.590  12.290
 3702DOPG   GL066277  18.460  12.580  14.020
 3702DOPG   PO466278  18.340  12.590  14.460
 3702DOPG   GL166279  18.070  12.250  14.440
 3702DOPG   GL266280  18.020  12.100  14.190
 3702DOPG   C1A66281  17.690  12.000  14.580
 3702DOPG   D2A66282  17.440  11.570  14.500
 3702DOPG   C3A66283  17.170  11.220  14.330
 3702DOPG   C4A66284  16.770  11.000  14.320
 3702DOPG   C1B66285  17.690  11.710  14.100
 3702DOPG   D2B66286  17.780  11.330  14.290
 3702DOPG   C3B66287  18.070  11.130  14.510
 3702DOPG   C4B66288  18.480  11.060  14.560
 3703DOPG   GL066289  20.540   7.990  19.860
 3703DOPG   PO466290  20.640   7.910  20.260
 3703DOPG   GL166291  20.640   7.530  20.490
 3703DOPG   GL266292  20.400   7.350  20.530
 3703DOPG   C1A66293  20.730   7.130  20.790
 3703DOPG   D2A66294  20.810   6.950  21.230
 3703DOPG   C3A66295  21.180   6.720  21.220
 3703DOPG   C4A66296  21.290   6.650  21.670
 3703DOPG   C1B66297  20.240   7.280  20.910
 3703DOPG   D2B66298  20.320   7.210  21.290
 3703DOPG   C3B66299  19.970   7.120  21.510
 3703DOPG   C4B66300  19.990   6.840  21.770
 3704DOPG   GL066301  22.810  12.490  14.740
 3704DOPG   PO466302  23.090  12.650  14.920
 3704DOPG   GL166303  23.310  12.810  15.320
 3704DOPG   GL266304  23.040  12.920  15.370
 3704DOPG   C1A66305  23.290  12.610  15.760
 3704DOPG   D2A66306  23.430  12.650  16.220
 3704DOPG   C3A66307  23.600  12.300  16.450
 3704DOPG   C4A66308  23.520  11.820  16.710
 3704DOPG   C1B66309  23.300  13.300  15.530
 3704DOPG   D2B66310  23.600  13.570  15.650
 3704DOPG   C3B66311  23.800  13.970  15.730
 3704DOPG   C4B66312  23.790  14.300  15.610
 3705DOPG   GL066313  10.550  12.590  13.610
 3705DOPG   PO466314  10.250  12.460  13.740
 3705DOPG   GL166315   9.960  12.470  13.470
 3705DOPG   GL266316   9.920  12.650  13.270
 3705DOPG   C1A66317   9.530  12.350  13.180
 3705DOPG   D2A66318   9.130  12.260  13.170
 3705DOPG   C3A66319   8.990  11.860  12.970
 3705DOPG   C4A66320   8.770  11.710  12.600
 3705DOPG   C1B66321   9.590  12.830  13.370
 3705DOPG   D2B66322   9.090  12.840  13.430
 3705DOPG   C3B66323   8.740  12.620  13.520
 3705DOPG   C4B66324   8.250  12.600  13.730
 3706DOPG   GL066325  23.190  12.720  14.420
 3706DOPG   PO466326  23.540  12.650  14.630
 3706DOPG   GL166327  23.730  12.650  15.020
 3706DOPG   GL266328  23.830  12.370  14.940
 3706DOPG   C1A66329  24.140  12.530  15.290
 3706DOPG   D2A66330  24.410  12.170  15.290
 3706DOPG   C3A66331  24.650  11.970  15.550
 3706DOPG   C4A66332  24.780  11.900  15.820
 3706DOPG   C1B66333  23.920  12.050  15.130
 3706DOPG   D2B66334  24.010  11.960  15.640
 3706DOPG   C3B66335  24.280  12.300  15.800
 3706DOPG   C4B66336  24.550  12.670  16.070
 3707DOPG   GL066337  28.110  12.710  15.660
 3707DOPG   PO466338  27.730  12.500  15.620
 3707DOPG   GL166339  27.270  12.690  15.380
 3707DOPG   GL266340  26.970  12.430  15.690
 3707DOPG   C1A66341  26.830  12.520  15.200
 3707DOPG   D2A66342  26.430  12.590  15.190
 3707DOPG   C3A66343  25.980  12.490  15.480
 3707DOPG   C4A66344  25.550  12.280  15.400
 3707DOPG   C1B66345  26.740  12.020  15.920
 3707DOPG   D2B66346  26.900  11.670  15.870
 3707DOPG   C3B66347  27.010  11.430  15.540
 3707DOPG   C4B66348  26.770  11.160  15.340
 3708DOPG   GL066349  20.170  11.730  19.430
 3708DOPG   PO466350  20.150  11.470  18.990
 3708DOPG   GL166351  20.120  11.390  18.530
 3708DOPG   GL266352  20.120  11.680  18.400
 3708DOPG   C1A66353  20.430  11.340  18.180
 3708DOPG   D2A66354  20.710  10.920  18.080
 3708DOPG   C3A66355  20.630  10.590  17.720
 3708DOPG   C4A66356  20.940  10.320  17.700
 3708DOPG   C1B66357  20.410  11.820  18.130
 3708DOPG   D2B66358  20.410  11.940  17.670
 3708DOPG   C3B66359  20.440  11.640  17.280
 3708DOPG   C4B66360  20.460  11.670  16.800
 3709DOPG   GL066361  21.880  12.330   7.990
 3709DOPG   PO466362  22.030  12.090   7.680
 3709DOPG   GL166363  21.820  11.970   7.390
 3709DOPG   GL266364  21.750  12.240   7.150
 3709DOPG   C1A66365  22.020  11.800   7.040
 3709DOPG   D2A66366  22.380  11.820   6.800
 3709DOPG   C3A66367  22.440  11.840   6.390
 3709DOPG   C4A66368  22.620  11.640   6.050
 3709DOPG   C1B66369  21.980  12.230   6.770
 3709DOPG   D2B66370  22.100  12.230   6.390
 3709DOPG   C3B66371  22.600  12.360   6.400
 3709DOPG   C4B66372  22.880  12.510   6.760
 3710DOPG   GL066373  23.100  10.660   7.930
 3710DOPG   PO466374  23.010  10.400   8.250
 3710DOPG   GL166375  23.000  10.080   7.840
 3710DOPG   GL266376  23.220  10.130   7.750
 3710DOPG   C1A66377  22.800   9.940   7.490
 3710DOPG   D2A66378  22.960  10.050   7.030
 3710DOPG   C3A66379  23.190   9.690   6.680
 3710DOPG   C4A66380  23.550   9.780   6.620
 3710DOPG   C1B66381  23.320   9.870   7.340
 3710DOPG   D2B66382  23.570   9.610   7.080
 3710DOPG   C3B66383  23.340   9.270   6.900
 3710DOPG   C4B66384  23.190   8.790   6.880
 3711DOPG   GL066385  21.430   9.870  14.120
 3711DOPG   PO466386  21.670  10.010  13.930
 3711DOPG   GL166387  21.820   9.590  13.850
 3711DOPG   GL266388  21.550   9.430  13.950
 3711DOPG   C1A66389  22.130   9.360  13.730
 3711DOPG   D2A66390  22.550   9.150  13.850
 3711DOPG   C3A66391  22.910   9.000  13.670
 3711DOPG   C4A66392  23.360   8.990  13.660
 3711DOPG   C1B66393  21.330   9.060  14.090
 3711DOPG   D2B66394  20.970   8.860  14.340
 3711DOPG   C3B66395  20.540   8.990  14.260
 3711DOPG   C4B66396  20.190   8.980  13.890
 3712DOPG   GL066397  15.920  17.420  17.590
 3712DOPG   PO466398  16.110  17.220  17.960
 3712DOPG   GL166399  16.240  17.020  17.590
 3712DOPG   GL266400  16.620  17.040  17.570
 3712DOPG   C1A66401  16.130  16.790  17.170
 3712DOPG   D2A66402  16.320  16.510  16.910
 3712DOPG   C3A66403  16.030  16.460  16.450
 3712DOPG   C4A66404  16.120  16.090  16.040
 3712DOPG   C1B66405  16.650  17.080  17.150
 3712DOPG   D2B66406  16.270  17.210  16.860
 3712DOPG   C3B66407  16.100  17.020  16.520
 3712DOPG   C4B66408  16.160  17.000  16.080
 3713DOPG   GL066409  11.880   9.770  14.320
 3713DOPG   PO466410  11.630   9.740  14.070
 3713DOPG   GL166411  11.230   9.520  14.130
 3713DOPG   GL266412  11.070   9.640  14.400
 3713DOPG   C1A66413  10.960   9.190  13.840
 3713DOPG   D2A66414  10.570   8.950  14.000
 3713DOPG   C3A66415  10.440   8.870  13.670
 3713DOPG   C4A66416  10.410   8.460  13.440
 3713DOPG   C1B66417  10.670   9.350  14.300
 3713DOPG   D2B66418  10.240   9.110  14.340
 3713DOPG   C3B66419  10.120   8.890  14.050
 3713DOPG   C4B66420   9.870   8.890  13.730
 3714DOPG   GL066421  16.850   8.050  11.630
 3714DOPG   PO466422  17.020   8.180  11.290
 3714DOPG   GL166423  17.250   8.420  11.520
 3714DOPG   GL266424  16.980   8.690  11.490
 3714DOPG   C1A66425  17.610   8.600  11.560
 3714DOPG   D2A66426  17.960   8.830  11.430
 3714DOPG   C3A66427  18.470   8.820  11.570
 3714DOPG   C4A66428  18.630   8.470  11.600
 3714DOPG   C1B66429  17.140   9.170  11.640
 3714DOPG   D2B66430  17.180   9.590  11.580
 3714DOPG   C3B66431  17.290   9.680  11.190
 3714DOPG   C4B66432  17.460   9.460  10.840
 3715DOPG   GL066433  16.530  12.420   7.580
 3715DOPG   PO466434  16.620  12.700   7.960
 3715DOPG   GL166435  16.800  12.790   7.460
 3715DOPG   GL266436  16.630  13.010   7.280
 3715DOPG   C1A66437  16.810  12.560   7.030
 3715DOPG   D2A66438  16.870  12.710   6.590
 3715DOPG   C3A66439  16.940  12.600   6.110
 3715DOPG   C4A66440  17.030  12.530   5.710
 3715DOPG   C1B66441  16.470  12.950   6.940
 3715DOPG   D2B66442  16.160  12.970   6.620
 3715DOPG   C3B66443  15.730  13.130   6.590
 3715DOPG   C4B66444  15.340  13.260   6.400
 3716DOPG   GL066445  12.370   7.650  15.780
 3716DOPG   PO466446  12.470   7.810  16.150
 3716DOPG   GL166447  12.100   7.780  16.360
 3716DOPG   GL266448  11.880   7.520  16.220
 3716DOPG   C1A66449  11.760   7.760  16.670
 3716DOPG   D2A66450  11.520   8.030  16.750
 3716DOPG   C3A66451  11.160   8.010  16.500
 3716DOPG   C4A66452  10.720   7.880  16.480
 3716DOPG   C1B66453  11.580   7.340  16.550
 3716DOPG   D2B66454  11.160   7.190  16.460
 3716DOPG   C3B66455  11.050   6.860  16.200
 3716DOPG   C4B66456  10.740   6.670  16.280
 3717DOPG   GL066457  18.840  17.480  12.410
 3717DOPG   PO466458  18.980  17.620  12.070
 3717DOPG   GL166459  18.900  17.950  11.660
 3717DOPG   GL266460  18.550  17.960  11.610
 3717DOPG   C1A66461  18.980  18.260  11.360
 3717DOPG   D2A66462  18.880  18.660  11.220
 3717DOPG   C3A66463  19.020  18.950  10.880
 3717DOPG   C4A66464  18.840  19.120  10.450
 3717DOPG   C1B66465  18.480  18.150  11.200
 3717DOPG   D2B66466  18.110  18.380  10.900
 3717DOPG   C3B66467  17.770  18.630  11.050
 3717DOPG   C4B66468  17.720  18.880  11.450
 3718DOPG   GL066469  26.520  13.610  11.120
 3718DOPG   PO466470  26.530  13.220  11.400
 3718DOPG   GL166471  26.200  12.920  11.550
 3718DOPG   GL266472  26.360  12.660  11.620
 3718DOPG   C1A66473  25.900  12.990  11.750
 3718DOPG   D2A66474  25.780  13.020  12.140
 3718DOPG   C3A66475  26.120  13.040  12.550
 3718DOPG   C4A66476  26.360  13.240  12.740
 3718DOPG   C1B66477  26.440  12.410  12.020
 3718DOPG   D2B66478  26.390  12.270  12.500
 3718DOPG   C3B66479  26.080  12.580  12.720
 3718DOPG   C4B66480  25.770  12.820  12.900
 3719DOPG   GL066481  11.620  13.180  11.770
 3719DOPG   PO466482  11.360  12.980  11.390
 3719DOPG   GL166483  11.050  12.650  11.010
 3719DOPG   GL266484  10.930  13.010  10.900
 3719DOPG   C1A66485  10.690  12.510  10.940
 3719DOPG   D2A66486  10.220  12.560  10.740
 3719DOPG   C3A66487  10.030  12.480  10.290
 3719DOPG   C4A66488   9.710  12.350   9.920
 3719DOPG   C1B66489  10.480  12.960  10.940
 3719DOPG   D2B66490  10.010  13.030  10.810
 3719DOPG   C3B66491   9.740  12.720  10.610
 3719DOPG   C4B66492   9.650  12.280  10.520
 3720DOPG   GL066493  23.190   1.660  15.690
 3720DOPG   PO466494  23.610   1.580  15.850
 3720DOPG   GL166495  23.670   2.040  16.070
 3720DOPG   GL266496  23.390   1.910  16.270
 3720DOPG   C1A66497  23.630   2.450  15.890
 3720DOPG   D2A66498  23.570   2.620  15.550
 3720DOPG   C3A66499  23.310   2.910  15.640
 3720DOPG   C4A66500  23.140   3.260  15.800
 3720DOPG   C1B66501  23.170   2.340  16.350
 3720DOPG   D2B66502  22.850   2.660  16.390
 3720DOPG   C3B66503  22.750   2.820  16.680
 3720DOPG   C4B66504  22.670   3.160  16.940
 3721DOPG   GL066505  28.100  13.890  13.110
 3721DOPG   PO466506  27.810  13.550  13.130
 3721DOPG   GL166507  27.550  13.390  13.430
 3721DOPG   GL266508  27.480  13.490  13.750
 3721DOPG   C1A66509  27.110  13.310  13.460
 3721DOPG   D2A66510  26.700  13.320  13.650
 3721DOPG   C3A66511  26.390  13.180  13.470
 3721DOPG   C4A66512  25.940  13.000  13.420
 3721DOPG   C1B66513  27.120  13.530  13.920
 3721DOPG   D2B66514  26.760  13.760  13.950
 3721DOPG   C3B66515  26.370  13.690  13.620
 3721DOPG   C4B66516  26.160  13.610  13.350
 3722DOPG   GL066517  17.090  15.260  11.840
 3722DOPG   PO466518  16.780  15.260  12.090
 3722DOPG   GL166519  16.610  15.150  11.700
 3722DOPG   GL266520  16.320  15.040  11.690
 3722DOPG   C1A66521  16.420  15.380  11.320
 3722DOPG   D2A66522  16.280  15.380  10.880
 3722DOPG   C3A66523  15.850  15.300  10.690
 3722DOPG   C4A66524  15.460  15.200  10.680
 3722DOPG   C1B66525  16.080  14.890  11.450
 3722DOPG   D2B66526  16.030  14.970  11.170
 3722DOPG   C3B66527  15.840  14.730  10.930
 3722DOPG   C4B66528  15.710  14.330  10.680
 3723DOPG   GL066529  21.880  16.430  14.370
 3723DOPG   PO466530  22.150  16.490  14.780
 3723DOPG   GL166531  22.290  16.720  15.120
 3723DOPG   GL266532  22.070  16.790  15.210
 3723DOPG   C1A66533  22.670  16.950  15.460
 3723DOPG   D2A66534  22.740  16.980  15.910
 3723DOPG   C3A66535  23.130  16.800  16.040
 3723DOPG   C4A66536  23.600  16.610  16.080
 3723DOPG   C1B66537  22.200  16.880  15.690
 3723DOPG   D2B66538  22.200  17.230  15.750
 3723DOPG   C3B66539  22.270  17.370  15.320
 3723DOPG   C4B66540  22.630  17.310  15.150
 3724DOPG   GL066541  12.340  19.790   5.480
 3724DOPG   PO466542  12.310  19.480   5.330
 3724DOPG   GL166543  12.520  19.380   5.740
 3724DOPG   GL266544  12.310  19.260   5.960
 3724DOPG   C1A66545  12.610  18.970   5.820
 3724DOPG   D2A66546  12.390  18.550   5.830
 3724DOPG   C3A66547  12.740  18.300   6.080
 3724DOPG   C4A66548  12.900  18.150   6.470
 3724DOPG   C1B66549  12.630  19.160   6.260
 3724DOPG   D2B66550  12.900  19.280   6.630
 3724DOPG   C3B66551  12.970  19.430   7.010
 3724DOPG   C4B66552  12.850  19.760   7.280
 3725DOPG   GL066553  23.540  20.020  15.320
 3725DOPG   PO466554  23.240  20.380  15.140
 3725DOPG   GL166555  23.150  20.100  14.890
 3725DOPG   GL266556  22.980  19.870  15.130
 3725DOPG   C1A66557  22.760  19.890  14.690
 3725DOPG   D2A66558  22.340  19.840  14.650
 3725DOPG   C3A66559  22.000  19.770  14.930
 3725DOPG   C4A66560  21.790  19.410  15.220
 3725DOPG   C1B66561  22.990  19.530  14.890
 3725DOPG   D2B66562  23.110  19.090  14.870
 3725DOPG   C3B66563  22.760  18.860  14.710
 3725DOPG   C4B66564  22.660  18.500  14.690
 3726DOPG   GL066565  19.120  13.180  15.250
 3726DOPG   PO466566  19.320  13.550  15.370
 3726DOPG   GL166567  19.480  13.330  15.680
 3726DOPG   GL266568  19.520  13.000  15.670
 3726DOPG   C1A66569  19.530  13.170  16.150
 3726DOPG   D2A66570  19.470  12.770  16.430
 3726DOPG   C3A66571  19.670  12.390  16.660
 3726DOPG   C4A66572  19.880  12.390  16.950
 3726DOPG   C1B66573  19.500  12.670  15.950
 3726DOPG   D2B66574  19.460  12.260  16.220
 3726DOPG   C3B66575  19.370  11.930  15.920
 3726DOPG   C4B66576  19.140  11.960  15.580
 3727DOPG   GL066577  16.070   9.360  14.650
 3727DOPG   PO466578  16.310   9.130  14.600
 3727DOPG   GL166579  16.580   9.420  14.360
 3727DOPG   GL266580  16.730   9.610  14.620
 3727DOPG   C1A66581  17.030   9.370  14.340
 3727DOPG   D2A66582  17.310   9.420  13.960
 3727DOPG   C3A66583  17.560   9.620  13.670
 3727DOPG   C4A66584  17.910   9.770  13.680
 3727DOPG   C1B66585  17.110   9.780  14.570
 3727DOPG   D2B66586  17.420   9.790  14.310
 3727DOPG   C3B66587  17.780  10.010  14.310
 3727DOPG   C4B66588  18.160  10.010  14.570
 3728DOPG   GL066589  19.970  13.830  18.820
 3728DOPG   PO466590  20.050  14.040  19.270
 3728DOPG   GL166591  20.370  14.200  18.930
 3728DOPG   GL266592  20.500  14.490  18.960
 3728DOPG   C1A66593  20.400  14.060  18.390
 3728DOPG   D2A66594  20.350  14.220  18.010
 3728DOPG   C3A66595  20.080  14.170  17.630
 3728DOPG   C4A66596  20.100  14.370  17.250
 3728DOPG   C1B66597  20.580  14.510  18.500
 3728DOPG   D2B66598  20.720  14.490  18.130
 3728DOPG   C3B66599  20.700  14.710  17.850
 3728DOPG   C4B66600  20.880  14.700  17.370
 3729DOPG   GL066601  21.020  15.720  12.370
 3729DOPG   PO466602  21.410  15.520  12.140
 3729DOPG   GL166603  21.610  15.410  11.650
 3729DOPG   GL266604  21.610  15.050  11.440
 3729DOPG   C1A66605  21.810  15.490  11.210
 3729DOPG   D2A66606  21.880  15.250  10.720
 3729DOPG   C3A66607  21.990  14.840  10.700
 3729DOPG   C4A66608  22.070  14.680  10.330
 3729DOPG   C1B66609  21.580  14.980  11.060
 3729DOPG   D2B66610  21.480  14.980  10.670
 3729DOPG   C3B66611  21.610  14.610  10.560
 3729DOPG   C4B66612  21.650  14.400  10.250
 3730DOPG   GL066613  17.170  17.440  14.450
 3730DOPG   PO466614  16.910  17.630  14.220
 3730DOPG   GL166615  16.890  17.900  14.570
 3730DOPG   GL266616  16.720  18.160  14.520
 3730DOPG   C1A66617  16.700  17.870  14.980
 3730DOPG   D2A66618  16.550  18.020  15.400
 3730DOPG   C3A66619  16.670  18.430  15.600
 3730DOPG   C4A66620  17.010  18.710  15.730
 3730DOPG   C1B66621  16.490  18.210  14.730
 3730DOPG   D2B66622  16.190  18.150  15.100
 3730DOPG   C3B66623  16.080  17.800  15.330
 3730DOPG   C4B66624  15.920  17.750  15.700
 3731DOPG   GL066625  24.610   9.210  10.350
 3731DOPG   PO466626  24.180   9.100  10.520
 3731DOPG   GL166627  23.820   9.210  10.770
 3731DOPG   GL266628  23.770   9.100  11.110
 3731DOPG   C1A66629  23.440   9.460  10.760
 3731DOPG   D2A66630  23.320   9.820  10.490
 3731DOPG   C3A66631  22.930  10.010  10.750
 3731DOPG   C4A66632  22.520  10.130  10.980
 3731DOPG   C1B66633  23.610   9.080  11.500
 3731DOPG   D2B66634  23.300   9.120  11.780
 3731DOPG   C3B66635  23.220   9.280  12.090
 3731DOPG   C4B66636  22.970   9.440  12.310
 3732DOPG   GL066637  13.500   9.330  17.920
 3732DOPG   PO466638  13.090   9.130  17.940
 3732DOPG   GL166639  12.830   8.990  18.210
 3732DOPG   GL266640  12.560   8.860  18.120
 3732DOPG   C1A66641  12.660   8.910  18.620
 3732DOPG   D2A66642  12.390   8.660  18.900
 3732DOPG   C3A66643  12.110   8.400  18.710
 3732DOPG   C4A66644  11.710   8.300  18.880
 3732DOPG   C1B66645  12.170   8.820  18.430
 3732DOPG   D2B66646  11.680   8.680  18.590
 3732DOPG   C3B66647  11.500   8.770  18.910
 3732DOPG   C4B66648  11.360   9.120  18.930
 3733DOPG   GL066649  13.350  20.710  12.300
 3733DOPG   PO466650  13.060  21.120  12.200
 3733DOPG   GL166651  12.830  21.090  11.910
 3733DOPG   GL266652  12.830  21.430  11.890
 3733DOPG   C1A66653  12.580  21.210  11.540
 3733DOPG   D2A66654  12.400  21.610  11.610
 3733DOPG   C3A66655  12.230  21.920  11.910
 3733DOPG   C4A66656  11.850  22.220  11.930
 3733DOPG   C1B66657  12.620  21.740  12.070
 3733DOPG   D2B66658  12.520  22.270  12.020
 3733DOPG   C3B66659  12.250  22.600  11.760
 3733DOPG   C4B66660  12.130  22.960  11.510
 3734DOPG   GL066661  16.330  14.630  13.950
 3734DOPG   PO466662  16.440  14.410  13.530
 3734DOPG   GL166663  16.000  14.250  13.630
 3734DOPG   GL266664  15.850  14.350  13.970
 3734DOPG   C1A66665  15.890  13.870  13.510
 3734DOPG   D2A66666  15.490  13.610  13.400
 3734DOPG   C3A66667  15.580  13.200  13.340
 3734DOPG   C4A66668  15.490  12.770  13.310
 3734DOPG   C1B66669  15.540  14.050  13.850
 3734DOPG   D2B66670  15.130  13.950  13.680
 3734DOPG   C3B66671  14.790  13.710  14.010
 3734DOPG   C4B66672  14.700  13.860  14.370
 3735DOPG   GL066673  21.310  18.000  14.460
 3735DOPG   PO466674  21.490  18.320  14.190
 3735DOPG   GL166675  21.810  18.560  14.090
 3735DOPG   GL266676  21.900  18.550  13.730
 3735DOPG   C1A66677  22.140  18.760  14.130
 3735DOPG   D2A66678  22.390  18.920  14.400
 3735DOPG   C3A66679  22.180  19.110  14.660
 3735DOPG   C4A66680  21.830  19.390  14.660
 3735DOPG   C1B66681  21.790  19.000  13.800
 3735DOPG   D2B66682  21.840  19.180  14.180
 3735DOPG   C3B66683  22.110  19.400  14.240
 3735DOPG   C4B66684  22.530  19.700  14.230
 3736DOPG   GL066685  19.230   7.450  11.510
 3736DOPG   PO466686  19.020   7.740  11.290
 3736DOPG   GL166687  19.300   7.950  11.670
 3736DOPG   GL266688  19.000   8.140  11.580
 3736DOPG   C1A66689  19.370   8.020  12.040
 3736DOPG   D2A66690  19.670   8.130  12.290
 3736DOPG   C3A66691  19.700   8.510  12.430
 3736DOPG   C4A66692  20.040   8.780  12.720
 3736DOPG   C1B66693  19.080   8.570  11.480
 3736DOPG   D2B66694  18.940   8.960  11.450
 3736DOPG   C3B66695  19.290   9.280  11.290
 3736DOPG   C4B66696  19.560   9.580  11.440
 3737DOPG   GL066697  28.030  11.820  14.040
 3737DOPG   PO466698  28.320  11.690  14.390
 3737DOPG   GL166699  28.780  11.650  14.500
 3737DOPG   GL266700  29.040  11.960  14.580
 3737DOPG   C1A66701  29.230  11.560  14.720
 3737DOPG   D2A66702  29.550  11.630  14.960
 3737DOPG   C3A66703  29.690  11.350  15.250
 3737DOPG   C4A66704  30.000  11.090  15.420
 3737DOPG   C1B66705  29.550  11.870  14.500
 3737DOPG   D2B66706  29.860  11.590  14.640
 3737DOPG   C3B66707  30.080  11.390  14.860
 3737DOPG   C4B66708  30.360  11.490  15.270
 3738DOPG   GL066709  25.940  17.070  17.650
 3738DOPG   PO466710  26.000  17.210  17.940
 3738DOPG   GL166711  26.290  17.180  18.270
 3738DOPG   GL266712  26.560  17.190  18.090
 3738DOPG   C1A66713  26.440  17.410  18.560
 3738DOPG   D2A66714  26.650  17.610  18.810
 3738DOPG   C3A66715  26.750  17.920  19.120
 3738DOPG   C4A66716  26.790  18.050  19.500
 3738DOPG   C1B66717  26.940  17.310  18.330
 3738DOPG   D2B66718  27.130  17.570  18.520
 3738DOPG   C3B66719  27.130  17.680  18.970
 3738DOPG   C4B66720  27.320  17.910  19.300
 3739DOPG   GL066721  20.250  19.700   8.020
 3739DOPG   PO466722  20.570  19.840   7.690
 3739DOPG   GL166723  20.590  20.160   7.340
 3739DOPG   GL266724  20.910  20.040   7.280
 3739DOPG   C1A66725  20.530  20.650   7.120
 3739DOPG   D2A66726  20.420  20.830   6.810
 3739DOPG   C3A66727  20.100  20.830   6.540
 3739DOPG   C4A66728  19.920  21.030   6.300
 3739DOPG   C1B66729  20.970  19.850   6.860
 3739DOPG   D2B66730  20.750  19.470   6.740
 3739DOPG   C3B66731  20.630  19.420   6.320
 3739DOPG   C4B66732  20.590  19.650   5.940
 3740DOPG   GL066733  26.430  18.650  16.150
 3740DOPG   PO466734  26.320  18.810  16.610
 3740DOPG   GL166735  26.500  18.900  17.050
 3740DOPG   GL266736  26.760  18.910  17.320
 3740DOPG   C1A66737  26.370  19.250  17.240
 3740DOPG   D2A66738  26.460  19.720  17.370
 3740DOPG   C3A66739  26.480  19.850  17.760
 3740DOPG   C4A66740  26.380  20.270  17.990
 3740DOPG   C1B66741  27.150  18.590  17.190
 3740DOPG   D2B66742  27.560  18.550  17.420
 3740DOPG   C3B66743  27.420  18.570  17.810
 3740DOPG   C4B66744  27.240  18.690  18.170
 3741DOPG   GL066745  19.020  15.750  20.550
 3741DOPG   PO466746  18.990  15.390  20.270
 3741DOPG   GL166747  19.050  15.280  20.680
 3741DOPG   GL266748  18.990  15.050  20.740
 3741DOPG   C1A66749  19.130  15.480  21.020
 3741DOPG   D2A66750  19.120  15.770  21.430
 3741DOPG   C3A66751  19.410  15.730  21.910
 3741DOPG   C4A66752  19.320  15.620  22.330
 3741DOPG   C1B66753  19.120  14.970  21.260
 3741DOPG   D2B66754  19.390  15.190  21.520
 3741DOPG   C3B66755  19.450  15.160  22.000
 3741DOPG   C4B66756  19.550  15.120  22.410
 3742DOPG   GL066757  25.570  15.250   8.950
 3742DOPG   PO466758  25.740  15.000   8.650
 3742DOPG   GL166759  25.770  15.060   8.170
 3742DOPG   GL266760  25.640  15.340   7.960
 3742DOPG   C1A66761  25.960  15.080   7.710
 3742DOPG   D2A66762  26.240  15.260   7.360
 3742DOPG   C3A66763  26.350  15.770   7.350
 3742DOPG   C4A66764  26.520  16.020   7.650
 3742DOPG   C1B66765  25.970  15.550   7.630
 3742DOPG   D2B66766  25.870  15.630   7.180
 3742DOPG   C3B66767  25.810  16.050   7.100
 3742DOPG   C4B66768  25.720  16.440   7.260
 3743DOPG   GL066769  26.390  18.350  10.430
 3743DOPG   PO466770  26.560  17.910  10.380
 3743DOPG   GL166771  26.890  18.240  10.200
 3743DOPG   GL266772  26.970  18.370  10.520
 3743DOPG   C1A66773  27.280  18.320   9.980
 3743DOPG   D2A66774  27.540  18.750   9.900
 3743DOPG   C3A66775  27.920  19.060  10.020
 3743DOPG   C4A66776  28.250  18.960  10.340
 3743DOPG   C1B66777  27.270  18.610  10.440
 3743DOPG   D2B66778  27.660  18.790  10.340
 3743DOPG   C3B66779  27.800  19.240  10.530
 3743DOPG   C4B66780  27.820  19.710  10.840
 3744DOPG   GL066781  26.230  17.920  23.230
 3744DOPG   PO466782  26.140  18.000  22.870
 3744DOPG   GL166783  26.060  18.120  22.490
 3744DOPG   GL266784  25.560  18.090  22.500
 3744DOPG   C1A66785  26.370  17.890  22.120
 3744DOPG   D2A66786  26.320  17.760  21.650
 3744DOPG   C3A66787  26.250  17.330  21.470
 3744DOPG   C4A66788  26.400  16.870  21.340
 3744DOPG   C1B66789  25.570  17.660  22.440
 3744DOPG   D2B66790  25.410  17.390  22.130
 3744DOPG   C3B66791  25.700  16.960  22.210
 3744DOPG   C4B66792  26.030  16.840  22.370
 3745DOPG   GL066793  24.510   8.770   4.510
 3745DOPG   PO466794  24.190   8.690   4.790
 3745DOPG   GL166795  24.150   9.070   5.060
 3745DOPG   GL266796  23.820   9.070   5.250
 3745DOPG   C1A66797  24.200   9.370   5.410
 3745DOPG   D2A66798  24.360   9.330   5.820
 3745DOPG   C3A66799  24.290   9.050   6.170
 3745DOPG   C4A66800  24.110   8.890   6.470
 3745DOPG   C1B66801  23.720   9.000   5.610
 3745DOPG   D2B66802  23.330   8.980   5.900
 3745DOPG   C3B66803  22.920   9.000   5.960
 3745DOPG   C4B66804  22.560   9.160   6.220
 3746DOPG   GL066805  26.450  14.190  10.810
 3746DOPG   PO466806  26.710  14.080  11.140
 3746DOPG   GL166807  26.410  13.990  11.460
 3746DOPG   GL266808  26.280  14.170  11.680
 3746DOPG   C1A66809  26.100  13.700  11.530
 3746DOPG   D2A66810  25.870  13.500  11.870
 3746DOPG   C3A66811  25.650  13.880  12.120
 3746DOPG   C4A66812  25.480  14.220  12.170
 3746DOPG   C1B66813  25.780  14.080  11.660
 3746DOPG   D2B66814  25.350  14.170  11.700
 3746DOPG   C3B66815  25.070  14.400  11.930
 3746DOPG   C4B66816  24.800  14.620  12.090
 3747DOPG   GL066817  28.700   3.880  13.680
 3747DOPG   PO466818  28.370   4.070  14.000
 3747DOPG   GL166819  28.070   4.370  14.210
 3747DOPG   GL266820  28.300   4.640  14.300
 3747DOPG   C1A66821  27.630   4.440  14.040
 3747DOPG   D2A66822  27.340   4.370  13.600
 3747DOPG   C3A66823  27.190   4.730  13.360
 3747DOPG   C4A66824  26.940   5.030  13.200
 3747DOPG   C1B66825  27.970   4.920  14.140
 3747DOPG   D2B66826  27.640   5.090  14.130
 3747DOPG   C3B66827  27.440   5.400  13.920
 3747DOPG   C4B66828  27.390   5.710  13.740
 3748DOPG   GL066829  20.980  11.410   7.840
 3748DOPG   PO466830  20.950  11.760   7.700
 3748DOPG   GL166831  20.820  11.750   7.340
 3748DOPG   GL266832  20.630  12.030   7.230
 3748DOPG   C1A66833  20.630  11.580   6.920
 3748DOPG   D2A66834  20.620  11.390   6.530
 3748DOPG   C3A66835  20.860  11.050   6.330
 3748DOPG   C4A66836  21.080  10.760   6.530
 3748DOPG   C1B66837  20.460  12.090   6.850
 3748DOPG   D2B66838  20.500  11.950   6.400
 3748DOPG   C3B66839  20.520  12.340   6.150
 3748DOPG   C4B66840  20.440  12.440   5.660
 3749DOPG   GL066841  21.150  19.970   7.890
 3749DOPG   PO466842  21.640  19.870   7.850
 3749DOPG   GL166843  21.740  20.120   7.390
 3749DOPG   GL266844  21.390  20.140   7.190
 3749DOPG   C1A66845  21.950  20.260   6.940
 3749DOPG   D2A66846  22.260  20.270   6.560
 3749DOPG   C3A66847  22.660  20.430   6.540
 3749DOPG   C4A66848  23.130  20.340   6.560
 3749DOPG   C1B66849  21.470  20.150   6.780
 3749DOPG   D2B66850  21.730  20.360   6.280
 3749DOPG   C3B66851  22.060  20.520   6.150
 3749DOPG   C4B66852  22.480  20.770   6.180
 3750DOPG   GL066853  23.750   9.680  17.950
 3750DOPG   PO466854  23.420   9.550  17.630
 3750DOPG   GL166855  23.370   9.600  17.220
 3750DOPG   GL266856  23.090   9.630  17.250
 3750DOPG   C1A66857  23.400   9.920  16.850
 3750DOPG   D2A66858  23.570  10.270  16.560
 3750DOPG   C3A66859  23.810  10.360  16.140
 3750DOPG   C4A66860  24.200  10.520  15.880
 3750DOPG   C1B66861  22.720   9.840  17.040
 3750DOPG   D2B66862  22.870  10.050  16.700
 3750DOPG   C3B66863  23.030  10.550  16.690
 3750DOPG   C4B66864  23.110  10.970  16.580
 3751DOPG   GL066865  27.430   7.100   6.750
 3751DOPG   PO466866  27.230   7.530   6.980
 3751DOPG   GL166867  27.230   7.900   7.140
 3751DOPG   GL266868  27.380   7.840   7.410
 3751DOPG   C1A66869  27.160   8.250   7.420
 3751DOPG   D2A66870  27.120   8.730   7.460
 3751DOPG   C3A66871  27.000   8.830   7.880
 3751DOPG   C4A66872  27.220   8.730   8.380
 3751DOPG   C1B66873  27.470   8.060   7.800
 3751DOPG   D2B66874  27.670   8.320   8.100
 3751DOPG   C3B66875  28.000   8.310   8.290
 3751DOPG   C4B66876  28.340   8.120   8.530
 3752DOPG   GL066877  25.570  17.420   9.820
 3752DOPG   PO466878  26.090  17.220   9.760
 3752DOPG   GL166879  26.310  17.010   9.420
 3752DOPG   GL266880  26.300  17.180   9.170
 3752DOPG   C1A66881  26.800  17.000   9.320
 3752DOPG   D2A66882  27.240  17.130   9.400
 3752DOPG   C3A66883  27.680  17.080   9.480
 3752DOPG   C4A66884  27.760  17.390   9.260
 3752DOPG   C1B66885  26.720  17.330   8.950
 3752DOPG   D2B66886  27.160  17.230   8.850
 3752DOPG   C3B66887  27.480  17.430   8.700
 3752DOPG   C4B66888  27.820  17.580   8.770
 3753DOPG   GL066889  17.030   4.730   6.790
 3753DOPG   PO466890  17.170   4.860   7.160
 3753DOPG   GL166891  17.070   4.860   7.580
 3753DOPG   GL266892  17.360   4.780   7.660
 3753DOPG   C1A66893  17.130   5.300   7.830
 3753DOPG   D2A66894  17.350   5.810   7.690
 3753DOPG   C3A66895  17.100   6.050   8.070
 3753DOPG   C4A66896  16.860   6.410   8.280
 3753DOPG   C1B66897  17.670   4.880   7.990
 3753DOPG   D2B66898  17.910   5.090   8.310
 3753DOPG   C3B66899  17.680   5.290   8.670
 3753DOPG   C4B66900  17.890   5.630   8.760
 3754DOPG   GL066901  19.200  12.080  13.290
 3754DOPG   PO466902  18.800  11.750  13.350
 3754DOPG   GL166903  18.530  11.600  13.780
 3754DOPG   GL266904  18.640  11.420  14.020
 3754DOPG   C1A66905  18.100  11.560  13.950
 3754DOPG   D2A66906  17.770  11.330  13.800
 3754DOPG   C3A66907  17.400  11.150  13.860
 3754DOPG   C4A66908  17.030  11.200  13.860
 3754DOPG   C1B66909  18.240  11.100  14.030
 3754DOPG   D2B66910  18.270  10.670  14.170
 3754DOPG   C3B66911  18.100  10.480  14.590
 3754DOPG   C4B66912  17.810  10.670  14.900
 3755DOPG   GL066913  22.480  15.780  14.830
 3755DOPG   PO466914  22.630  15.380  15.000
 3755DOPG   GL166915  22.670  15.580  15.340
 3755DOPG   GL266916  23.010  15.470  15.470
 3755DOPG   C1A66917  22.630  15.900  15.530
 3755DOPG   D2A66918  22.810  16.030  15.750
 3755DOPG   C3A66919  23.170  16.150  15.410
 3755DOPG   C4A66920  23.390  16.550  15.190
 3755DOPG   C1B66921  23.190  15.700  15.740
 3755DOPG   D2B66922  23.390  15.970  16.050
 3755DOPG   C3B66923  23.420  16.220  15.860
 3755DOPG   C4B66924  23.740  16.410  15.510
 3756DOPG   GL066925  20.150  15.940  12.350
 3756DOPG   PO466926  20.150  15.810  11.940
 3756DOPG   GL166927  20.290  15.970  11.510
 3756DOPG   GL266928  20.280  16.340  11.410
 3756DOPG   C1A66929  20.220  15.950  10.960
 3756DOPG   D2A66930  20.210  16.230  10.590
 3756DOPG   C3A66931  20.480  16.240  10.310
 3756DOPG   C4A66932  21.000  16.280  10.180
 3756DOPG   C1B66933  20.450  16.620  11.140
 3756DOPG   D2B66934  20.440  16.640  10.780
 3756DOPG   C3B66935  20.200  16.690  10.370
 3756DOPG   C4B66936  20.300  16.540   9.920
 3757DOPG   GL066937  13.180  19.220  10.480
 3757DOPG   PO466938  13.550  19.390  10.580
 3757DOPG   GL166939  13.830  19.340  10.920
 3757DOPG   GL266940  13.740  19.260  11.300
 3757DOPG   C1A66941  14.220  19.400  11.100
 3757DOPG   D2A66942  14.590  19.310  11.430
 3757DOPG   C3A66943  14.740  18.850  11.600
 3757DOPG   C4A66944  14.920  18.760  11.950
 3757DOPG   C1B66945  14.010  19.460  11.550
 3757DOPG   D2B66946  14.290  19.860  11.620
 3757DOPG   C3B66947  14.520  19.840  11.220
 3757DOPG   C4B66948  14.960  19.550  11.180
 3758DOPG   GL066949  23.110  14.780  12.870
 3758DOPG   PO466950  23.430  14.670  12.910
 3758DOPG   GL166951  23.720  14.690  12.730
 3758DOPG   GL266952  24.000  14.880  12.780
 3758DOPG   C1A66953  24.070  14.490  12.470
 3758DOPG   D2A66954  24.230  14.550  12.120
 3758DOPG   C3A66955  24.080  14.490  11.720
 3758DOPG   C4A66956  23.950  14.290  11.370
 3758DOPG   C1B66957  23.870  15.240  12.720
 3758DOPG   D2B66958  23.480  15.590  12.790
 3758DOPG   C3B66959  23.560  15.980  12.530
 3758DOPG   C4B66960  23.420  16.480  12.630
 3759DOPG   GL066961  19.650  15.610  11.790
 3759DOPG   PO466962  19.550  15.260  11.580
 3759DOPG   GL166963  19.630  15.120  11.190
 3759DOPG   GL266964  19.920  14.870  11.330
 3759DOPG   C1A66965  19.270  15.050  10.840
 3759DOPG   D2A66966  18.970  14.800  10.660
 3759DOPG   C3A66967  18.700  14.950  10.350
 3759DOPG   C4A66968  18.360  15.130  10.250
 3759DOPG   C1B66969  20.180  14.550  11.130
 3759DOPG   D2B66970  20.210  14.240  10.740
 3759DOPG   C3B66971  20.400  14.270  10.350
 3759DOPG   C4B66972  20.710  14.080  10.110
 3760DOPG   GL066973  19.700  13.980  12.090
 3760DOPG   PO466974  19.460  13.700  12.170
 3760DOPG   GL166975  19.460  13.690  11.710
 3760DOPG   GL266976  19.540  14.030  11.630
 3760DOPG   C1A66977  19.400  13.410  11.280
 3760DOPG   D2A66978  19.710  13.130  11.110
 3760DOPG   C3A66979  19.940  13.100  10.650
 3760DOPG   C4A66980  19.730  13.050  10.280
 3760DOPG   C1B66981  19.570  14.120  11.130
 3760DOPG   D2B66982  19.750  14.030  10.680
 3760DOPG   C3B66983  19.880  14.350  10.370
 3760DOPG   C4B66984  20.030  14.330   9.920
 3761DOPG   GL066985  23.850  12.310  13.960
 3761DOPG   PO466986  24.240  12.410  14.110
 3761DOPG   GL166987  24.640  12.410  13.870
 3761DOPG   GL266988  24.700  12.470  13.440
 3761DOPG   C1A66989  25.010  12.170  13.890
 3761DOPG   D2A66990  25.330  12.190  14.240
 3761DOPG   C3A66991  25.720  11.990  14.200
 3761DOPG   C4A66992  25.950  11.770  13.910
 3761DOPG   C1B66993  25.110  12.440  13.190
 3761DOPG   D2B66994  25.420  12.490  13.330
 3761DOPG   C3B66995  25.460  12.940  13.240
 3761DOPG   C4B66996  25.420  13.220  12.800
 3762DOPG   GL066997  27.890  11.980  15.740
 3762DOPG   PO466998  27.930  11.840  15.200
 3762DOPG   GL166999  27.540  11.660  15.130
 3762DOPG   GL267000  27.550  11.390  14.870
 3762DOPG   C1A67001  27.100  11.640  15.050
 3762DOPG   D2A67002  26.710  11.660  15.160
 3762DOPG   C3A67003  26.440  11.520  15.480
 3762DOPG   C4A67004  26.570  11.250  15.790
 3762DOPG   C1B67005  27.270  11.450  14.610
 3762DOPG   D2B67006  27.100  11.190  14.340
 3762DOPG   C3B67007  26.650  10.990  14.350
 3762DOPG   C4B67008  26.260  10.990  14.500
 3763DOPG   GL067009  21.970  14.870  15.060
 3763DOPG   PO467010  21.800  15.000  15.490
 3763DOPG   GL167011  21.700  14.780  15.810
 3763DOPG   GL267012  21.730  14.470  15.780
 3763DOPG   C1A67013  21.670  14.840  16.260
 3763DOPG   D2A67014  21.930  14.960  16.660
 3763DOPG   C3A67015  21.880  14.510  16.790
 3763DOPG   C4A67016  21.870  14.480  17.260
 3763DOPG   C1B67017  21.900  14.370  16.120
 3763DOPG   D2B67018  22.160  14.580  16.430
 3763DOPG   C3B67019  22.490  14.480  16.600
 3763DOPG   C4B67020  22.660  14.560  16.780
 3764DOPG   GL067021  20.420  12.940  12.290
 3764DOPG   PO467022  20.760  12.840  12.030
 3764DOPG   GL167023  20.530  12.750  11.670
 3764DOPG   GL267024  20.470  12.450  11.820
 3764DOPG   C1A67025  20.150  12.730  11.440
 3764DOPG   D2A67026  19.770  12.650  11.250
 3764DOPG   C3A67027  19.560  12.390  11.440
 3764DOPG   C4A67028  19.010  12.410  11.470
 3764DOPG   C1B67029  20.330  12.260  11.390
 3764DOPG   D2B67030  19.950  12.120  11.160
 3764DOPG   C3B67031  19.930  11.750  10.780
 3764DOPG   C4B67032  20.210  11.560  10.430
 3765DOPG   GL067033  19.080  14.020  12.140
 3765DOPG   PO467034  18.800  14.310  11.970
 3765DOPG   GL167035  19.040  14.080  11.690
 3765DOPG   GL267036  19.120  14.300  11.430
 3765DOPG   C1A67037  19.220  13.840  11.310
 3765DOPG   D2A67038  19.410  13.680  10.870
 3765DOPG   C3A67039  19.360  13.600  10.490
 3765DOPG   C4A67040  19.410  13.600  10.090
 3765DOPG   C1B67041  19.060  14.200  11.030
 3765DOPG   D2B67042  18.660  14.220  10.760
 3765DOPG   C3B67043  18.660  14.480  10.450
 3765DOPG   C4B67044  18.820  14.470  10.020
 3766DOPG   GL067045  18.250  19.190  13.530
 3766DOPG   PO467046  18.100  19.580  13.300
 3766DOPG   GL167047  17.950  19.990  13.140
 3766DOPG   GL267048  17.860  20.240  13.100
 3766DOPG   C1A67049  18.270  20.370  12.900
 3766DOPG   D2A67050  18.700  20.370  12.900
 3766DOPG   C3A67051  18.980  20.480  12.490
 3766DOPG   C4A67052  18.990  20.500  12.070
 3766DOPG   C1B67053  17.530  20.490  13.400
 3766DOPG   D2B67054  17.310  20.250  13.730
 3766DOPG   C3B67055  17.110  20.500  14.100
 3766DOPG   C4B67056  17.020  20.630  14.490
 3767DOPG   GL067057  18.500  17.340  15.000
 3767DOPG   PO467058  18.190  17.650  14.870
 3767DOPG   GL167059  17.930  17.500  15.120
 3767DOPG   GL267060  17.930  17.740  15.390
 3767DOPG   C1A67061  17.480  17.590  15.350
 3767DOPG   D2A67062  17.310  17.770  15.700
 3767DOPG   C3A67063  16.910  17.990  15.770
 3767DOPG   C4A67064  16.530  17.870  15.910
 3767DOPG   C1B67065  18.190  17.580  15.760
 3767DOPG   D2B67066  18.540  17.800  16.060
 3767DOPG   C3B67067  18.600  18.290  16.000
 3767DOPG   C4B67068  18.560  18.580  16.370
 3768DOPG   GL067069  18.190  18.680  12.920
 3768DOPG   PO467070  18.360  19.000  12.760
 3768DOPG   GL167071  18.450  19.130  12.360
 3768DOPG   GL267072  18.390  19.110  12.110
 3768DOPG   C1A67073  18.770  19.570  12.270
 3768DOPG   D2A67074  18.990  19.970  12.260
 3768DOPG   C3A67075  19.400  20.030  12.420
 3768DOPG   C4A67076  19.810  20.210  12.710
 3768DOPG   C1B67077  18.490  19.430  11.770
 3768DOPG   D2B67078  18.180  19.800  11.570
 3768DOPG   C3B67079  18.080  20.150  11.620
 3768DOPG   C4B67080  17.810  20.610  11.610
 3769DOPG   GL067081  21.320  17.470  14.220
 3769DOPG   PO467082  21.460  17.190  14.480
 3769DOPG   GL167083  21.580  17.530  14.680
 3769DOPG   GL267084  21.850  17.380  14.960
 3769DOPG   C1A67085  21.470  17.800  15.050
 3769DOPG   D2A67086  21.590  18.070  15.530
 3769DOPG   C3A67087  21.700  18.450  15.320
 3769DOPG   C4A67088  21.670  18.910  15.260
 3769DOPG   C1B67089  21.760  17.530  15.470
 3769DOPG   D2B67090  21.740  17.760  15.870
 3769DOPG   C3B67091  21.370  17.770  16.070
 3769DOPG   C4B67092  21.130  17.790  16.500
 3770DOPG   GL067093  18.100  11.280  12.430
 3770DOPG   PO467094  18.270  11.680  12.510
 3770DOPG   GL167095  18.280  11.740  12.090
 3770DOPG   GL267096  17.980  11.500  12.010
 3770DOPG   C1A67097  18.290  11.960  11.700
 3770DOPG   D2A67098  18.070  11.980  11.310
 3770DOPG   C3A67099  18.260  12.210  10.910
 3770DOPG   C4A67100  18.380  12.100  10.570
 3770DOPG   C1B67101  17.900  11.620  11.580
 3770DOPG   D2B67102  17.590  11.570  11.170
 3770DOPG   C3B67103  17.270  11.340  11.170
 3770DOPG   C4B67104  16.800  11.290  11.180
 3771DOPG   GL067105  23.740  15.440  14.460
 3771DOPG   PO467106  23.410  15.390  14.190
 3771DOPG   GL167107  23.830  15.540  13.920
 3771DOPG   GL267108  24.150  15.440  14.010
 3771DOPG   C1A67109  24.210  15.880  13.720
 3771DOPG   D2A67110  24.380  15.740  13.440
 3771DOPG   C3A67111  24.470  15.920  13.030
 3771DOPG   C4A67112  24.640  15.830  12.610
 3771DOPG   C1B67113  24.520  15.480  13.940
 3771DOPG   D2B67114  24.810  15.610  13.770
 3771DOPG   C3B67115  24.960  15.760  13.420
 3771DOPG   C4B67116  24.900  15.650  13.020
 3772DOPG   GL067117  19.610  22.180  14.210
 3772DOPG   PO467118  19.220  22.520  14.190
 3772DOPG   GL167119  19.120  22.090  14.190
 3772DOPG   GL267120  18.720  22.050  14.040
 3772DOPG   C1A67121  19.380  21.720  14.270
 3772DOPG   D2A67122  19.530  21.260  14.390
 3772DOPG   C3A67123  19.170  20.880  14.290
 3772DOPG   C4A67124  18.980  20.550  14.350
 3772DOPG   C1B67125  18.820  21.610  13.910
 3772DOPG   D2B67126  18.730  21.250  13.700
 3772DOPG   C3B67127  18.800  20.840  13.900
 3772DOPG   C4B67128  18.590  20.360  14.040
  37.89147  37.89147  27.14632
