BUMPy system t= 1000000.00000 step= 50000000
67128
    1BOLB   NC1    1   2.760  17.160  17.710
    1BOLB   PO1    2   2.560  17.240  17.240
    1BOLB   GL1    3   2.320  16.870  17.360
    1BOLB   GL2    4   2.260  16.820  17.660
    1BOLB   C1A    5   1.930  16.500  17.410
    1BOLB   C2A    6   1.530  16.380  17.200
    1BOLB   C3A    7   1.200  16.240  17.340
    1BOLB   C4A    8   1.110  16.070  17.750
    1BOLB   C1B    9   2.130  16.650  18.090
    1BOLB   C2B   10   2.240  16.210  18.350
    1BOLB   C3B   11   2.160  16.080  18.700
    1BOLB   C4B   12   1.780  15.880  18.990
    1BOLB   NC2   13  36.000  14.400  18.640
    1BOLB   PO2   14  36.220  14.760  18.930
    1BOLB   GL3   15   0.260  14.900  18.780
    1BOLB   GL4   16   0.500  15.200  18.980
    1BOLB   C1C   17   0.740  14.890  18.730
    1BOLB   C2C   18   0.950  14.940  18.320
    1BOLB   C3C   19   1.230  15.180  18.050
    1BOLB   C4C   20   1.300  15.540  17.790
    1BOLB   C1D   21   0.810  15.540  19.030
    1BOLB   C2D   22   1.160  15.770  18.930
    1BOLB   C3D   23   1.110  16.140  18.640
    1BOLB   C4D   24   1.030  16.040  18.240
    2BOLB   NC1   25   5.510  21.550  21.400
    2BOLB   PO1   26   5.080  21.630  21.460
    2BOLB   GL1   27   4.980  21.550  21.830
    2BOLB   GL2   28   4.780  21.830  22.220
    2BOLB   C1A   29   4.810  21.280  22.110
    2BOLB   C2A   30   4.670  21.320  22.560
    2BOLB   C3A   31   4.590  21.290  22.980
    2BOLB   C4A   32   4.580  21.460  23.450
    2BOLB   C1B   33   4.820  22.280  22.220
    2BOLB   C2B   34   4.570  22.610  22.450
    2BOLB   C3B   35   4.470  23.010  22.590
    2BOLB   C4B   36   4.290  23.340  22.780
    2BOLB   NC2   37   2.420  22.070  23.890
    2BOLB   PO2   38   2.300  21.800  24.280
    2BOLB   GL3   39   2.650  21.620  24.160
    2BOLB   GL4   40   2.740  21.640  23.900
    2BOLB   C1C   41   3.050  21.340  24.150
    2BOLB   C2C   42   3.460  21.320  24.080
    2BOLB   C3C   43   3.910  21.300  24.040
    2BOLB   C4C   44   4.240  21.410  23.820
    2BOLB   C1D   45   2.890  21.610  23.440
    2BOLB   C2D   46   3.130  21.560  23.010
    2BOLB   C3D   47   3.120  21.600  22.600
    2BOLB   C4D   48   3.090  21.430  22.180
    3BOLB   NC1   49   2.490  16.120  14.170
    3BOLB   PO1   50   2.210  16.320  13.840
    3BOLB   GL1   51   1.800  16.340  13.760
    3BOLB   GL2   52   1.780  16.120  13.520
    3BOLB   C1A   53   1.280  16.270  13.740
    3BOLB   C2A   54   0.920  16.140  13.430
    3BOLB   C3A   55   0.750  16.060  13.030
    3BOLB   C4A   56   0.570  15.830  12.790
    3BOLB   C1B   57   1.360  16.340  13.190
    3BOLB   C2B   58   1.010  16.450  13.030
    3BOLB   C3B   59   0.590  16.610  12.870
    3BOLB   C4B   60   0.330  16.760  12.730
    3BOLB   NC2   61  34.700  15.470  12.530
    3BOLB   PO2   62  35.030  15.180  12.440
    3BOLB   GL3   63  35.230  15.370  12.770
    3BOLB   GL4   64  35.100  15.650  12.830
    3BOLB   C1C   65  35.600  15.600  12.660
    3BOLB   C2C   66  35.820  15.880  12.570
    3BOLB   C3C   67  36.220  15.980  12.460
    3BOLB   C4C   68   0.270  15.800  12.540
    3BOLB   C1D   69  35.320  15.990  12.560
    3BOLB   C2D   70  35.440  16.470  12.750
    3BOLB   C3D   71  35.880  16.700  12.940
    3BOLB   C4D   72  36.330  16.540  12.980
    4BOLB   NC1   73   2.140  18.970  11.600
    4BOLB   PO1   74   2.240  18.710  11.210
    4BOLB   GL1   75   1.890  18.750  11.180
    4BOLB   GL2   76   1.770  18.860  10.880
    4BOLB   C1A   77   1.580  18.450  11.360
    4BOLB   C2A   78   1.100  18.500  11.440
    4BOLB   C3A   79   0.800  18.430  11.740
    4BOLB   C4A   80   0.460  18.640  12.000
    4BOLB   C1B   81   1.330  18.720  11.040
    4BOLB   C2B   82   0.930  18.730  10.990
    4BOLB   C3B   83   0.650  18.420  10.980
    4BOLB   C4B   84   0.380  18.200  11.180
    4BOLB   NC2   85  34.480  17.940  11.460
    4BOLB   PO2   86  34.660  17.620  11.250
    4BOLB   GL3   87  34.960  17.840  11.470
    4BOLB   GL4   88  35.130  18.040  11.150
    4BOLB   C1C   89  35.380  18.140  11.560
    4BOLB   C2C   90  35.780  18.180  11.460
    4BOLB   C3C   91  36.040  18.540  11.510
    4BOLB   C4C   92   0.020  18.660  11.850
    4BOLB   C1D   93  35.210  18.450  11.200
    4BOLB   C2D   94  35.170  18.860  11.180
    4BOLB   C3D   95  35.310  19.310  11.350
    4BOLB   C4D   96  35.690  19.470  11.530
    5BOLB   NC1   97  12.550  15.550  21.350
    5BOLB   PO1   98  12.340  15.780  21.540
    5BOLB   GL1   99  12.410  15.580  21.940
    5BOLB   GL2  100  12.300  15.260  21.900
    5BOLB   C1A  101  12.150  15.590  22.260
    5BOLB   C2A  102  12.040  15.510  22.770
    5BOLB   C3A  103  11.840  15.370  23.180
    5BOLB   C4A  104  11.780  15.020  23.430
    5BOLB   C1B  105  12.510  15.320  22.390
    5BOLB   C2B  106  12.400  15.020  22.690
    5BOLB   C3B  107  12.150  14.860  23.050
    5BOLB   C4B  108  12.040  14.370  23.070
    5BOLB   NC2  109  11.250  13.470  25.070
    5BOLB   PO2  110  11.670  13.660  25.110
    5BOLB   GL3  111  11.550  13.640  24.720
    5BOLB   GL4  112  11.260  13.860  24.710
    5BOLB   C1C  113  11.730  13.980  24.510
    5BOLB   C2C  114  11.850  14.250  24.080
    5BOLB   C3C  115  12.080  14.530  24.090
    5BOLB   C4C  116  12.120  14.800  23.650
    5BOLB   C1D  117  11.290  13.850  24.300
    5BOLB   C2D  118  11.670  13.780  24.050
    5BOLB   C3D  119  11.850  13.660  23.670
    5BOLB   C4D  120  12.110  13.850  23.290
    6BOLB   NC1  121   2.920  19.520  19.640
    6BOLB   PO1  122   2.940  19.990  19.690
    6BOLB   GL1  123   2.660  20.250  19.890
    6BOLB   GL2  124   2.440  20.480  19.720
    6BOLB   C1A  125   2.420  20.080  20.190
    6BOLB   C2A  126   2.170  19.930  20.570
    6BOLB   C3A  127   2.070  19.510  20.840
    6BOLB   C4A  128   1.910  19.060  20.840
    6BOLB   C1B  129   1.980  20.560  19.650
    6BOLB   C2B  130   1.600  20.480  19.860
    6BOLB   C3B  131   1.220  20.280  19.930
    6BOLB   C4B  132   0.960  20.010  20.030
    6BOLB   NC2  133   0.840  18.340  22.570
    6BOLB   PO2  134   0.570  18.290  22.160
    6BOLB   GL3  135   0.820  18.630  22.130
    6BOLB   GL4  136   1.120  18.320  22.130
    6BOLB   C1C  137   1.230  18.750  21.940
    6BOLB   C2C  138   1.280  18.610  21.550
    6BOLB   C3C  139   1.470  18.510  21.290
    6BOLB   C4C  140   1.880  18.630  21.080
    6BOLB   C1D  141   1.310  17.850  21.890
    6BOLB   C2D  142   1.300  17.850  21.480
    6BOLB   C3D  143   1.250  17.960  21.050
    6BOLB   C4D  144   1.130  17.720  20.670
    7BOLB   NC1  145   5.750  24.640  20.500
    7BOLB   PO1  146   5.980  24.510  20.860
    7BOLB   GL1  147   5.630  24.600  21.010
    7BOLB   GL2  148   5.720  24.880  21.180
    7BOLB   C1A  149   5.280  24.800  21.420
    7BOLB   C2A  150   4.890  24.890  21.710
    7BOLB   C3A  151   4.780  25.190  21.930
    7BOLB   C4A  152   4.710  25.220  22.390
    7BOLB   C1B  153   5.670  25.220  21.490
    7BOLB   C2B  154   5.370  25.270  21.850
    7BOLB   C3B  155   5.210  25.240  22.330
    7BOLB   C4B  156   5.410  25.580  22.680
    7BOLB   NC2  157   4.140  26.640  23.800
    7BOLB   PO2  158   4.390  26.670  24.170
    7BOLB   GL3  159   4.510  26.370  23.900
    7BOLB   GL4  160   4.620  26.570  23.640
    7BOLB   C1C  161   4.970  26.240  23.770
    7BOLB   C2C  162   5.100  26.100  23.390
    7BOLB   C3C  163   5.110  25.720  23.050
    7BOLB   C4C  164   4.900  25.490  22.730
    7BOLB   C1D  165   4.670  26.260  23.290
    7BOLB   C2D  166   4.730  26.070  22.900
    7BOLB   C3D  167   4.500  25.820  22.740
    7BOLB   C4D  168   4.260  25.470  22.840
    8BOLB   NC1  169   4.030  15.410  17.440
    8BOLB   PO1  170   3.920  15.190  17.000
    8BOLB   GL1  171   3.690  14.950  17.310
    8BOLB   GL2  172   3.770  15.060  17.660
    8BOLB   C1A  173   3.390  14.640  17.320
    8BOLB   C2A  174   3.220  14.350  17.680
    8BOLB   C3A  175   2.880  14.160  17.870
    8BOLB   C4A  176   2.500  14.240  18.080
    8BOLB   C1B  177   3.640  14.650  17.780
    8BOLB   C2B  178   3.560  14.310  18.030
    8BOLB   C3B  179   3.340  14.020  18.180
    8BOLB   C4B  180   2.980  13.990  18.310
    8BOLB   NC2  181   1.120  12.100  18.320
    8BOLB   PO2  182   1.160  12.520  18.620
    8BOLB   GL3  183   1.630  12.600  18.530
    8BOLB   GL4  184   1.310  12.960  18.520
    8BOLB   C1C  185   2.020  12.850  18.770
    8BOLB   C2C  186   2.210  13.160  18.520
    8BOLB   C3C  187   2.400  13.570  18.510
    8BOLB   C4C  188   2.280  13.890  18.130
    8BOLB   C1D  189   1.590  12.990  18.190
    8BOLB   C2D  190   1.740  13.250  17.960
    8BOLB   C3D  191   2.000  13.590  17.730
    8BOLB   C4D  192   2.040  13.780  17.320
    9BOLB   NC1  193   7.420  15.090   8.630
    9BOLB   PO1  194   7.710  14.820   8.910
    9BOLB   GL1  195   7.540  14.640   8.450
    9BOLB   GL2  196   7.780  14.480   8.380
    9BOLB   C1A  197   7.400  14.610   8.040
    9BOLB   C2A  198   7.390  14.390   7.720
    9BOLB   C3A  199   7.270  14.250   7.300
    9BOLB   C4A  200   6.930  14.380   7.060
    9BOLB   C1B  201   7.780  14.170   8.050
    9BOLB   C2B  202   7.510  13.900   7.750
    9BOLB   C3B  203   7.540  13.500   7.650
    9BOLB   C4B  204   7.200  13.370   7.330
    9BOLB   NC2  205   5.890  13.830   4.660
    9BOLB   PO2  206   6.040  14.160   4.860
    9BOLB   GL3  207   6.190  14.500   5.120
    9BOLB   GL4  208   6.490  14.500   5.060
    9BOLB   C1C  209   6.260  14.520   5.560
    9BOLB   C2C  210   6.480  14.330   5.880
    9BOLB   C3C  211   6.630  14.400   6.270
    9BOLB   C4C  212   6.660  14.440   6.810
    9BOLB   C1D  213   6.440  14.990   5.210
    9BOLB   C2D  214   6.580  15.330   5.580
    9BOLB   C3D  215   6.460  15.640   5.830
    9BOLB   C4D  216   6.610  15.950   6.080
   10BOLB   NC1  217  12.100  22.690  21.850
   10BOLB   PO1  218  11.720  22.740  21.830
   10BOLB   GL1  219  11.740  22.950  22.250
   10BOLB   GL2  220  11.450  23.120  22.360
   10BOLB   C1A  221  11.970  23.060  22.600
   10BOLB   C2A  222  12.190  23.380  22.780
   10BOLB   C3A  223  12.140  23.540  23.190
   10BOLB   C4A  224  12.200  23.550  23.720
   10BOLB   C1B  225  11.530  23.280  22.740
   10BOLB   C2B  226  11.430  23.590  23.020
   10BOLB   C3B  227  11.170  23.750  23.340
   10BOLB   C4B  228  10.860  23.800  23.630
   10BOLB   NC2  229  12.110  24.200  26.290
   10BOLB   PO2  230  12.410  24.120  25.910
   10BOLB   GL3  231  12.250  23.990  25.510
   10BOLB   GL4  232  12.080  23.840  25.240
   10BOLB   C1C  233  12.110  24.270  25.080
   10BOLB   C2C  234  11.870  24.110  24.800
   10BOLB   C3C  235  11.890  23.800  24.520
   10BOLB   C4C  236  12.080  23.730  24.150
   10BOLB   C1D  237  11.940  23.580  24.970
   10BOLB   C2D  238  12.100  23.430  24.720
   10BOLB   C3D  239  12.080  23.200  24.310
   10BOLB   C4D  240  12.120  22.910  23.980
   11BOLB   NC1  241   3.110  16.100  11.880
   11BOLB   PO1  242   3.100  15.730  11.930
   11BOLB   GL1  243   2.810  15.550  11.780
   11BOLB   GL2  244   2.600  15.290  11.860
   11BOLB   C1A  245   2.540  15.620  11.500
   11BOLB   C2A  246   2.270  15.390  11.200
   11BOLB   C3A  247   1.890  15.050  11.170
   11BOLB   C4A  248   1.610  14.930  10.830
   11BOLB   C1B  249   2.360  14.900  11.760
   11BOLB   C2B  250   2.350  14.470  11.730
   11BOLB   C3B  251   2.330  14.020  11.510
   11BOLB   C4B  252   2.550  13.750  11.140
   11BOLB   NC2  253   0.200  14.070   9.420
   11BOLB   PO2  254   0.130  13.610   9.510
   11BOLB   GL3  255   0.450  13.840   9.770
   11BOLB   GL4  256   0.300  14.230   9.970
   11BOLB   C1C  257   0.820  14.070   9.960
   11BOLB   C2C  258   1.070  14.380  10.100
   11BOLB   C3C  259   1.170  14.700  10.330
   11BOLB   C4C  260   1.520  14.790  10.400
   11BOLB   C1D  261   0.360  14.060  10.320
   11BOLB   C2D  262   0.660  14.380  10.560
   11BOLB   C3D  263   1.060  14.540  10.860
   11BOLB   C4D  264   0.990  14.790  11.280
   12BOLB   NC1  265   4.280  22.730  10.380
   12BOLB   PO1  266   4.040  23.090  10.480
   12BOLB   GL1  267   3.690  23.240  10.220
   12BOLB   GL2  268   3.410  23.250  10.420
   12BOLB   C1A  269   3.420  23.290   9.880
   12BOLB   C2A  270   3.010  23.470   9.810
   12BOLB   C3A  271   2.740  23.780   9.740
   12BOLB   C4A  272   2.340  23.690   9.810
   12BOLB   C1B  273   3.030  23.240  10.270
   12BOLB   C2B  274   2.630  23.290  10.180
   12BOLB   C3B  275   2.240  23.030  10.320
   12BOLB   C4B  276   2.110  22.660  10.230
   12BOLB   NC2  277   1.460  25.220   8.480
   12BOLB   PO2  278   1.500  24.990   8.170
   12BOLB   GL3  279   1.530  24.620   8.250
   12BOLB   GL4  280   1.370  24.440   8.430
   12BOLB   C1C  281   1.810  24.280   8.440
   12BOLB   C2C  282   1.790  23.960   8.710
   12BOLB   C3C  283   1.850  23.960   9.230
   12BOLB   C4C  284   1.920  23.680   9.620
   12BOLB   C1D  285   1.610  24.410   8.910
   12BOLB   C2D  286   2.020  24.450   8.990
   12BOLB   C3D  287   2.370  24.370   9.250
   12BOLB   C4D  288   2.530  24.220   9.610
   13BOLB   NC1  289   9.210  21.360  27.230
   13BOLB   PO1  290   9.600  21.690  27.060
   13BOLB   GL1  291   9.500  21.630  26.620
   13BOLB   GL2  292   9.470  21.270  26.660
   13BOLB   C1A  293   9.300  21.550  26.220
   13BOLB   C2A  294   9.110  21.600  25.820
   13BOLB   C3A  295   8.910  21.870  25.460
   13BOLB   C4A  296   8.680  22.260  25.490
   13BOLB   C1B  297   9.560  21.140  26.280
   13BOLB   C2B  298   9.600  20.790  25.930
   13BOLB   C3B  299   9.910  20.520  25.770
   13BOLB   C4B  300   9.930  20.130  25.940
   13BOLB   NC2  301   7.740  22.960  27.490
   13BOLB   PO2  302   7.680  23.140  27.050
   13BOLB   GL3  303   7.530  22.890  26.780
   13BOLB   GL4  304   7.240  22.730  26.760
   13BOLB   C1C  305   7.560  22.450  26.530
   13BOLB   C2C  306   7.780  22.260  26.080
   13BOLB   C3C  307   7.920  22.390  25.720
   13BOLB   C4C  308   8.280  22.410  25.590
   13BOLB   C1D  309   7.090  22.320  26.500
   13BOLB   C2D  310   7.080  21.880  26.380
   13BOLB   C3D  311   6.800  21.470  26.230
   13BOLB   C4D  312   6.670  21.090  26.310
   14BOLB   NC1  313   5.740  13.370  16.900
   14BOLB   PO1  314   5.880  13.390  17.360
   14BOLB   GL1  315   5.660  13.220  17.690
   14BOLB   GL2  316   5.880  13.100  17.930
   14BOLB   C1A  317   5.300  12.860  17.960
   14BOLB   C2A  318   5.080  12.400  17.890
   14BOLB   C3A  319   5.110  12.000  17.950
   14BOLB   C4A  320   5.160  11.720  18.340
   14BOLB   C1B  321   5.720  12.720  18.180
   14BOLB   C2B  322   5.460  12.740  18.550
   14BOLB   C3B  323   5.050  12.770  18.630
   14BOLB   C4B  324   4.840  12.510  18.900
   14BOLB   NC2  325   3.860  10.270  20.420
   14BOLB   PO2  326   4.090  10.230  20.000
   14BOLB   GL3  327   4.360  10.630  19.930
   14BOLB   GL4  328   4.650  10.500  19.920
   14BOLB   C1C  329   4.520  10.900  19.570
   14BOLB   C2C  330   4.610  11.280  19.420
   14BOLB   C3C  331   4.910  11.650  19.220
   14BOLB   C4C  332   5.120  11.570  18.810
   14BOLB   C1D  333   4.850  10.520  19.630
   14BOLB   C2D  334   5.030  10.910  19.550
   14BOLB   C3D  335   5.470  10.930  19.380
   14BOLB   C4D  336   5.960  10.950  19.270
   15BOLB   NC1  337   9.590  11.820  11.410
   15BOLB   PO1  338   9.500  11.870  10.970
   15BOLB   GL1  339   9.270  11.590  10.820
   15BOLB   GL2  340   9.400  11.400  10.650
   15BOLB   C1A  341   8.890  11.350  10.850
   15BOLB   C2A  342   8.600  11.160  10.550
   15BOLB   C3A  343   8.570  10.750  10.380
   15BOLB   C4A  344   8.760  10.330  10.420
   15BOLB   C1B  345   9.220  11.070  10.470
   15BOLB   C2B  346   9.080  10.780  10.130
   15BOLB   C3B  347   9.270  10.410   9.820
   15BOLB   C4B  348   9.560   9.870   9.720
   15BOLB   NC2  349   7.960   8.610   9.460
   15BOLB   PO2  350   8.290   8.410   9.740
   15BOLB   GL3  351   8.420   8.780   9.630
   15BOLB   GL4  352   8.750   8.880   9.520
   15BOLB   C1C  353   8.360   8.990   9.940
   15BOLB   C2C  354   8.340   9.240  10.270
   15BOLB   C3C  355   8.510   9.630  10.600
   15BOLB   C4C  356   8.600   9.980  10.520
   15BOLB   C1D  357   8.750   9.240   9.800
   15BOLB   C2D  358   8.690   9.600  10.110
   15BOLB   C3D  359   8.610   9.990  10.030
   15BOLB   C4D  360   8.790  10.290   9.900
   16BOLB   NC1  361  10.220  13.380  19.430
   16BOLB   PO1  362   9.790  13.190  19.320
   16BOLB   GL1  363   9.980  12.860  19.360
   16BOLB   GL2  364  10.000  12.570  19.370
   16BOLB   C1A  365  10.110  12.730  19.790
   16BOLB   C2A  366  10.240  12.560  20.240
   16BOLB   C3A  367  10.220  12.050  20.220
   16BOLB   C4A  368  10.180  11.590  20.090
   16BOLB   C1B  369  10.010  12.230  19.680
   16BOLB   C2B  370   9.790  11.940  19.940
   16BOLB   C3B  371   9.770  11.850  20.330
   16BOLB   C4B  372   9.480  11.710  20.480
   16BOLB   NC2  373   9.900  10.710  22.190
   16BOLB   PO2  374  10.080  10.500  21.930
   16BOLB   GL3  375   9.810  10.760  21.680
   16BOLB   GL4  376  10.080  11.020  21.690
   16BOLB   C1C  377   9.870  10.980  21.250
   16BOLB   C2C  378   9.900  10.760  20.880
   16BOLB   C3C  379   9.890  10.900  20.480
   16BOLB   C4C  380  10.190  11.140  20.120
   16BOLB   C1D  381  10.280  11.270  21.380
   16BOLB   C2D  382  10.410  11.430  21.000
   16BOLB   C3D  383  10.710  11.750  21.020
   16BOLB   C4D  384  10.780  12.150  20.840
   17BOLB   NC1  385   1.880  18.940  12.350
   17BOLB   PO1  386   1.690  19.320  12.280
   17BOLB   GL1  387   1.380  19.080  12.360
   17BOLB   GL2  388   1.110  19.290  12.400
   17BOLB   C1A  389   1.100  18.740  12.520
   17BOLB   C2A  390   0.880  18.450  12.330
   17BOLB   C3A  391   0.450  18.300  12.370
   17BOLB   C4A  392   0.090  18.020  12.310
   17BOLB   C1B  393   0.740  19.450  12.530
   17BOLB   C2B  394   0.500  19.670  12.200
   17BOLB   C3B  395   0.170  19.680  11.870
   17BOLB   C4B  396  36.170  19.580  11.680
   17BOLB   NC2  397  34.350  17.180  12.040
   17BOLB   PO2  398  34.390  16.960  11.600
   17BOLB   GL3  399  34.820  16.970  11.790
   17BOLB   GL4  400  34.800  16.990  12.060
   17BOLB   C1C  401  35.050  17.290  11.710
   17BOLB   C2C  402  35.220  17.680  11.940
   17BOLB   C3C  403  35.560  17.850  12.110
   17BOLB   C4C  404  35.970  17.850  12.290
   17BOLB   C1D  405  35.260  16.860  11.990
   17BOLB   C2D  406  35.730  16.720  12.120
   17BOLB   C3D  407  36.150  16.850  12.120
   17BOLB   C4D  408   0.120  16.630  12.260
   18BOLB   NC1  409  12.010  21.210  26.890
   18BOLB   PO1  410  11.700  20.850  26.680
   18BOLB   GL1  411  11.330  20.970  26.370
   18BOLB   GL2  412  11.000  20.790  26.400
   18BOLB   C1A  413  11.250  20.990  26.010
   18BOLB   C2A  414  11.040  21.060  25.610
   18BOLB   C3A  415  10.580  21.070  25.380
   18BOLB   C4A  416  10.180  21.190  25.260
   18BOLB   C1B  417  10.860  20.530  25.980
   18BOLB   C2B  418  10.790  20.600  25.530
   18BOLB   C3B  419  10.900  20.750  25.130
   18BOLB   C4B  420  10.790  20.830  24.690
   18BOLB   NC2  421   9.080  20.450  26.610
   18BOLB   PO2  422   8.800  20.080  26.750
   18BOLB   GL3  423   8.540  20.260  26.430
   18BOLB   GL4  424   8.430  20.110  26.140
   18BOLB   C1C  425   8.820  20.520  26.030
   18BOLB   C2C  426   9.170  20.700  25.790
   18BOLB   C3C  427   9.480  20.670  25.460
   18BOLB   C4C  428   9.820  20.970  25.340
   18BOLB   C1D  429   8.320  20.520  26.000
   18BOLB   C2D  430   8.370  20.820  25.820
   18BOLB   C3D  431   8.560  20.820  25.460
   18BOLB   C4D  432   8.930  20.880  25.400
   19BOLB   NC1  433   3.950  22.140  20.340
   19BOLB   PO1  434   3.940  22.240  19.910
   19BOLB   GL1  435   3.540  22.360  20.090
   19BOLB   GL2  436   3.340  22.510  19.780
   19BOLB   C1A  437   3.300  22.600  20.290
   19BOLB   C2A  438   2.970  22.660  20.550
   19BOLB   C3A  439   2.910  22.860  20.910
   19BOLB   C4A  440   2.680  22.930  21.240
   19BOLB   C1B  441   2.910  22.410  19.970
   19BOLB   C2B  442   2.620  22.290  20.360
   19BOLB   C3B  443   2.130  22.250  20.630
   19BOLB   C4B  444   1.690  22.230  20.800
   19BOLB   NC2  445   1.500  23.020  23.570
   19BOLB   PO2  446   1.630  22.720  23.370
   19BOLB   GL3  447   1.700  22.640  23.000
   19BOLB   GL4  448   1.390  22.400  22.890
   19BOLB   C1C  449   2.010  22.440  22.630
   19BOLB   C2C  450   2.240  22.630  22.260
   19BOLB   C3C  451   2.600  22.780  22.130
   19BOLB   C4C  452   2.730  22.920  21.690
   19BOLB   C1D  453   1.530  22.430  22.500
   19BOLB   C2D  454   1.780  22.420  22.040
   19BOLB   C3D  455   2.070  22.500  21.850
   19BOLB   C4D  456   2.470  22.470  21.620
   20BOLB   NC1  457   2.110  21.080  12.610
   20BOLB   PO1  458   1.980  21.540  12.790
   20BOLB   GL1  459   1.680  21.370  12.560
   20BOLB   GL2  460   1.470  21.570  12.680
   20BOLB   C1A  461   1.300  21.370  12.200
   20BOLB   C2A  462   1.010  21.650  12.130
   20BOLB   C3A  463   0.520  21.630  12.130
   20BOLB   C4A  464   0.200  21.520  12.010
   20BOLB   C1B  465   1.130  21.760  12.580
   20BOLB   C2B  466   0.780  22.030  12.410
   20BOLB   C3B  467   0.550  22.330  12.280
   20BOLB   C4B  468   0.100  22.390  12.070
   20BOLB   NC2  469  34.710  20.550  10.430
   20BOLB   PO2  470  34.790  20.940  10.400
   20BOLB   GL3  471  35.130  20.880  10.620
   20BOLB   GL4  472  35.230  20.610  10.420
   20BOLB   C1C  473  35.470  21.010  10.980
   20BOLB   C2C  474  35.860  21.140  11.310
   20BOLB   C3C  475  35.950  21.220  11.770
   20BOLB   C4C  476  36.190  21.420  12.040
   20BOLB   C1D  477  35.510  20.580  10.800
   20BOLB   C2D  478  35.800  20.640  11.170
   20BOLB   C3D  479  36.010  20.650  11.480
   20BOLB   C4D  480  36.020  20.230  11.820
   21BOLB   NC1  481   2.190  17.040  13.190
   21BOLB   PO1  482   2.400  17.130  12.850
   21BOLB   GL1  483   1.960  17.000  12.680
   21BOLB   GL2  484   1.880  16.880  12.380
   21BOLB   C1A  485   1.610  17.250  12.520
   21BOLB   C2A  486   1.240  17.180  12.370
   21BOLB   C3A  487   0.730  17.290  12.380
   21BOLB   C4A  488   0.330  17.160  12.200
   21BOLB   C1B  489   1.440  16.720  12.260
   21BOLB   C2B  490   1.090  16.560  12.530
   21BOLB   C3B  491   0.780  16.200  12.530
   21BOLB   C4B  492   0.310  16.270  12.540
   21BOLB   NC2  493  35.170  15.250  11.170
   21BOLB   PO2  494  35.190  15.460  11.600
   21BOLB   GL3  495  35.560  15.620  11.790
   21BOLB   GL4  496  35.760  15.350  12.020
   21BOLB   C1C  497  35.860  15.850  12.070
   21BOLB   C2C  498  36.180  16.270  12.000
   21BOLB   C3C  499   0.120  16.560  11.730
   21BOLB   C4C  500   0.190  16.930  11.740
   21BOLB   C1D  501  36.090  15.490  12.390
   21BOLB   C2D  502   0.080  15.370  12.480
   21BOLB   C3D  503   0.330  15.220  12.760
   21BOLB   C4D  504   0.740  15.140  12.900
   22BOLB   NC1  505   2.590   9.980  14.350
   22BOLB   PO1  506   2.320  10.300  14.450
   22BOLB   GL1  507   2.640  10.610  14.260
   22BOLB   GL2  508   2.780  10.370  14.090
   22BOLB   C1A  509   2.860  10.900  13.960
   22BOLB   C2A  510   2.970  11.170  13.610
   22BOLB   C3A  511   3.250  11.430  13.340
   22BOLB   C4A  512   3.210  11.780  13.210
   22BOLB   C1B  513   3.170  10.540  14.030
   22BOLB   C2B  514   3.290  10.690  13.710
   22BOLB   C3B  515   3.680  11.060  13.660
   22BOLB   C4B  516   3.840  11.380  13.630
   22BOLB   NC2  517   3.670  14.150  13.220
   22BOLB   PO2  518   3.870  14.170  12.840
   22BOLB   GL3  519   3.690  13.800  12.830
   22BOLB   GL4  520   3.540  13.710  13.190
   22BOLB   C1C  521   3.730  13.430  12.730
   22BOLB   C2C  522   3.710  12.940  12.770
   22BOLB   C3C  523   3.650  12.560  12.980
   22BOLB   C4C  524   3.470  12.090  13.070
   22BOLB   C1D  525   3.330  13.360  13.000
   22BOLB   C2D  526   3.200  12.930  13.090
   22BOLB   C3D  527   3.070  12.490  13.060
   22BOLB   C4D  528   2.970  12.120  12.910
   23BOLB   NC1  529   4.660  14.000  14.000
   23BOLB   PO1  530   4.430  13.710  13.760
   23BOLB   GL1  531   4.250  13.420  13.960
   23BOLB   GL2  532   4.400  13.050  13.890
   23BOLB   C1A  533   3.940  13.110  14.030
   23BOLB   C2A  534   3.660  12.760  13.970
   23BOLB   C3A  535   3.250  12.590  13.940
   23BOLB   C4A  536   2.950  12.310  13.960
   23BOLB   C1B  537   4.500  12.550  14.020
   23BOLB   C2B  538   4.150  12.280  13.870
   23BOLB   C3B  539   3.730  12.300  13.880
   23BOLB   C4B  540   3.400  12.010  13.980
   23BOLB   NC2  541   1.440  10.090  14.610
   23BOLB   PO2  542   1.530  10.510  14.860
   23BOLB   GL3  543   2.000  10.830  14.680
   23BOLB   GL4  544   1.940  11.180  14.670
   23BOLB   C1C  545   2.480  11.020  14.520
   23BOLB   C2C  546   2.790  11.120  14.380
   23BOLB   C3C  547   2.930  11.400  14.040
   23BOLB   C4C  548   2.840  11.870  14.110
   23BOLB   C1D  549   2.220  11.390  14.790
   23BOLB   C2D  550   2.470  11.830  14.790
   23BOLB   C3D  551   2.760  12.010  14.580
   23BOLB   C4D  552   3.110  12.090  14.500
   24BOLB   NC1  553   8.350  14.230  10.500
   24BOLB   PO1  554   8.100  14.060  10.730
   24BOLB   GL1  555   8.370  14.030  11.020
   24BOLB   GL2  556   8.270  13.910  11.290
   24BOLB   C1A  557   8.710  14.070  11.450
   24BOLB   C2A  558   8.830  14.250  11.860
   24BOLB   C3A  559   9.150  14.410  12.100
   24BOLB   C4A  560   9.550  14.390  12.170
   24BOLB   C1B  561   8.250  13.960  11.690
   24BOLB   C2B  562   8.360  14.180  12.030
   24BOLB   C3B  563   8.610  14.640  12.120
   24BOLB   C4B  564   8.580  15.070  11.900
   24BOLB   NC2  565  10.440  12.830  11.430
   24BOLB   PO2  566  10.800  12.620  11.570
   24BOLB   GL3  567  10.610  12.970  11.910
   24BOLB   GL4  568  10.810  12.980  12.230
   24BOLB   C1C  569  10.530  13.310  12.050
   24BOLB   C2C  570  10.540  13.700  12.390
   24BOLB   C3C  571  10.280  14.040  12.420
   24BOLB   C4C  572   9.990  14.480  12.320
   24BOLB   C1D  573  10.530  13.090  12.610
   24BOLB   C2D  574  10.090  13.000  12.770
   24BOLB   C3D  575   9.780  12.780  12.590
   24BOLB   C4D  576   9.350  12.840  12.550
   25BOLB   NC1  577   8.460  20.040   3.150
   25BOLB   PO1  578   8.140  20.280   2.970
   25BOLB   GL1  579   8.240  20.350   3.440
   25BOLB   GL2  580   7.930  20.660   3.520
   25BOLB   C1A  581   8.610  20.440   3.770
   25BOLB   C2A  582   8.770  20.160   4.110
   25BOLB   C3A  583   8.800  20.030   4.540
   25BOLB   C4A  584   9.160  20.130   4.780
   25BOLB   C1B  585   8.090  20.600   3.960
   25BOLB   C2B  586   8.260  20.500   4.340
   25BOLB   C3B  587   8.180  20.240   4.720
   25BOLB   C4B  588   7.920  19.890   4.790
   25BOLB   NC2  589  10.680  18.770   6.660
   25BOLB   PO2  590  10.870  19.130   6.410
   25BOLB   GL3  591  10.570  19.110   6.210
   25BOLB   GL4  592  10.410  18.880   6.250
   25BOLB   C1C  593  10.280  19.390   5.940
   25BOLB   C2C  594  10.150  19.630   5.570
   25BOLB   C3C  595   9.790  19.780   5.240
   25BOLB   C4C  596   9.580  20.040   4.910
   25BOLB   C1D  597  10.110  18.880   6.020
   25BOLB   C2D  598   9.970  18.990   5.670
   25BOLB   C3D  599  10.120  19.020   5.330
   25BOLB   C4D  600  10.200  19.380   5.090
   26BOLB   NC1  601   7.490  15.160  25.960
   26BOLB   PO1  602   7.620  15.060  25.600
   26BOLB   GL1  603   7.770  15.280  25.300
   26BOLB   GL2  604   7.790  15.490  25.580
   26BOLB   C1A  605   7.840  15.110  24.870
   26BOLB   C2A  606   7.900  15.020  24.400
   26BOLB   C3A  607   7.770  14.970  23.990
   26BOLB   C4A  608   7.670  14.820  23.620
   26BOLB   C1B  609   8.200  15.460  25.370
   26BOLB   C2B  610   8.390  15.680  25.010
   26BOLB   C3B  611   8.540  15.700  24.600
   26BOLB   C4B  612   8.450  15.640  24.110
   26BOLB   NC2  613   6.510  13.970  24.500
   26BOLB   PO2  614   6.070  14.020  24.450
   26BOLB   GL3  615   6.320  14.360  24.260
   26BOLB   GL4  616   6.460  14.620  24.480
   26BOLB   C1C  617   6.440  14.410  23.860
   26BOLB   C2C  618   6.510  14.520  23.380
   26BOLB   C3C  619   6.940  14.740  23.210
   26BOLB   C4C  620   7.390  14.870  23.440
   26BOLB   C1D  621   6.300  14.900  24.130
   26BOLB   C2D  622   6.380  15.070  23.730
   26BOLB   C3D  623   6.720  15.130  23.420
   26BOLB   C4D  624   6.830  15.200  22.970
   27BOLB   NC1  625  14.750  11.520  16.510
   27BOLB   PO1  626  14.530  11.170  16.650
   27BOLB   GL1  627  14.740  10.910  16.940
   27BOLB   GL2  628  14.930  10.990  17.130
   27BOLB   C1A  629  14.870  10.520  17.110
   27BOLB   C2A  630  14.900  10.180  17.280
   27BOLB   C3A  631  15.240   9.950  17.240
   27BOLB   C4A  632  15.530   9.810  17.590
   27BOLB   C1B  633  15.180  10.820  17.410
   27BOLB   C2B  634  15.340  10.450  17.350
   27BOLB   C3B  635  15.760  10.170  17.320
   27BOLB   C4B  636  16.230  10.080  17.370
   27BOLB   NC2  637  17.140   9.180  18.930
   27BOLB   PO2  638  17.540   9.370  18.900
   27BOLB   GL3  639  17.430   9.630  18.540
   27BOLB   GL4  640  17.580  10.010  18.470
   27BOLB   C1C  641  17.160   9.590  18.210
   27BOLB   C2C  642  16.800   9.880  18.100
   27BOLB   C3C  643  16.390   9.720  18.040
   27BOLB   C4C  644  15.900   9.730  17.620
   27BOLB   C1D  645  17.210  10.100  18.360
   27BOLB   C2D  646  17.050  10.360  18.200
   27BOLB   C3D  647  16.880  10.580  18.070
   27BOLB   C4D  648  16.880  10.950  17.810
   28BOLB   NC1  649  13.650   8.460   7.590
   28BOLB   PO1  650  13.660   8.960   7.480
   28BOLB   GL1  651  13.580   9.340   7.700
   28BOLB   GL2  652  13.720   9.580   7.580
   28BOLB   C1A  653  13.220   9.580   7.890
   28BOLB   C2A  654  13.120   9.840   8.180
   28BOLB   C3A  655  13.240  10.260   8.270
   28BOLB   C4A  656  13.300  10.720   8.120
   28BOLB   C1B  657  13.790   9.980   7.840
   28BOLB   C2B  658  13.890  10.310   8.110
   28BOLB   C3B  659  13.760  10.580   8.420
   28BOLB   C4B  660  13.980  10.710   8.820
   28BOLB   NC2  661  13.160  13.150   8.890
   28BOLB   PO2  662  13.380  12.950   9.320
   28BOLB   GL3  663  13.330  12.640   8.970
   28BOLB   GL4  664  13.080  12.430   9.050
   28BOLB   C1C  665  13.400  12.240   8.700
   28BOLB   C2C  666  13.500  11.860   8.520
   28BOLB   C3C  667  13.320  11.590   8.240
   28BOLB   C4C  668  13.250  11.200   8.090
   28BOLB   C1D  669  13.220  12.040   9.150
   28BOLB   C2D  670  13.630  11.780   9.020
   28BOLB   C3D  671  13.870  11.580   8.730
   28BOLB   C4D  672  14.070  11.210   8.810
   29BOLB   NC1  673   1.770  21.140  14.000
   29BOLB   PO1  674   1.720  20.900  14.350
   29BOLB   GL1  675   1.330  21.170  14.280
   29BOLB   GL2  676   1.150  21.100  14.000
   29BOLB   C1A  677   1.080  21.560  14.270
   29BOLB   C2A  678   0.650  21.740  14.240
   29BOLB   C3A  679   0.230  21.860  14.200
   29BOLB   C4A  680  36.180  21.870  14.000
   29BOLB   C1B  681   0.750  21.140  13.820
   29BOLB   C2B  682   0.390  21.050  13.450
   29BOLB   C3B  683   0.190  20.990  13.020
   29BOLB   C4B  684  36.330  21.200  12.730
   29BOLB   NC2  685  34.140  22.180  13.970
   29BOLB   PO2  686  33.900  21.750  14.160
   29BOLB   GL3  687  34.260  21.700  14.060
   29BOLB   GL4  688  34.200  21.430  13.810
   29BOLB   C1C  689  34.720  21.700  14.170
   29BOLB   C2C  690  35.150  21.510  14.190
   29BOLB   C3C  691  35.520  21.420  14.010
   29BOLB   C4C  692  35.860  21.640  13.890
   29BOLB   C1D  693  34.610  21.230  13.730
   29BOLB   C2D  694  34.960  21.310  13.650
   29BOLB   C3D  695  35.370  21.190  13.580
   29BOLB   C4D  696  35.590  20.940  13.280
   30BOLB   NC1  697   2.810  16.070  16.170
   30BOLB   PO1  698   2.470  16.020  15.850
   30BOLB   GL1  699   2.010  16.120  16.010
   30BOLB   GL2  700   1.930  15.830  15.880
   30BOLB   C1A  701   1.810  16.000  16.390
   30BOLB   C2A  702   1.440  15.710  16.540
   30BOLB   C3A  703   1.590  15.240  16.470
   30BOLB   C4A  704   1.520  14.820  16.320
   30BOLB   C1B  705   1.650  15.470  16.060
   30BOLB   C2B  706   1.390  15.140  15.910
   30BOLB   C3B  707   1.650  14.780  15.770
   30BOLB   C4B  708   1.530  14.450  15.660
   30BOLB   NC2  709  35.790  14.330  16.530
   30BOLB   PO2  710  36.020  14.680  16.520
   30BOLB   GL3  711  36.200  14.360  16.280
   30BOLB   GL4  712  36.190  13.960  16.270
   30BOLB   C1C  713   0.280  14.210  16.270
   30BOLB   C2C  714   0.600  14.250  15.990
   30BOLB   C3C  715   0.900  14.430  16.040
   30BOLB   C4C  716   1.260  14.560  16.060
   30BOLB   C1D  717   0.220  13.790  16.030
   30BOLB   C2D  718   0.290  13.900  15.550
   30BOLB   C3D  719   0.550  14.180  15.360
   30BOLB   C4D  720   0.550  14.590  15.170
   31BOLB   NC1  721   3.170  10.230  17.030
   31BOLB   PO1  722   3.520   9.920  17.140
   31BOLB   GL1  723   3.960   9.840  16.930
   31BOLB   GL2  724   3.980   9.880  16.570
   31BOLB   C1A  725   4.310  10.100  17.030
   31BOLB   C2A  726   4.570  10.470  16.800
   31BOLB   C3A  727   4.730  10.870  16.700
   31BOLB   C4A  728   4.810  10.950  16.230
   31BOLB   C1B  729   4.450   9.940  16.540
   31BOLB   C2B  730   4.810  10.150  16.430
   31BOLB   C3B  731   5.010  10.490  16.580
   31BOLB   C4B  732   5.360  10.760  16.300
   31BOLB   NC2  733   6.640  13.150  15.410
   31BOLB   PO2  734   6.240  12.990  15.770
   31BOLB   GL3  735   6.080  12.550  15.720
   31BOLB   GL4  736   6.320  12.230  15.620
   31BOLB   C1C  737   5.820  12.130  15.770
   31BOLB   C2C  738   5.520  11.870  15.740
   31BOLB   C3C  739   5.140  11.580  15.760
   31BOLB   C4C  740   4.990  11.220  15.930
   31BOLB   C1D  741   6.170  11.790  15.760
   31BOLB   C2D  742   6.070  11.320  15.810
   31BOLB   C3D  743   5.840  10.910  15.890
   31BOLB   C4D  744   5.670  10.430  15.760
   32BOLB   NC1  745  11.270  21.290  27.360
   32BOLB   PO1  746  11.100  21.600  27.120
   32BOLB   GL1  747  11.150  21.660  26.670
   32BOLB   GL2  748  10.790  21.670  26.560
   32BOLB   C1A  749  11.190  21.830  26.260
   32BOLB   C2A  750  11.510  21.910  25.840
   32BOLB   C3A  751  11.680  22.080  25.430
   32BOLB   C4A  752  11.500  22.320  25.230
   32BOLB   C1B  753  10.340  21.760  26.380
   32BOLB   C2B  754  10.210  21.840  25.930
   32BOLB   C3B  755  10.000  21.600  25.550
   32BOLB   C4B  756   9.760  21.460  25.250
   32BOLB   NC2  757  10.770  22.120  22.670
   32BOLB   PO2  758  11.150  22.290  22.710
   32BOLB   GL3  759  11.180  22.380  23.150
   32BOLB   GL4  760  11.520  22.390  23.060
   32BOLB   C1C  761  11.300  22.370  23.580
   32BOLB   C2C  762  11.370  22.290  23.920
   32BOLB   C3C  763  11.170  22.340  24.370
   32BOLB   C4C  764  11.190  22.370  24.890
   32BOLB   C1D  765  11.770  22.180  23.250
   32BOLB   C2D  766  11.900  22.060  23.640
   32BOLB   C3D  767  12.130  22.000  23.960
   32BOLB   C4D  768  12.290  22.280  24.210
   33BOLB   NC1  769   7.220  29.530  20.500
   33BOLB   PO1  770   7.300  29.220  20.890
   33BOLB   GL1  771   7.260  28.830  20.890
   33BOLB   GL2  772   7.010  28.690  20.880
   33BOLB   C1A  773   7.280  28.770  20.410
   33BOLB   C2A  774   7.400  28.900  20.070
   33BOLB   C3A  775   7.710  29.080  19.740
   33BOLB   C4A  776   7.620  28.940  19.310
   33BOLB   C1B  777   7.070  28.350  20.600
   33BOLB   C2B  778   7.220  28.300  20.220
   33BOLB   C3B  779   7.410  28.260  19.890
   33BOLB   C4B  780   7.540  28.460  19.580
   33BOLB   NC2  781   8.130  30.650  19.060
   33BOLB   PO2  782   8.240  30.560  18.570
   33BOLB   GL3  783   8.290  30.200  18.670
   33BOLB   GL4  784   8.710  30.080  18.690
   33BOLB   C1C  785   8.290  29.770  18.490
   33BOLB   C2C  786   7.970  29.510  18.390
   33BOLB   C3C  787   7.590  29.240  18.470
   33BOLB   C4C  788   7.520  29.010  18.850
   33BOLB   C1D  789   8.810  29.620  18.730
   33BOLB   C2D  790   8.520  29.320  18.540
   33BOLB   C3D  791   8.150  29.070  18.530
   33BOLB   C4D  792   7.920  28.920  18.210
   34BOLB   NC1  793   8.860  18.410  22.360
   34BOLB   PO1  794   9.210  18.130  22.540
   34BOLB   GL1  795   9.310  18.140  22.960
   34BOLB   GL2  796   9.480  17.940  23.060
   34BOLB   C1A  797   9.090  18.090  23.400
   34BOLB   C2A  798   8.870  17.990  23.830
   34BOLB   C3A  799   8.470  18.090  24.180
   34BOLB   C4A  800   8.440  18.120  24.570
   34BOLB   C1B  801   9.550  18.290  23.370
   34BOLB   C2B  802   9.470  18.400  23.660
   34BOLB   C3B  803   9.260  18.520  23.950
   34BOLB   C4B  804   8.930  18.350  24.200
   34BOLB   NC2  805   7.730  18.010  26.510
   34BOLB   PO2  806   7.960  17.670  26.660
   34BOLB   GL3  807   8.150  17.890  26.330
   34BOLB   GL4  808   8.400  18.180  26.330
   34BOLB   C1C  809   8.250  17.860  25.930
   34BOLB   C2C  810   8.080  17.770  25.530
   34BOLB   C3C  811   7.910  18.000  25.210
   34BOLB   C4C  812   8.100  17.970  24.810
   34BOLB   C1D  813   8.230  18.600  26.260
   34BOLB   C2D  814   7.930  18.780  25.950
   34BOLB   C3D  815   7.700  18.660  25.540
   34BOLB   C4D  816   7.590  18.720  25.100
   35BOLB   NC1  817   6.250  24.540  20.370
   35BOLB   PO1  818   6.440  24.730  20.710
   35BOLB   GL1  819   6.200  25.000  21.020
   35BOLB   GL2  820   6.200  24.720  21.360
   35BOLB   C1A  821   6.060  25.360  21.190
   35BOLB   C2A  822   5.770  25.660  21.330
   35BOLB   C3A  823   5.500  25.730  21.680
   35BOLB   C4A  824   5.450  25.870  22.110
   35BOLB   C1B  825   6.450  25.170  21.490
   35BOLB   C2B  826   6.300  25.570  21.620
   35BOLB   C3B  827   6.470  25.940  21.860
   35BOLB   C4B  828   6.470  26.060  22.320
   35BOLB   NC2  829   4.910  27.450  23.960
   35BOLB   PO2  830   5.200  27.270  23.640
   35BOLB   GL3  831   5.070  26.990  23.350
   35BOLB   GL4  832   5.070  26.620  23.460
   35BOLB   C1C  833   5.220  26.860  22.940
   35BOLB   C2C  834   5.330  26.700  22.530
   35BOLB   C3C  835   5.560  26.480  22.410
   35BOLB   C4C  836   5.580  26.020  22.380
   35BOLB   C1D  837   5.130  26.420  23.070
   35BOLB   C2D  838   5.190  26.210  22.770
   35BOLB   C3D  839   5.090  25.960  22.440
   35BOLB   C4D  840   4.980  25.640  22.180
   36BOLB   NC1  841   7.130  20.620  22.710
   36BOLB   PO1  842   6.880  20.900  22.590
   36BOLB   GL1  843   6.880  20.790  23.110
   36BOLB   GL2  844   7.050  21.070  23.270
   36BOLB   C1A  845   6.780  20.730  23.470
   36BOLB   C2A  846   6.940  20.840  23.830
   36BOLB   C3A  847   7.050  20.990  24.220
   36BOLB   C4A  848   7.090  21.300  24.630
   36BOLB   C1B  849   7.070  21.360  23.720
   36BOLB   C2B  850   7.000  21.460  24.100
   36BOLB   C3B  851   6.790  21.680  24.460
   36BOLB   C4B  852   6.690  21.480  24.910
   36BOLB   NC2  853   7.390  22.090  27.110
   36BOLB   PO2  854   7.270  21.660  27.140
   36BOLB   GL3  855   7.390  21.690  26.770
   36BOLB   GL4  856   7.450  21.990  26.620
   36BOLB   C1C  857   7.360  21.470  26.350
   36BOLB   C2C  858   7.200  21.440  25.910
   36BOLB   C3C  859   7.170  21.330  25.480
   36BOLB   C4C  860   7.250  21.310  25.050
   36BOLB   C1D  861   7.540  21.900  26.170
   36BOLB   C2D  862   7.450  21.820  25.670
   36BOLB   C3D  863   7.580  21.750  25.210
   36BOLB   C4D  864   7.580  21.560  24.800
   37BOLB   NC1  865   6.480  17.050   8.200
   37BOLB   PO1  866   6.040  17.230   8.200
   37BOLB   GL1  867   5.680  17.090   7.970
   37BOLB   GL2  868   5.460  17.130   8.170
   37BOLB   C1A  869   5.460  16.870   7.770
   37BOLB   C2A  870   5.150  16.680   7.560
   37BOLB   C3A  871   4.820  16.410   7.750
   37BOLB   C4A  872   4.380  16.170   7.610
   37BOLB   C1B  873   5.080  16.920   8.070
   37BOLB   C2B  874   4.840  17.200   7.810
   37BOLB   C3B  875   4.600  17.100   7.490
   37BOLB   C4B  876   4.610  16.560   7.340
   37BOLB   NC2  877   2.390  16.030   6.180
   37BOLB   PO2  878   2.460  15.720   6.460
   37BOLB   GL3  879   2.740  15.640   6.670
   37BOLB   GL4  880   2.560  15.540   6.930
   37BOLB   C1C  881   2.990  15.850   6.960
   37BOLB   C2C  882   3.380  15.940   7.030
   37BOLB   C3C  883   3.670  15.790   7.330
   37BOLB   C4C  884   4.000  16.060   7.520
   37BOLB   C1D  885   2.820  15.500   7.250
   37BOLB   C2D  886   2.840  15.540   7.690
   37BOLB   C3D  887   3.030  15.770   8.040
   37BOLB   C4D  888   2.970  15.830   8.500
   38BOLB   NC1  889   1.890  17.270  14.650
   38BOLB   PO1  890   1.520  17.410  14.700
   38BOLB   GL1  891   1.110  17.220  14.990
   38BOLB   GL2  892   1.120  17.000  15.070
   38BOLB   C1A  893   0.760  17.240  15.330
   38BOLB   C2A  894   0.510  17.140  15.390
   38BOLB   C3A  895   0.070  16.990  15.580
   38BOLB   C4A  896   0.020  16.800  15.990
   38BOLB   C1B  897   0.770  16.840  15.000
   38BOLB   C2B  898   0.350  16.710  15.210
   38BOLB   C3B  899   0.010  16.600  15.200
   38BOLB   C4B  900  35.980  16.600  15.370
   38BOLB   NC2  901  34.510  16.560  17.170
   38BOLB   PO2  902  34.580  16.270  16.990
   38BOLB   GL3  903  34.990  16.230  17.150
   38BOLB   GL4  904  35.000  16.440  17.470
   38BOLB   C1C  905  35.470  16.140  17.250
   38BOLB   C2C  906  35.880  16.260  17.040
   38BOLB   C3C  907  36.000  16.150  16.630
   38BOLB   C4C  908  36.210  16.510  16.300
   38BOLB   C1D  909  35.370  16.560  17.590
   38BOLB   C2D  910  35.800  16.700  17.690
   38BOLB   C3D  911  36.050  16.580  18.010
   38BOLB   C4D  912   0.060  16.260  17.970
   39BOLB   NC1  913  33.710  19.420  14.240
   39BOLB   PO1  914  34.020  19.350  14.040
   39BOLB   GL1  915  34.420  19.560  14.290
   39BOLB   GL2  916  34.370  19.970  14.300
   39BOLB   C1A  917  34.850  19.720  14.140
   39BOLB   C2A  918  35.280  19.810  14.130
   39BOLB   C3A  919  35.500  20.080  13.850
   39BOLB   C4A  920  35.900  20.180  13.590
   39BOLB   C1B  921  34.680  20.210  14.410
   39BOLB   C2B  922  34.780  20.370  14.830
   39BOLB   C3B  923  34.790  20.790  15.010
   39BOLB   C4B  924  34.450  21.150  15.080
   39BOLB   NC2  925  34.260  20.830  11.920
   39BOLB   PO2  926  34.660  20.540  11.880
   39BOLB   GL3  927  34.910  20.420  12.140
   39BOLB   GL4  928  34.750  20.200  12.340
   39BOLB   C1C  929  35.300  20.500  12.340
   39BOLB   C2C  930  35.650  20.680  12.560
   39BOLB   C3C  931  36.010  20.780  12.880
   39BOLB   C4C  932  36.070  20.540  13.280
   39BOLB   C1D  933  35.110  20.000  12.420
   39BOLB   C2D  934  35.470  19.730  12.390
   39BOLB   C3D  935  35.910  19.710  12.410
   39BOLB   C4D  936  36.130  19.380  12.100
   40BOLB   NC1  937   6.070  20.490  22.020
   40BOLB   PO1  938   6.270  20.110  22.280
   40BOLB   GL1  939   6.000  19.910  22.590
   40BOLB   GL2  940   6.300  20.010  22.880
   40BOLB   C1A  941   5.720  19.900  22.930
   40BOLB   C2A  942   5.530  19.920  23.350
   40BOLB   C3A  943   5.340  20.090  23.610
   40BOLB   C4A  944   4.920  20.110  23.640
   40BOLB   C1B  945   6.180  19.990  23.360
   40BOLB   C2B  946   6.150  20.140  23.790
   40BOLB   C3B  947   6.220  20.410  24.150
   40BOLB   C4B  948   6.080  20.710  24.490
   40BOLB   NC2  949   4.270  21.090  25.590
   40BOLB   PO2  950   3.820  20.960  25.680
   40BOLB   GL3  951   3.870  20.860  25.200
   40BOLB   GL4  952   3.780  21.130  25.080
   40BOLB   C1C  953   4.160  20.790  24.930
   40BOLB   C2C  954   4.470  20.370  24.820
   40BOLB   C3C  955   4.400  20.120  24.440
   40BOLB   C4C  956   4.740  20.180  24.030
   40BOLB   C1D  957   3.920  21.180  24.750
   40BOLB   C2D  958   4.050  21.030  24.410
   40BOLB   C3D  959   4.460  20.780  24.550
   40BOLB   C4D  960   4.780  20.890  24.800
   41BOLB   NC1  961   4.140  14.260  16.560
   41BOLB   PO1  962   4.480  14.180  16.870
   41BOLB   GL1  963   4.150  14.040  17.240
   41BOLB   GL2  964   3.830  14.010  17.040
   41BOLB   C1A  965   4.010  13.720  17.420
   41BOLB   C2A  966   3.730  13.230  17.360
   41BOLB   C3A  967   3.640  12.820  17.250
   41BOLB   C4A  968   3.640  12.360  17.300
   41BOLB   C1B  969   3.420  14.200  17.180
   41BOLB   C2B  970   3.080  13.970  17.300
   41BOLB   C3B  971   2.950  13.760  17.610
   41BOLB   C4B  972   2.750  13.640  18.050
   41BOLB   NC2  973   3.100  10.140  17.660
   41BOLB   PO2  974   3.410  10.310  17.450
   41BOLB   GL3  975   3.480  10.610  17.290
   41BOLB   GL4  976   3.770  10.720  17.420
   41BOLB   C1C  977   3.310  11.010  17.210
   41BOLB   C2C  978   3.470  11.410  17.070
   41BOLB   C3C  979   3.770  11.720  17.280
   41BOLB   C4C  980   3.860  12.100  17.190
   41BOLB   C1D  981   3.920  10.360  17.190
   41BOLB   C2D  982   3.960  10.360  16.770
   41BOLB   C3D  983   4.260  10.440  16.420
   41BOLB   C4D  984   4.580  10.540  16.230
   42BOLB   NC1  985  13.090  17.630  21.620
   42BOLB   PO1  986  13.140  17.760  22.000
   42BOLB   GL1  987  13.460  17.590  22.260
   42BOLB   GL2  988  13.660  17.290  22.260
   42BOLB   C1A  989  13.580  17.470  22.690
   42BOLB   C2A  990  13.710  17.480  23.150
   42BOLB   C3A  991  13.680  17.480  23.590
   42BOLB   C4A  992  13.540  17.340  24.000
   42BOLB   C1B  993  13.820  17.040  22.670
   42BOLB   C2B  994  13.760  16.790  23.130
   42BOLB   C3B  995  13.540  16.540  23.290
   42BOLB   C4B  996  13.360  16.520  23.660
   42BOLB   NC2  997  13.490  15.620  26.080
   42BOLB   PO2  998  13.180  15.990  26.130
   42BOLB   GL3  999  13.200  15.960  25.730
   42BOLB   GL4 1000  12.960  15.720  25.500
   42BOLB   C1C 1001  13.140  16.270  25.290
   42BOLB   C2C 1002  13.080  16.730  25.160
   42BOLB   C3C 1003  13.300  17.110  24.920
   42BOLB   C4C 1004  13.420  17.280  24.430
   42BOLB   C1D 1005  12.930  15.870  25.100
   42BOLB   C2D 1006  12.900  15.730  24.690
   42BOLB   C3D 1007  12.910  15.830  24.250
   42BOLB   C4D 1008  13.210  16.100  23.920
   43BOLB   NC1 1009   9.120  19.870   8.330
   43BOLB   PO1 1010   9.020  19.450   8.200
   43BOLB   GL1 1011   9.460  19.430   8.520
   43BOLB   GL2 1012   9.360  19.580   8.750
   43BOLB   C1A 1013   9.840  19.280   8.740
   43BOLB   C2A 1014   9.980  19.390   9.130
   43BOLB   C3A 1015  10.020  19.480   9.540
   43BOLB   C4A 1016   9.820  19.440   9.800
   43BOLB   C1B 1017   9.400  19.240   9.030
   43BOLB   C2B 1018   9.320  18.940   9.340
   43BOLB   C3B 1019   9.450  18.710   9.550
   43BOLB   C4B 1020   9.730  18.500   9.740
   43BOLB   NC2 1021   8.180  20.620   8.830
   43BOLB   PO2 1022   8.440  20.770   9.190
   43BOLB   GL3 1023   8.780  20.510   9.380
   43BOLB   GL4 1024   9.060  20.380   9.210
   43BOLB   C1C 1025   8.800  20.090   9.550
   43BOLB   C2C 1026   8.910  19.700   9.640
   43BOLB   C3C 1027   9.120  19.340   9.690
   43BOLB   C4C 1028   9.490  19.290   9.710
   43BOLB   C1D 1029   9.330  20.180   9.420
   43BOLB   C2D 1030   9.350  19.840   9.720
   43BOLB   C3D 1031   9.470  19.820  10.090
   43BOLB   C4D 1032   9.470  19.950  10.540
   44BOLB   NC1 1033   6.040  30.330  11.910
   44BOLB   PO1 1034   6.170  30.320  11.420
   44BOLB   GL1 1035   6.610  30.180  11.570
   44BOLB   GL2 1036   6.720  30.320  11.850
   44BOLB   C1A 1037   7.020  29.970  11.710
   44BOLB   C2A 1038   7.150  29.570  11.870
   44BOLB   C3A 1039   7.030  29.210  11.980
   44BOLB   C4A 1040   6.700  28.880  11.900
   44BOLB   C1B 1041   6.820  30.100  12.150
   44BOLB   C2B 1042   6.880  29.580  12.300
   44BOLB   C3B 1043   7.050  29.300  12.500
   44BOLB   C4B 1044   7.020  29.040  12.820
   44BOLB   NC2 1045   5.410  30.670  11.430
   44BOLB   PO2 1046   5.650  30.230  11.580
   44BOLB   GL3 1047   5.930  29.910  11.680
   44BOLB   GL4 1048   5.810  29.620  11.570
   44BOLB   C1C 1049   6.340  29.740  11.550
   44BOLB   C2C 1050   6.390  29.520  11.190
   44BOLB   C3C 1051   6.440  28.990  11.110
   44BOLB   C4C 1052   6.530  28.750  11.470
   44BOLB   C1D 1053   6.030  29.450  11.870
   44BOLB   C2D 1054   6.100  29.100  12.120
   44BOLB   C3D 1055   6.120  28.700  12.330
   44BOLB   C4D 1056   6.000  28.290  12.400
   45BOLB   NC1 1057   0.870  13.880   8.600
   45BOLB   PO1 1058   0.550  14.180   8.820
   45BOLB   GL1 1059   0.730  14.170   9.240
   45BOLB   GL2 1060   0.620  14.310   9.520
   45BOLB   C1A 1061   1.090  14.080   9.510
   45BOLB   C2A 1062   1.480  13.940   9.490
   45BOLB   C3A 1063   1.950  13.970   9.540
   45BOLB   C4A 1064   2.420  14.110   9.590
   45BOLB   C1B 1065   0.620  14.580   9.890
   45BOLB   C2B 1066   0.690  14.920  10.270
   45BOLB   C3B 1067   1.020  15.220  10.390
   45BOLB   C4B 1068   1.300  15.230  10.620
   45BOLB   NC2 1069   3.860  15.000  10.850
   45BOLB   PO2 1070   3.600  15.410  10.700
   45BOLB   GL3 1071   3.410  15.330  10.360
   45BOLB   GL4 1072   3.480  14.980  10.450
   45BOLB   C1C 1073   3.380  15.150   9.990
   45BOLB   C2C 1074   3.240  14.840   9.720
   45BOLB   C3C 1075   3.270  14.420   9.510
   45BOLB   C4C 1076   2.920  14.130   9.530
   45BOLB   C1D 1077   3.490  14.640  10.140
   45BOLB   C2D 1078   3.190  14.330   9.940
   45BOLB   C3D 1079   3.130  13.910   9.940
   45BOLB   C4D 1080   3.110  13.490  10.110
   46BOLB   NC1 1081   1.950  22.900  16.300
   46BOLB   PO1 1082   2.000  23.300  16.310
   46BOLB   GL1 1083   1.610  23.520  16.400
   46BOLB   GL2 1084   1.770  23.830  16.620
   46BOLB   C1A 1085   1.200  23.720  16.530
   46BOLB   C2A 1086   0.990  23.930  16.800
   46BOLB   C3A 1087   0.650  24.000  16.810
   46BOLB   C4A 1088   0.350  23.930  17.150
   46BOLB   C1B 1089   1.510  24.120  16.670
   46BOLB   C2B 1090   1.180  24.380  16.790
   46BOLB   C3B 1091   0.780  24.500  16.920
   46BOLB   C4B 1092   0.560  24.910  16.890
   46BOLB   NC2 1093  35.010  24.060  18.080
   46BOLB   PO2 1094  35.120  23.880  18.470
   46BOLB   GL3 1095  35.420  23.630  18.210
   46BOLB   GL4 1096  35.520  23.270  18.450
   46BOLB   C1C 1097  35.750  23.520  17.940
   46BOLB   C2C 1098  35.950  23.220  17.600
   46BOLB   C3C 1099   0.010  23.270  17.360
   46BOLB   C4C 1100   0.160  23.650  17.370
   46BOLB   C1D 1101  35.980  23.350  18.340
   46BOLB   C2D 1102   0.020  23.070  18.350
   46BOLB   C3D 1103   0.420  22.930  18.150
   46BOLB   C4D 1104   0.720  22.770  17.960
   47BOLB   NC1 1105   3.510  13.060   6.150
   47BOLB   PO1 1106   3.680  13.410   6.410
   47BOLB   GL1 1107   3.990  13.600   6.670
   47BOLB   GL2 1108   3.870  13.890   6.730
   47BOLB   C1A 1109   4.350  13.380   6.920
   47BOLB   C2A 1110   4.560  13.380   7.270
   47BOLB   C3A 1111   4.890  13.110   7.470
   47BOLB   C4A 1112   5.360  13.050   7.420
   47BOLB   C1B 1113   3.820  14.270   6.810
   47BOLB   C2B 1114   3.910  14.610   7.140
   47BOLB   C3B 1115   4.080  15.040   7.110
   47BOLB   C4B 1116   4.440  15.380   6.900
   47BOLB   NC2 1117   6.000  11.800   5.710
   47BOLB   PO2 1118   5.810  12.220   5.660
   47BOLB   GL3 1119   5.970  12.210   5.990
   47BOLB   GL4 1120   6.210  12.520   6.080
   47BOLB   C1C 1121   5.730  12.170   6.480
   47BOLB   C2C 1122   5.760  12.430   6.790
   47BOLB   C3C 1123   5.840  12.680   7.150
   47BOLB   C4C 1124   5.780  12.990   7.330
   47BOLB   C1D 1125   6.150  12.850   6.110
   47BOLB   C2D 1126   6.170  13.220   6.330
   47BOLB   C3D 1127   6.400  13.680   6.510
   47BOLB   C4D 1128   6.590  13.890   6.920
   48BOLB   NC1 1129  15.160  22.370  20.540
   48BOLB   PO1 1130  15.150  22.680  20.870
   48BOLB   GL1 1131  15.090  22.830  21.270
   48BOLB   GL2 1132  15.350  23.120  21.330
   48BOLB   C1A 1133  15.200  22.610  21.700
   48BOLB   C2A 1134  15.470  22.690  22.090
   48BOLB   C3A 1135  15.810  22.560  22.400
   48BOLB   C4A 1136  15.970  22.350  22.750
   48BOLB   C1B 1137  15.510  23.030  21.740
   48BOLB   C2B 1138  15.920  23.100  21.810
   48BOLB   C3B 1139  16.180  23.400  21.990
   48BOLB   C4B 1140  16.500  23.490  22.160
   48BOLB   NC2 1141  17.470  23.040  24.970
   48BOLB   PO2 1142  17.290  23.400  24.620
   48BOLB   GL3 1143  17.070  23.240  24.190
   48BOLB   GL4 1144  16.780  23.210  24.290
   48BOLB   C1C 1145  17.100  22.920  23.840
   48BOLB   C2C 1146  16.890  22.640  23.540
   48BOLB   C3C 1147  16.610  22.750  23.130
   48BOLB   C4C 1148  16.220  22.570  23.000
   48BOLB   C1D 1149  16.750  23.260  23.820
   48BOLB   C2D 1150  16.670  23.190  23.370
   48BOLB   C3D 1151  16.770  23.350  23.020
   48BOLB   C4D 1152  17.010  23.730  22.940
   49BOLB   NC1 1153   2.010  21.160  15.190
   49BOLB   PO1 1154   1.570  21.290  15.170
   49BOLB   GL1 1155   1.220  21.610  15.170
   49BOLB   GL2 1156   1.170  22.050  15.290
   49BOLB   C1A 1157   0.770  21.550  15.180
   49BOLB   C2A 1158   0.410  21.630  15.260
   49BOLB   C3A 1159  36.290  21.730  15.350
   49BOLB   C4A 1160  35.930  21.640  15.620
   49BOLB   C1B 1161   0.860  22.030  15.210
   49BOLB   C2B 1162   0.440  22.110  15.150
   49BOLB   C3B 1163   0.000  22.210  15.310
   49BOLB   C4B 1164  36.020  22.130  15.530
   49BOLB   NC2 1165  33.920  20.910  15.880
   49BOLB   PO2 1166  33.950  21.270  16.060
   49BOLB   GL3 1167  34.410  21.230  16.020
   49BOLB   GL4 1168  34.450  21.480  15.890
   49BOLB   C1C 1169  34.700  21.060  16.260
   49BOLB   C2C 1170  35.140  20.930  16.170
   49BOLB   C3C 1171  35.410  21.170  15.800
   49BOLB   C4C 1172  35.620  21.440  15.700
   49BOLB   C1D 1173  34.700  21.210  15.620
   49BOLB   C2D 1174  35.000  20.990  15.500
   49BOLB   C3D 1175  35.430  20.780  15.450
   49BOLB   C4D 1176  35.720  20.660  15.120
   50BOLB   NC1 1177   2.340  22.540  17.060
   50BOLB   PO1 1178   2.250  22.740  16.720
   50BOLB   GL1 1179   1.960  23.090  16.810
   50BOLB   GL2 1180   1.880  23.400  16.870
   50BOLB   C1A 1181   1.440  23.150  16.630
   50BOLB   C2A 1182   1.100  23.230  16.440
   50BOLB   C3A 1183   0.700  23.500  16.630
   50BOLB   C4A 1184   0.370  23.620  16.750
   50BOLB   C1B 1185   1.600  23.530  17.000
   50BOLB   C2B 1186   1.120  23.540  17.020
   50BOLB   C3B 1187   0.800  23.580  17.190
   50BOLB   C4B 1188   0.780  23.740  17.600
   50BOLB   NC2 1189  34.390  24.650  16.500
   50BOLB   PO2 1190  34.520  24.410  16.870
   50BOLB   GL3 1191  34.680  24.100  16.800
   50BOLB   GL4 1192  34.650  23.890  17.060
   50BOLB   C1C 1193  35.110  23.930  16.660
   50BOLB   C2C 1194  35.560  23.820  16.570
   50BOLB   C3C 1195  36.040  23.640  16.460
   50BOLB   C4C 1196   0.070  23.580  16.420
   50BOLB   C1D 1197  34.840  23.620  17.350
   50BOLB   C2D 1198  35.070  23.430  17.080
   50BOLB   C3D 1199  35.250  23.060  16.990
   50BOLB   C4D 1200  35.430  22.930  16.680
   51BOLB   NC1 1201   7.670  10.110  21.210
   51BOLB   PO1 1202   7.980  10.360  21.510
   51BOLB   GL1 1203   8.240  10.630  21.260
   51BOLB   GL2 1204   8.470  10.910  21.330
   51BOLB   C1A 1205   8.390  10.650  20.860
   51BOLB   C2A 1206   8.520  10.860  20.510
   51BOLB   C3A 1207   8.830  10.990  20.320
   51BOLB   C4A 1208   9.130  11.050  20.010
   51BOLB   C1B 1209   8.340  11.150  20.970
   51BOLB   C2B 1210   8.280  11.290  20.570
   51BOLB   C3B 1211   7.940  11.410  20.170
   51BOLB   C4B 1212   7.470  11.480  20.310
   51BOLB   NC2 1213   9.570  12.170  18.750
   51BOLB   PO2 1214   9.980  12.260  18.930
   51BOLB   GL3 1215   9.840  11.910  19.070
   51BOLB   GL4 1216  10.000  11.940  19.280
   51BOLB   C1C 1217   9.800  11.470  19.020
   51BOLB   C2C 1218   9.960  11.280  19.400
   51BOLB   C3C 1219   9.840  11.300  19.730
   51BOLB   C4C 1220   9.470  11.320  20.030
   51BOLB   C1D 1221   9.810  11.740  19.500
   51BOLB   C2D 1222   9.440  11.700  19.720
   51BOLB   C3D 1223   9.070  11.520  19.810
   51BOLB   C4D 1224   8.680  11.590  19.790
   52BOLB   NC1 1225   3.550  17.810  18.920
   52BOLB   PO1 1226   3.230  17.440  18.940
   52BOLB   GL1 1227   2.920  17.120  18.880
   52BOLB   GL2 1228   2.690  17.050  18.640
   52BOLB   C1A 1229   2.740  16.840  19.190
   52BOLB   C2A 1230   2.470  16.590  19.490
   52BOLB   C3A 1231   2.430  16.180  19.630
   52BOLB   C4A 1232   2.460  15.840  19.820
   52BOLB   C1B 1233   2.430  16.750  18.440
   52BOLB   C2B 1234   2.020  16.960  18.450
   52BOLB   C3B 1235   1.740  17.280  18.730
   52BOLB   C4B 1236   1.390  17.310  19.010
   52BOLB   NC2 1237   0.900  15.080  20.520
   52BOLB   PO2 1238   0.750  15.340  20.920
   52BOLB   GL3 1239   1.160  15.540  20.870
   52BOLB   GL4 1240   1.330  15.370  20.560
   52BOLB   C1C 1241   1.630  15.390  21.020
   52BOLB   C2C 1242   1.950  15.730  20.810
   52BOLB   C3C 1243   2.080  15.650  20.440
   52BOLB   C4C 1244   2.320  15.750  20.130
   52BOLB   C1D 1245   1.590  15.690  20.410
   52BOLB   C2D 1246   1.760  15.850  20.120
   52BOLB   C3D 1247   1.980  16.050  19.790
   52BOLB   C4D 1248   1.830  16.370  19.770
   53BOLB   NC1 1249   1.750  11.740  18.780
   53BOLB   PO1 1250   1.460  11.680  18.500
   53BOLB   GL1 1251   1.900  11.630  18.250
   53BOLB   GL2 1252   1.910  11.690  17.900
   53BOLB   C1A 1253   2.350  11.730  18.160
   53BOLB   C2A 1254   2.600  11.990  17.960
   53BOLB   C3A 1255   2.900  12.360  17.850
   53BOLB   C4A 1256   3.190  12.610  17.550
   53BOLB   C1B 1257   2.130  12.120  18.020
   53BOLB   C2B 1258   2.420  12.530  18.030
   53BOLB   C3B 1259   2.640  12.860  17.870
   53BOLB   C4B 1260   3.010  13.190  17.930
   53BOLB   NC2 1261   4.470  15.130  17.000
   53BOLB   PO2 1262   4.180  14.910  17.370
   53BOLB   GL3 1263   4.010  14.550  17.350
   53BOLB   GL4 1264   3.880  14.480  17.060
   53BOLB   C1C 1265   3.720  14.230  17.570
   53BOLB   C2C 1266   3.490  13.840  17.600
   53BOLB   C3C 1267   3.460  13.380  17.720
   53BOLB   C4C 1268   3.430  12.980  17.680
   53BOLB   C1D 1269   3.590  14.380  16.750
   53BOLB   C2D 1270   3.220  14.150  16.710
   53BOLB   C3D 1271   3.020  13.800  16.650
   53BOLB   C4D 1272   2.700  13.480  16.780
   54BOLB   NC1 1273   6.090  22.230  22.000
   54BOLB   PO1 1274   5.850  22.570  21.710
   54BOLB   GL1 1275   5.730  22.640  22.100
   54BOLB   GL2 1276   5.540  22.370  22.120
   54BOLB   C1A 1277   5.660  22.670  22.530
   54BOLB   C2A 1278   5.400  22.880  22.860
   54BOLB   C3A 1279   5.240  23.060  23.190
   54BOLB   C4A 1280   5.100  23.370  23.370
   54BOLB   C1B 1281   5.300  22.300  22.560
   54BOLB   C2B 1282   5.050  22.210  22.950
   54BOLB   C3B 1283   4.810  22.370  23.300
   54BOLB   C4B 1284   4.880  22.750  23.570
   54BOLB   NC2 1285   4.930  24.290  25.590
   54BOLB   PO2 1286   4.710  24.070  25.160
   54BOLB   GL3 1287   4.560  24.260  24.790
   54BOLB   GL4 1288   4.280  24.140  24.910
   54BOLB   C1C 1289   4.510  24.540  24.350
   54BOLB   C2C 1290   4.730  24.510  23.930
   54BOLB   C3C 1291   4.810  24.140  23.720
   54BOLB   C4C 1292   4.940  23.650  23.700
   54BOLB   C1D 1293   4.080  24.070  24.440
   54BOLB   C2D 1294   3.920  23.850  24.120
   54BOLB   C3D 1295   3.990  23.740  23.650
   54BOLB   C4D 1296   4.160  23.580  23.260
   55BOLB   NC1 1297  11.830  21.050  22.600
   55BOLB   PO1 1298  11.940  21.220  22.900
   55BOLB   GL1 1299  12.050  21.290  23.310
   55BOLB   GL2 1300  12.370  21.360  23.200
   55BOLB   C1A 1301  11.770  21.500  23.690
   55BOLB   C2A 1302  11.480  21.260  23.910
   55BOLB   C3A 1303  11.340  21.100  24.220
   55BOLB   C4A 1304  11.500  21.040  24.610
   55BOLB   C1B 1305  12.720  21.390  23.550
   55BOLB   C2B 1306  12.830  21.320  23.970
   55BOLB   C3B 1307  12.820  21.260  24.410
   55BOLB   C4B 1308  12.920  20.920  24.620
   55BOLB   NC2 1309  11.660  20.380  26.950
   55BOLB   PO2 1310  12.040  20.180  26.910
   55BOLB   GL3 1311  11.970  20.440  26.530
   55BOLB   GL4 1312  12.210  20.670  26.340
   55BOLB   C1C 1313  11.860  20.280  26.070
   55BOLB   C2C 1314  11.790  20.340  25.590
   55BOLB   C3C 1315  11.700  20.570  25.170
   55BOLB   C4C 1316  11.580  20.730  24.850
   55BOLB   C1D 1317  12.360  20.580  26.030
   55BOLB   C2D 1318  12.460  20.540  25.610
   55BOLB   C3D 1319  12.840  20.500  25.310
   55BOLB   C4D 1320  12.930  20.480  24.900
   56BOLB   NC1 1321   1.630  16.330  14.730
   56BOLB   PO1 1322   1.680  15.920  14.500
   56BOLB   GL1 1323   1.360  15.750  14.580
   56BOLB   GL2 1324   1.110  15.950  14.710
   56BOLB   C1A 1325   1.050  15.420  14.660
   56BOLB   C2A 1326   1.010  14.970  14.470
   56BOLB   C3A 1327   0.960  14.540  14.370
   56BOLB   C4A 1328   0.750  14.060  14.490
   56BOLB   C1B 1329   0.640  15.890  14.740
   56BOLB   C2B 1330   0.380  15.910  15.120
   56BOLB   C3B 1331   0.410  15.970  15.560
   56BOLB   C4B 1332   0.070  16.130  15.760
   56BOLB   NC2 1333  35.680  13.040  14.780
   56BOLB   PO2 1334  35.630  12.680  14.600
   56BOLB   GL3 1335  35.820  12.980  14.320
   56BOLB   GL4 1336  36.100  13.270  14.410
   56BOLB   C1C 1337  36.080  13.060  13.970
   56BOLB   C2C 1338   0.170  13.090  14.150
   56BOLB   C3C 1339   0.530  13.340  14.330
   56BOLB   C4C 1340   0.670  13.620  14.580
   56BOLB   C1D 1341  36.260  13.570  14.100
   56BOLB   C2D 1342   0.310  13.540  13.860
   56BOLB   C3D 1343   0.650  13.740  14.040
   56BOLB   C4D 1344   1.060  13.780  14.130
   57BOLB   NC1 1345   1.630  22.110  13.560
   57BOLB   PO1 1346   1.760  22.360  13.190
   57BOLB   GL1 1347   1.460  22.690  13.110
   57BOLB   GL2 1348   1.520  22.960  13.070
   57BOLB   C1A 1349   1.000  22.740  12.910
   57BOLB   C2A 1350   0.660  22.990  12.870
   57BOLB   C3A 1351   0.370  23.350  12.910
   57BOLB   C4A 1352   0.070  23.660  13.070
   57BOLB   C1B 1353   1.260  23.290  12.890
   57BOLB   C2B 1354   0.940  23.650  12.770
   57BOLB   C3B 1355   0.630  23.820  13.050
   57BOLB   C4B 1356   0.660  24.280  13.130
   57BOLB   NC2 1357  34.820  25.200  13.430
   57BOLB   PO2 1358  34.610  25.070  13.740
   57BOLB   GL3 1359  34.930  24.750  13.770
   57BOLB   GL4 1360  34.940  24.350  13.770
   57BOLB   C1C 1361  35.390  24.740  13.810
   57BOLB   C2C 1362  35.870  24.540  13.800
   57BOLB   C3C 1363  36.100  24.210  13.670
   57BOLB   C4C 1364  36.290  23.910  13.410
   57BOLB   C1D 1365  35.220  24.090  13.610
   57BOLB   C2D 1366  35.650  23.950  13.720
   57BOLB   C3D 1367  35.990  23.730  13.810
   57BOLB   C4D 1368  36.240  23.450  13.760
   58BOLB   NC1 1369   3.750  15.670  17.090
   58BOLB   PO1 1370   3.510  16.080  17.210
   58BOLB   GL1 1371   3.230  15.870  17.410
   58BOLB   GL2 1372   3.080  15.710  17.250
   58BOLB   C1A 1373   2.760  15.910  17.620
   58BOLB   C2A 1374   2.480  15.570  17.760
   58BOLB   C3A 1375   2.240  15.190  17.960
   58BOLB   C4A 1376   2.030  15.120  18.440
   58BOLB   C1B 1377   2.850  15.510  17.420
   58BOLB   C2B 1378   2.680  15.120  17.540
   58BOLB   C3B 1379   2.360  14.890  17.490
   58BOLB   C4B 1380   2.070  14.610  17.350
   58BOLB   NC2 1381   0.860  13.510  19.710
   58BOLB   PO2 1382   1.050  13.600  20.100
   58BOLB   GL3 1383   1.510  13.660  19.880
   58BOLB   GL4 1384   1.650  13.440  19.890
   58BOLB   C1C 1385   1.880  13.830  19.670
   58BOLB   C2C 1386   1.950  14.090  19.380
   58BOLB   C3C 1387   1.890  14.440  19.030
   58BOLB   C4C 1388   1.830  14.760  18.640
   58BOLB   C1D 1389   2.150  13.510  19.970
   58BOLB   C2D 1390   2.430  13.770  19.700
   58BOLB   C3D 1391   2.700  14.090  19.940
   58BOLB   C4D 1392   2.880  14.200  20.270
   59BOLB   NC1 1393   6.610  21.620  22.390
   59BOLB   PO1 1394   6.280  21.900  22.350
   59BOLB   GL1 1395   6.140  21.920  22.760
   59BOLB   GL2 1396   5.900  22.050  22.770
   59BOLB   C1A 1397   6.380  22.130  22.940
   59BOLB   C2A 1398   6.490  22.070  23.420
   59BOLB   C3A 1399   6.370  22.200  23.810
   59BOLB   C4A 1400   6.120  22.210  24.150
   59BOLB   C1B 1401   5.550  22.240  23.050
   59BOLB   C2B 1402   5.290  22.560  23.290
   59BOLB   C3B 1403   5.350  22.520  23.720
   59BOLB   C4B 1404   5.480  22.120  24.000
   59BOLB   NC2 1405   4.810  23.150  26.240
   59BOLB   PO2 1406   5.050  22.780  26.160
   59BOLB   GL3 1407   5.220  22.490  25.810
   59BOLB   GL4 1408   5.010  22.350  25.590
   59BOLB   C1C 1409   5.570  22.350  25.640
   59BOLB   C2C 1410   5.710  22.200  25.240
   59BOLB   C3C 1411   5.810  22.020  24.810
   59BOLB   C4C 1412   5.830  22.080  24.410
   59BOLB   C1D 1413   5.200  22.500  25.130
   59BOLB   C2D 1414   5.260  22.460  24.740
   59BOLB   C3D 1415   5.600  22.530  24.380
   59BOLB   C4D 1416   5.820  22.560  23.930
   60BOLB   NC1 1417  13.630   9.370  21.980
   60BOLB   PO1 1418  13.800   9.430  21.450
   60BOLB   GL1 1419  13.870   9.570  20.950
   60BOLB   GL2 1420  14.140   9.780  20.950
   60BOLB   C1A 1421  13.650   9.870  20.660
   60BOLB   C2A 1422  13.380  10.130  20.690
   60BOLB   C3A 1423  13.400  10.610  20.640
   60BOLB   C4A 1424  13.490  10.990  20.800
   60BOLB   C1B 1425  14.050  10.190  20.890
   60BOLB   C2B 1426  13.920  10.580  20.760
   60BOLB   C3B 1427  13.870  10.890  20.490
   60BOLB   C4B 1428  13.960  11.360  20.440
   60BOLB   NC2 1429  12.980  10.440  23.460
   60BOLB   PO2 1430  12.880  10.620  23.130
   60BOLB   GL3 1431  12.950  10.900  22.690
   60BOLB   GL4 1432  12.810  10.840  22.360
   60BOLB   C1C 1433  13.100  11.180  22.380
   60BOLB   C2C 1434  13.130  11.190  21.880
   60BOLB   C3C 1435  13.110  11.390  21.480
   60BOLB   C4C 1436  13.260  11.270  21.130
   60BOLB   C1D 1437  12.640  10.940  21.940
   60BOLB   C2D 1438  12.200  10.960  21.870
   60BOLB   C3D 1439  11.780  11.130  21.920
   60BOLB   C4D 1440  11.360  11.070  22.170
   61BOLB   NC1 1441   7.610  13.790   3.650
   61BOLB   PO1 1442   7.990  13.930   3.990
   61BOLB   GL1 1443   7.940  14.250   4.340
   61BOLB   GL2 1444   8.240  14.430   4.400
   61BOLB   C1A 1445   7.710  14.320   4.690
   61BOLB   C2A 1446   7.670  14.150   5.120
   61BOLB   C3A 1447   7.910  14.380   5.440
   61BOLB   C4A 1448   8.080  14.740   5.580
   61BOLB   C1B 1449   8.210  14.410   4.880
   61BOLB   C2B 1450   8.440  14.600   5.240
   61BOLB   C3B 1451   8.550  15.020   5.440
   61BOLB   C4B 1452   8.480  15.200   5.850
   61BOLB   NC2 1453   6.730  15.620   3.930
   61BOLB   PO2 1454   7.220  15.680   3.960
   61BOLB   GL3 1455   7.380  15.690   4.400
   61BOLB   GL4 1456   7.380  16.020   4.440
   61BOLB   C1C 1457   7.830  15.790   4.620
   61BOLB   C2C 1458   7.910  15.870   5.030
   61BOLB   C3C 1459   7.890  15.570   5.310
   61BOLB   C4C 1460   8.000  15.260   5.720
   61BOLB   C1D 1461   7.510  16.140   4.840
   61BOLB   C2D 1462   7.490  16.300   5.240
   61BOLB   C3D 1463   7.640  16.460   5.640
   61BOLB   C4D 1464   7.590  16.690   6.000
   62BOLB   NC1 1465  34.640  15.660  17.520
   62BOLB   PO1 1466  34.580  15.620  17.970
   62BOLB   GL1 1467  34.930  15.930  17.910
   62BOLB   GL2 1468  35.120  15.880  17.540
   62BOLB   C1A 1469  35.270  16.160  17.940
   62BOLB   C2A 1470  35.710  16.230  17.730
   62BOLB   C3A 1471  36.080  16.220  17.550
   62BOLB   C4A 1472   0.120  16.450  17.540
   62BOLB   C1B 1473  35.550  15.770  17.640
   62BOLB   C2B 1474  36.040  15.730  17.520
   62BOLB   C3B 1475  36.210  15.410  17.410
   62BOLB   C4B 1476  36.170  15.040  17.550
   62BOLB   NC2 1477   2.360  17.790  17.560
   62BOLB   PO2 1478   2.200  17.660  17.120
   62BOLB   GL3 1479   1.870  17.370  17.270
   62BOLB   GL4 1480   1.830  17.000  17.310
   62BOLB   C1C 1481   1.410  17.430  17.280
   62BOLB   C2C 1482   1.040  17.480  17.520
   62BOLB   C3C 1483   0.670  17.260  17.450
   62BOLB   C4C 1484   0.360  16.880  17.330
   62BOLB   C1D 1485   1.590  16.880  17.630
   62BOLB   C2D 1486   1.520  16.630  18.060
   62BOLB   C3D 1487   1.780  16.330  18.260
   62BOLB   C4D 1488   1.700  15.940  18.470
   63BOLB   NC1 1489   3.820  14.490  12.260
   63BOLB   PO1 1490   4.050  14.190  12.080
   63BOLB   GL1 1491   4.030  13.830  11.910
   63BOLB   GL2 1492   3.920  13.890  11.670
   63BOLB   C1A 1493   3.870  13.420  11.810
   63BOLB   C2A 1494   4.020  13.000  11.570
   63BOLB   C3A 1495   3.910  12.670  11.310
   63BOLB   C4A 1496   3.850  12.250  11.260
   63BOLB   C1B 1497   3.550  13.710  11.680
   63BOLB   C2B 1498   3.240  13.350  11.770
   63BOLB   C3B 1499   3.120  12.940  11.910
   63BOLB   C4B 1500   2.930  12.660  12.150
   63BOLB   NC2 1501   2.190  10.720  10.720
   63BOLB   PO2 1502   2.210  10.790  11.180
   63BOLB   GL3 1503   2.420  11.140  11.440
   63BOLB   GL4 1504   2.140  11.370  11.540
   63BOLB   C1C 1505   2.700  11.440  11.490
   63BOLB   C2C 1506   3.030  11.530  11.320
   63BOLB   C3C 1507   3.400  11.580  11.260
   63BOLB   C4C 1508   3.600  11.960  11.040
   63BOLB   C1D 1509   2.290  11.700  11.600
   63BOLB   C2D 1510   2.350  12.210  11.600
   63BOLB   C3D 1511   2.160  12.540  11.610
   63BOLB   C4D 1512   2.110  12.880  11.410
   64BOLB   NC1 1513   1.280  18.020  14.210
   64BOLB   PO1 1514   1.400  17.890  14.550
   64BOLB   GL1 1515   1.060  17.580  14.560
   64BOLB   GL2 1516   0.850  17.690  14.330
   64BOLB   C1A 1517   0.750  17.290  14.700
   64BOLB   C2A 1518   0.480  17.200  14.890
   64BOLB   C3A 1519   0.130  17.000  14.790
   64BOLB   C4A 1520  36.220  16.620  14.720
   64BOLB   C1B 1521   0.530  17.750  14.590
   64BOLB   C2B 1522   0.230  17.540  14.680
   64BOLB   C3B 1523  36.250  17.340  14.550
   64BOLB   C4B 1524  36.040  17.020  14.520
   64BOLB   NC2 1525  34.280  16.240  14.840
   64BOLB   PO2 1526  34.460  16.020  14.450
   64BOLB   GL3 1527  34.600  16.380  14.450
   64BOLB   GL4 1528  34.740  16.450  14.810
   64BOLB   C1C 1529  34.900  16.660  14.230
   64BOLB   C2C 1530  35.280  16.840  14.170
   64BOLB   C3C 1531  35.670  16.720  14.260
   64BOLB   C4C 1532  35.970  16.520  14.410
   64BOLB   C1D 1533  34.850  16.870  14.700
   64BOLB   C2D 1534  35.190  17.130  14.520
   64BOLB   C3D 1535  35.570  17.240  14.440
   64BOLB   C4D 1536  35.780  17.530  14.220
   65BOLB   NC1 1537   2.180  23.320  15.700
   65BOLB   PO1 1538   1.900  23.010  15.740
   65BOLB   GL1 1539   1.720  23.240  15.520
   65BOLB   GL2 1540   1.720  23.510  15.510
   65BOLB   C1A 1541   1.260  23.410  15.440
   65BOLB   C2A 1542   0.880  23.560  15.570
   65BOLB   C3A 1543   0.460  23.590  15.640
   65BOLB   C4A 1544   0.160  23.830  15.930
   65BOLB   C1B 1545   1.540  23.490  15.890
   65BOLB   C2B 1546   1.120  23.610  16.050
   65BOLB   C3B 1547   0.580  23.660  16.190
   65BOLB   C4B 1548   0.350  23.990  16.370
   65BOLB   NC2 1549  34.700  25.110  15.970
   65BOLB   PO2 1550  34.770  25.110  15.560
   65BOLB   GL3 1551  35.190  25.080  15.710
   65BOLB   GL4 1552  35.250  25.380  15.630
   65BOLB   C1C 1553  35.540  25.090  15.840
   65BOLB   C2C 1554  35.670  24.750  16.040
   65BOLB   C3C 1555  36.040  24.450  16.040
   65BOLB   C4C 1556  36.270  24.120  16.180
   65BOLB   C1D 1557  35.220  25.830  15.520
   65BOLB   C2D 1558  35.690  25.850  15.530
   65BOLB   C3D 1559  36.160  25.980  15.530
   65BOLB   C4D 1560   0.130  26.070  15.250
   66BOLB   NC1 1561   1.660  19.380  16.170
   66BOLB   PO1 1562   1.630  19.260  15.720
   66BOLB   GL1 1563   1.220  19.310  15.920
   66BOLB   GL2 1564   1.000  19.350  15.640
   66BOLB   C1A 1565   0.930  19.060  16.010
   66BOLB   C2A 1566   0.530  18.960  16.020
   66BOLB   C3A 1567   0.200  18.810  15.900
   66BOLB   C4A 1568  36.240  18.590  15.960
   66BOLB   C1B 1569   0.530  19.320  15.690
   66BOLB   C2B 1570   0.080  19.250  15.600
   66BOLB   C3B 1571  36.250  18.940  15.520
   66BOLB   C4B 1572  35.880  18.560  15.470
   66BOLB   NC2 1573  34.090  18.440  15.470
   66BOLB   PO2 1574  33.890  18.260  15.920
   66BOLB   GL3 1575  34.410  18.380  15.880
   66BOLB   GL4 1576  34.500  18.650  15.900
   66BOLB   C1C 1577  34.790  18.370  16.180
   66BOLB   C2C 1578  35.190  18.370  16.370
   66BOLB   C3C 1579  35.560  18.490  16.220
   66BOLB   C4C 1580  35.830  18.410  15.970
   66BOLB   C1D 1581  34.760  18.870  16.180
   66BOLB   C2D 1582  34.670  18.990  16.620
   66BOLB   C3D 1583  34.880  19.020  17.110
   66BOLB   C4D 1584  34.880  19.360  17.370
   67BOLB   NC1 1585   7.170  24.020  21.540
   67BOLB   PO1 1586   6.710  23.870  21.570
   67BOLB   GL1 1587   6.710  24.040  21.840
   67BOLB   GL2 1588   6.950  24.320  21.900
   67BOLB   C1A 1589   6.440  24.160  22.240
   67BOLB   C2A 1590   6.340  24.390  22.560
   67BOLB   C3A 1591   6.090  24.490  22.870
   67BOLB   C4A 1592   6.110  24.800  23.130
   67BOLB   C1B 1593   6.930  24.550  22.200
   67BOLB   C2B 1594   6.730  24.690  22.590
   67BOLB   C3B 1595   6.530  24.870  22.870
   67BOLB   C4B 1596   6.580  25.310  23.030
   67BOLB   NC2 1597   6.740  26.200  24.940
   67BOLB   PO2 1598   6.280  26.080  25.080
   67BOLB   GL3 1599   6.360  25.800  24.690
   67BOLB   GL4 1600   6.520  25.680  24.840
   67BOLB   C1C 1601   6.320  25.740  24.240
   67BOLB   C2C 1602   6.150  25.490  23.980
   67BOLB   C3C 1603   5.970  25.390  23.570
   67BOLB   C4C 1604   6.190  25.120  23.290
   67BOLB   C1D 1605   6.540  25.390  24.460
   67BOLB   C2D 1606   6.710  25.170  24.090
   67BOLB   C3D 1607   6.530  25.170  23.690
   67BOLB   C4D 1608   6.630  24.940  23.340
   68BOLB   NC1 1609  13.750  20.410  17.330
   68BOLB   PO1 1610  13.990  20.670  17.060
   68BOLB   GL1 1611  14.290  20.680  17.360
   68BOLB   GL2 1612  14.190  20.960  17.400
   68BOLB   C1A 1613  14.680  20.530  17.550
   68BOLB   C2A 1614  14.990  20.410  17.820
   68BOLB   C3A 1615  15.160  20.690  18.200
   68BOLB   C4A 1616  15.500  20.700  18.410
   68BOLB   C1B 1617  14.410  21.240  17.700
   68BOLB   C2B 1618  14.690  21.490  17.770
   68BOLB   C3B 1619  14.900  21.490  18.270
   68BOLB   C4B 1620  14.810  21.540  18.740
   68BOLB   NC2 1621  16.490  19.130  19.590
   68BOLB   PO2 1622  16.740  19.490  19.340
   68BOLB   GL3 1623  16.900  19.630  18.870
   68BOLB   GL4 1624  16.990  19.550  18.580
   68BOLB   C1C 1625  16.700  19.960  18.540
   68BOLB   C2C 1626  16.350  20.280  18.370
   68BOLB   C3C 1627  16.250  20.620  18.200
   68BOLB   C4C 1628  15.790  20.810  18.190
   68BOLB   C1D 1629  16.600  19.330  18.620
   68BOLB   C2D 1630  16.250  19.270  18.520
   68BOLB   C3D 1631  16.040  18.940  18.260
   68BOLB   C4D 1632  15.710  18.740  18.110
   69BOLB   NC1 1633   9.670  19.160  22.580
   69BOLB   PO1 1634   9.880  18.830  22.770
   69BOLB   GL1 1635  10.030  18.690  23.120
   69BOLB   GL2 1636  10.220  18.900  23.280
   69BOLB   C1A 1637  10.070  18.430  23.430
   69BOLB   C2A 1638  10.010  18.390  23.850
   69BOLB   C3A 1639   9.670  18.290  24.170
   69BOLB   C4A 1640   9.630  18.390  24.730
   69BOLB   C1B 1641  10.130  18.920  23.600
   69BOLB   C2B 1642   9.790  18.820  24.000
   69BOLB   C3B 1643   9.600  18.750  24.380
   69BOLB   C4B 1644   9.180  18.680  24.610
   69BOLB   NC2 1645   9.260  17.060  26.880
   69BOLB   PO2 1646   9.670  17.130  26.920
   69BOLB   GL3 1647   9.850  17.270  26.510
   69BOLB   GL4 1648  10.050  17.550  26.540
   69BOLB   C1C 1649   9.720  17.490  26.170
   69BOLB   C2C 1650   9.850  17.740  25.830
   69BOLB   C3C 1651   9.850  18.020  25.480
   69BOLB   C4C 1652   9.640  18.170  25.160
   69BOLB   C1D 1653  10.190  17.390  26.070
   69BOLB   C2D 1654  10.290  17.510  25.620
   69BOLB   C3D 1655  10.500  17.460  25.140
   69BOLB   C4D 1656  10.340  17.290  24.780
   70BOLB   NC1 1657  34.550  25.190  15.000
   70BOLB   PO1 1658  34.820  25.090  14.700
   70BOLB   GL1 1659  35.230  25.050  14.700
   70BOLB   GL2 1660  35.320  24.770  14.740
   70BOLB   C1A 1661  35.480  25.160  14.910
   70BOLB   C2A 1662  35.620  25.480  15.190
   70BOLB   C3A 1663  36.040  25.480  15.440
   70BOLB   C4A 1664   0.010  25.480  15.770
   70BOLB   C1B 1665  35.840  24.840  14.840
   70BOLB   C2B 1666  36.230  24.670  14.890
   70BOLB   C3B 1667   0.300  24.660  14.890
   70BOLB   C4B 1668   0.660  24.880  14.970
   70BOLB   NC2 1669  35.290  26.420  16.960
   70BOLB   PO2 1670  35.570  26.750  17.140
   70BOLB   GL3 1671  35.800  26.520  16.850
   70BOLB   GL4 1672  35.750  26.110  16.870
   70BOLB   C1C 1673  36.220  26.300  16.810
   70BOLB   C2C 1674   0.200  26.200  16.460
   70BOLB   C3C 1675   0.260  25.690  16.360
   70BOLB   C4C 1676   0.320  25.460  16.050
   70BOLB   C1D 1677  36.110  25.920  17.100
   70BOLB   C2D 1678  36.330  25.600  17.340
   70BOLB   C3D 1679   0.390  25.240  17.260
   70BOLB   C4D 1680   0.800  25.280  17.300
   71BOLB   NC1 1681   2.770  22.360  17.920
   71BOLB   PO1 1682   2.490  22.130  18.140
   71BOLB   GL1 1683   2.010  22.050  18.270
   71BOLB   GL2 1684   1.870  21.690  18.250
   71BOLB   C1A 1685   1.640  22.230  18.430
   71BOLB   C2A 1686   1.290  22.470  18.480
   71BOLB   C3A 1687   0.920  22.240  18.680
   71BOLB   C4A 1688   0.680  21.980  18.440
   71BOLB   C1B 1689   1.480  21.750  18.360
   71BOLB   C2B 1690   1.050  21.590  18.510
   71BOLB   C3B 1691   0.680  21.310  18.360
   71BOLB   C4B 1692   0.410  20.970  18.120
   71BOLB   NC2 1693  34.640  21.340  18.990
   71BOLB   PO2 1694  34.680  21.570  18.540
   71BOLB   GL3 1695  35.020  21.510  18.320
   71BOLB   GL4 1696  35.010  21.380  17.990
   71BOLB   C1C 1697  35.430  21.690  18.080
   71BOLB   C2C 1698  35.840  21.480  17.960
   71BOLB   C3C 1699  36.290  21.650  17.930
   71BOLB   C4C 1700   0.320  21.890  18.200
   71BOLB   C1D 1701  35.410  21.230  17.770
   71BOLB   C2D 1702  35.900  21.150  17.620
   71BOLB   C3D 1703  36.290  21.370  17.560
   71BOLB   C4D 1704   0.350  21.600  17.470
   72BOLB   NC1 1705   1.240  20.550  15.110
   72BOLB   PO1 1706   1.160  20.960  15.200
   72BOLB   GL1 1707   0.930  21.100  15.310
   72BOLB   GL2 1708   0.570  21.100  15.240
   72BOLB   C1A 1709   0.620  21.390  15.640
   72BOLB   C2A 1710   0.230  21.700  15.750
   72BOLB   C3A 1711   0.010  22.000  15.880
   72BOLB   C4A 1712  35.970  22.020  16.030
   72BOLB   C1B 1713   0.130  21.220  15.500
   72BOLB   C2B 1714  36.100  21.220  15.790
   72BOLB   C3B 1715  35.830  21.080  16.090
   72BOLB   C4B 1716  35.570  20.890  16.430
   72BOLB   NC2 1717  33.960  21.980  16.710
   72BOLB   PO2 1718  33.900  22.330  16.430
   72BOLB   GL3 1719  34.350  22.140  16.420
   72BOLB   GL4 1720  34.400  22.270  16.080
   72BOLB   C1C 1721  34.740  22.140  16.570
   72BOLB   C2C 1722  35.020  21.810  16.700
   72BOLB   C3C 1723  35.400  21.830  16.640
   72BOLB   C4C 1724  35.670  22.010  16.320
   72BOLB   C1D 1725  34.830  22.390  15.950
   72BOLB   C2D 1726  35.240  22.680  15.920
   72BOLB   C3D 1727  35.540  22.780  15.820
   72BOLB   C4D 1728  35.970  22.990  15.910
   73BOLB   NC1 1729   9.950  22.500  21.960
   73BOLB   PO1 1730  10.200  22.920  22.290
   73BOLB   GL1 1731   9.980  23.090  22.640
   73BOLB   GL2 1732  10.080  23.340  22.750
   73BOLB   C1A 1733   9.910  23.150  23.150
   73BOLB   C2A 1734  10.090  23.360  23.520
   73BOLB   C3A 1735  10.190  23.670  23.610
   73BOLB   C4A 1736  10.420  23.980  23.680
   73BOLB   C1B 1737  10.070  23.730  23.000
   73BOLB   C2B 1738  10.060  24.130  23.260
   73BOLB   C3B 1739   9.830  24.100  23.620
   73BOLB   C4B 1740   9.930  24.000  23.970
   73BOLB   NC2 1741  11.240  25.420  25.290
   73BOLB   PO2 1742  11.040  25.790  25.100
   73BOLB   GL3 1743  10.810  25.340  24.970
   73BOLB   GL4 1744  11.110  25.170  24.870
   73BOLB   C1C 1745  10.710  25.180  24.580
   73BOLB   C2C 1746  10.620  24.900  24.340
   73BOLB   C3C 1747  10.450  24.690  24.070
   73BOLB   C4C 1748  10.310  24.380  23.700
   73BOLB   C1D 1749  11.390  24.800  24.720
   73BOLB   C2D 1750  11.770  24.620  24.720
   73BOLB   C3D 1751  12.150  24.430  24.560
   73BOLB   C4D 1752  12.310  24.230  24.400
   74BOLB   NC1 1753  10.900  11.120  12.580
   74BOLB   PO1 1754  10.680  10.720  12.530
   74BOLB   GL1 1755  10.380  10.450  12.720
   74BOLB   GL2 1756  10.380  10.150  12.510
   74BOLB   C1A 1757  10.000  10.230  12.740
   74BOLB   C2A 1758   9.830   9.840  12.780
   74BOLB   C3A 1759   9.670   9.510  12.800
   74BOLB   C4A 1760   9.210   9.340  12.960
   74BOLB   C1B 1761  10.410   9.790  12.460
   74BOLB   C2B 1762  10.360   9.370  12.570
   74BOLB   C3B 1763  10.340   8.930  12.580
   74BOLB   C4B 1764  10.130   8.760  13.010
   74BOLB   NC2 1765   8.230  10.610  14.610
   74BOLB   PO2 1766   8.430  10.790  14.280
   74BOLB   GL3 1767   8.370  10.340  14.160
   74BOLB   GL4 1768   8.450  10.030  14.380
   74BOLB   C1C 1769   8.430  10.120  13.750
   74BOLB   C2C 1770   8.530   9.740  13.550
   74BOLB   C3C 1771   8.810   9.500  13.650
   74BOLB   C4C 1772   8.940   9.220  13.310
   74BOLB   C1D 1773   8.100   9.940  14.170
   74BOLB   C2D 1774   7.800   9.610  14.120
   74BOLB   C3D 1775   7.690   9.480  13.710
   74BOLB   C4D 1776   7.540   9.360  13.560
   75BOLB   NC1 1777   0.920  21.100  23.120
   75BOLB   PO1 1778   0.670  20.940  22.990
   75BOLB   GL1 1779   1.160  20.740  22.850
   75BOLB   GL2 1780   1.410  20.930  22.960
   75BOLB   C1A 1781   1.500  20.570  22.600
   75BOLB   C2A 1782   1.940  20.550  22.380
   75BOLB   C3A 1783   2.220  20.260  22.220
   75BOLB   C4A 1784   2.430  20.070  21.900
   75BOLB   C1B 1785   1.750  20.780  23.050
   75BOLB   C2B 1786   2.140  20.700  22.880
   75BOLB   C3B 1787   2.530  20.860  22.930
   75BOLB   C4B 1788   2.930  20.650  22.800
   75BOLB   NC2 1789   4.070  19.680  20.610
   75BOLB   PO2 1790   3.770  19.450  20.680
   75BOLB   GL3 1791   3.530  19.190  20.860
   75BOLB   GL4 1792   3.670  18.890  20.780
   75BOLB   C1C 1793   3.210  19.140  21.110
   75BOLB   C2C 1794   2.710  19.320  21.160
   75BOLB   C3C 1795   2.420  19.640  21.170
   75BOLB   C4C 1796   2.300  19.790  21.530
   75BOLB   C1D 1797   3.590  18.680  21.160
   75BOLB   C2D 1798   3.520  18.830  21.610
   75BOLB   C3D 1799   3.340  18.820  22.010
   75BOLB   C4D 1800   3.130  19.080  22.310
   76BOLB   NC1 1801   9.870  24.320  21.450
   76BOLB   PO1 1802   9.990  24.220  21.760
   76BOLB   GL1 1803   9.600  24.480  21.850
   76BOLB   GL2 1804   9.630  24.850  21.540
   76BOLB   C1A 1805   9.440  24.750  22.150
   76BOLB   C2A 1806   9.390  24.940  22.530
   76BOLB   C3A 1807   9.160  25.000  22.840
   76BOLB   C4A 1808   8.940  25.370  22.950
   76BOLB   C1B 1809   9.920  24.870  21.790
   76BOLB   C2B 1810  10.000  25.220  22.040
   76BOLB   C3B 1811   9.950  25.600  22.330
   76BOLB   C4B 1812   9.830  25.870  22.650
   76BOLB   NC2 1813   8.940  27.050  24.510
   76BOLB   PO2 1814   8.520  27.150  24.380
   76BOLB   GL3 1815   8.530  26.910  24.050
   76BOLB   GL4 1816   8.320  26.970  23.860
   76BOLB   C1C 1817   8.760  26.640  23.970
   76BOLB   C2C 1818   8.980  26.440  23.620
   76BOLB   C3C 1819   9.070  26.000  23.570
   76BOLB   C4C 1820   9.090  25.750  23.210
   76BOLB   C1D 1821   8.650  26.880  23.500
   76BOLB   C2D 1822   8.720  26.690  23.140
   76BOLB   C3D 1823   9.060  26.420  22.990
   76BOLB   C4D 1824   9.620  26.300  23.070
   77BOLB   NC1 1825   8.330  24.470  21.840
   77BOLB   PO1 1826   8.760  24.400  21.870
   77BOLB   GL1 1827   8.580  24.610  22.220
   77BOLB   GL2 1828   8.320  24.510  22.450
   77BOLB   C1A 1829   8.600  25.060  22.490
   77BOLB   C2A 1830   8.580  25.530  22.600
   77BOLB   C3A 1831   8.180  25.850  22.650
   77BOLB   C4A 1832   7.690  25.920  22.800
   77BOLB   C1B 1833   8.310  24.590  22.870
   77BOLB   C2B 1834   8.180  24.650  23.290
   77BOLB   C3B 1835   7.900  24.530  23.620
   77BOLB   C4B 1836   7.740  24.520  23.980
   77BOLB   NC2 1837   6.330  27.790  23.360
   77BOLB   PO2 1838   6.450  28.160  23.080
   77BOLB   GL3 1839   6.500  27.750  22.880
   77BOLB   GL4 1840   6.270  27.490  22.970
   77BOLB   C1C 1841   6.800  27.360  22.880
   77BOLB   C2C 1842   6.860  26.810  22.940
   77BOLB   C3C 1843   7.170  26.630  22.780
   77BOLB   C4C 1844   7.420  26.350  22.880
   77BOLB   C1D 1845   6.360  27.390  22.580
   77BOLB   C2D 1846   6.440  27.300  22.150
   77BOLB   C3D 1847   6.280  27.080  21.860
   77BOLB   C4D 1848   6.130  26.960  21.470
   78BOLB   NC1 1849   4.570  21.140  21.110
   78BOLB   PO1 1850   4.250  21.390  20.970
   78BOLB   GL1 1851   4.070  21.670  21.230
   78BOLB   GL2 1852   3.810  21.780  21.210
   78BOLB   C1A 1853   3.920  21.700  21.680
   78BOLB   C2A 1854   3.850  21.930  22.110
   78BOLB   C3A 1855   3.880  21.930  22.580
   78BOLB   C4A 1856   3.990  22.130  23.020
   78BOLB   C1B 1857   3.410  21.740  21.480
   78BOLB   C2B 1858   3.080  21.640  21.710
   78BOLB   C3B 1859   2.650  21.490  21.880
   78BOLB   C4B 1860   2.270  21.530  21.600
   78BOLB   NC2 1861   3.460  21.770  25.320
   78BOLB   PO2 1862   3.500  22.240  25.330
   78BOLB   GL3 1863   3.860  22.170  25.080
   78BOLB   GL4 1864   4.110  22.380  25.090
   78BOLB   C1C 1865   3.830  22.090  24.710
   78BOLB   C2C 1866   4.010  22.150  24.290
   78BOLB   C3C 1867   4.110  22.340  23.840
   78BOLB   C4C 1868   4.090  22.150  23.400
   78BOLB   C1D 1869   4.340  22.170  24.720
   78BOLB   C2D 1870   4.600  22.040  24.320
   78BOLB   C3D 1871   4.800  21.720  23.990
   78BOLB   C4D 1872   4.960  21.620  23.630
   79BOLB   NC1 1873   8.940  23.370  22.080
   79BOLB   PO1 1874   8.710  23.010  22.140
   79BOLB   GL1 1875   8.730  23.280  22.580
   79BOLB   GL2 1876   8.870  23.600  22.540
   79BOLB   C1A 1877   8.650  23.200  22.980
   79BOLB   C2A 1878   8.730  23.050  23.450
   79BOLB   C3A 1879   8.750  23.080  23.930
   79BOLB   C4A 1880   9.020  22.960  24.240
   79BOLB   C1B 1881   9.020  23.620  23.040
   79BOLB   C2B 1882   8.970  23.940  23.270
   79BOLB   C3B 1883   8.900  24.190  23.580
   79BOLB   C4B 1884   8.880  24.320  23.990
   79BOLB   NC2 1885   8.870  23.200  27.150
   79BOLB   PO2 1886   9.030  23.220  26.740
   79BOLB   GL3 1887   9.020  23.050  26.320
   79BOLB   GL4 1888   9.360  22.980  26.240
   79BOLB   C1C 1889   9.150  23.380  26.010
   79BOLB   C2C 1890   9.170  23.330  25.530
   79BOLB   C3C 1891   9.110  23.120  25.070
   79BOLB   C4C 1892   8.990  22.940  24.680
   79BOLB   C1D 1893   9.460  23.040  25.840
   79BOLB   C2D 1894   9.300  22.830  25.520
   79BOLB   C3D 1895   9.480  22.710  25.110
   79BOLB   C4D 1896   9.490  22.850  24.710
   80BOLB   NC1 1897   4.170  23.020  20.280
   80BOLB   PO1 1898   4.220  22.560  20.160
   80BOLB   GL1 1899   3.810  22.640  20.350
   80BOLB   GL2 1900   3.760  22.530  20.650
   80BOLB   C1A 1901   3.480  22.970  20.620
   80BOLB   C2A 1902   3.240  23.210  20.820
   80BOLB   C3A 1903   2.990  23.320  21.150
   80BOLB   C4A 1904   2.940  23.540  21.530
   80BOLB   C1B 1905   3.440  22.730  21.050
   80BOLB   C2B 1906   3.430  22.760  21.390
   80BOLB   C3B 1907   3.200  23.140  21.620
   80BOLB   C4B 1908   3.300  23.540  21.860
   80BOLB   NC2 1909   1.100  23.320  22.860
   80BOLB   PO2 1910   1.390  23.190  23.150
   80BOLB   GL3 1911   1.620  23.150  22.790
   80BOLB   GL4 1912   1.500  23.430  22.550
   80BOLB   C1C 1913   1.910  22.960  22.460
   80BOLB   C2C 1914   2.130  23.270  22.270
   80BOLB   C3C 1915   2.440  23.260  21.990
   80BOLB   C4C 1916   2.810  23.440  21.890
   80BOLB   C1D 1917   1.630  23.250  22.170
   80BOLB   C2D 1918   1.920  22.980  21.930
   80BOLB   C3D 1919   2.230  23.130  21.570
   80BOLB   C4D 1920   2.150  22.970  21.200
   81BOLB   NC1 1921   7.330  14.540  18.800
   81BOLB   PO1 1922   7.170  14.300  19.090
   81BOLB   GL1 1923   7.060  13.940  19.370
   81BOLB   GL2 1924   6.710  14.020  19.420
   81BOLB   C1A 1925   7.100  13.560  19.660
   81BOLB   C2A 1926   7.140  13.100  19.920
   81BOLB   C3A 1927   7.160  12.660  20.210
   81BOLB   C4A 1928   7.000  12.230  20.390
   81BOLB   C1B 1929   6.310  14.020  19.560
   81BOLB   C2B 1930   6.200  13.680  19.840
   81BOLB   C3B 1931   6.180  13.360  20.100
   81BOLB   C4B 1932   6.000  13.050  20.400
   81BOLB   NC2 1933   6.590  10.110  21.150
   81BOLB   PO2 1934   6.560  10.430  21.530
   81BOLB   GL3 1935   6.630  10.670  21.170
   81BOLB   GL4 1936   6.350  10.920  21.190
   81BOLB   C1C 1937   6.850  10.870  20.950
   81BOLB   C2C 1938   7.140  11.130  20.650
   81BOLB   C3C 1939   6.960  11.520  20.490
   81BOLB   C4C 1940   6.940  11.900  20.500
   81BOLB   C1D 1941   6.570  11.280  21.050
   81BOLB   C2D 1942   6.580  11.350  20.730
   81BOLB   C3D 1943   6.500  11.430  20.320
   81BOLB   C4D 1944   6.820  11.490  19.960
   82BOLB   NC1 1945  11.460  25.240  21.000
   82BOLB   PO1 1946  11.820  25.450  20.800
   82BOLB   GL1 1947  11.890  25.850  21.000
   82BOLB   GL2 1948  11.810  26.030  20.740
   82BOLB   C1A 1949  11.860  25.890  21.400
   82BOLB   C2A 1950  12.190  26.020  21.750
   82BOLB   C3A 1951  12.500  25.860  22.060
   82BOLB   C4A 1952  12.750  25.770  22.350
   82BOLB   C1B 1953  11.680  26.360  21.010
   82BOLB   C2B 1954  11.910  26.480  21.410
   82BOLB   C3B 1955  11.990  26.880  21.590
   82BOLB   C4B 1956  12.150  27.170  21.810
   82BOLB   NC2 1957  13.880  25.630  24.730
   82BOLB   PO2 1958  13.620  25.940  24.780
   82BOLB   GL3 1959  13.600  25.930  24.310
   82BOLB   GL4 1960  13.640  25.650  24.100
   82BOLB   C1C 1961  13.360  26.010  23.910
   82BOLB   C2C 1962  13.150  25.970  23.510
   82BOLB   C3C 1963  12.970  25.990  23.150
   82BOLB   C4C 1964  12.740  25.730  22.860
   82BOLB   C1D 1965  13.460  25.570  23.650
   82BOLB   C2D 1966  13.540  25.530  23.240
   82BOLB   C3D 1967  13.410  25.270  22.980
   82BOLB   C4D 1968  13.030  25.200  22.900
   83BOLB   NC1 1969   5.940  10.360   7.110
   83BOLB   PO1 1970   5.760  10.150   7.380
   83BOLB   GL1 1971   5.780  10.360   7.730
   83BOLB   GL2 1972   6.010  10.280   7.970
   83BOLB   C1A 1973   5.710  10.740   8.030
   83BOLB   C2A 1974   5.860  11.010   8.280
   83BOLB   C3A 1975   5.820  11.460   8.410
   83BOLB   C4A 1976   5.430  11.800   8.420
   83BOLB   C1B 1977   6.470  10.370   7.910
   83BOLB   C2B 1978   6.860  10.190   7.700
   83BOLB   C3B 1979   7.210  10.010   7.860
   83BOLB   C4B 1980   7.620  10.090   7.990
   83BOLB   NC2 1981   4.280  11.790   6.690
   83BOLB   PO2 1982   4.310  12.190   6.680
   83BOLB   GL3 1983   4.530  12.280   6.990
   83BOLB   GL4 1984   4.360  12.410   7.260
   83BOLB   C1C 1985   4.880  12.410   7.210
   83BOLB   C2C 1986   5.020  12.620   7.490
   83BOLB   C3C 1987   5.120  12.510   7.960
   83BOLB   C4C 1988   5.360  12.300   8.350
   83BOLB   C1D 1989   4.520  12.790   7.610
   83BOLB   C2D 1990   4.860  12.940   7.940
   83BOLB   C3D 1991   5.380  13.000   8.030
   83BOLB   C4D 1992   5.540  12.870   8.320
   84BOLB   NC1 1993   6.230  26.150  18.800
   84BOLB   PO1 1994   6.110  25.760  19.130
   84BOLB   GL1 1995   5.940  26.190  19.210
   84BOLB   GL2 1996   5.710  26.230  19.000
   84BOLB   C1A 1997   6.000  26.500  19.420
   84BOLB   C2A 1998   5.830  26.900  19.750
   84BOLB   C3A 1999   5.570  27.110  19.990
   84BOLB   C4A 2000   5.140  27.280  20.070
   84BOLB   C1B 2001   5.390  26.490  19.170
   84BOLB   C2B 2002   5.140  26.680  19.390
   84BOLB   C3B 2003   5.280  27.060  19.540
   84BOLB   C4B 2004   5.220  27.510  19.680
   84BOLB   NC2 2005   3.440  28.500  21.040
   84BOLB   PO2 2006   3.320  28.520  20.680
   84BOLB   GL3 2007   3.720  28.350  20.670
   84BOLB   GL4 2008   3.860  28.480  20.370
   84BOLB   C1C 2009   3.810  27.890  20.530
   84BOLB   C2C 2010   3.940  27.580  20.330
   84BOLB   C3C 2011   4.300  27.300  20.200
   84BOLB   C4C 2012   4.750  27.090  20.210
   84BOLB   C1D 2013   4.150  28.230  20.350
   84BOLB   C2D 2014   4.240  27.870  19.990
   84BOLB   C3D 2015   4.160  27.480  19.730
   84BOLB   C4D 2016   4.300  27.120  19.730
   85BOLB   NC1 2017   0.300  16.160   8.380
   85BOLB   PO1 2018   0.310  15.710   8.450
   85BOLB   GL1 2019   0.470  15.610   8.810
   85BOLB   GL2 2020   0.260  15.650   9.150
   85BOLB   C1A 2021   0.770  15.810   9.070
   85BOLB   C2A 2022   1.220  15.760   9.190
   85BOLB   C3A 2023   1.760  15.800   9.300
   85BOLB   C4A 2024   2.140  15.890   9.490
   85BOLB   C1B 2025   0.530  15.420   9.300
   85BOLB   C2B 2026   0.960  15.330   9.180
   85BOLB   C3B 2027   1.420  15.320   9.060
   85BOLB   C4B 2028   1.810  15.220   9.170
   85BOLB   NC2 2029   4.230  16.950  10.200
   85BOLB   PO2 2030   4.340  16.810   9.760
   85BOLB   GL3 2031   3.970  16.580   9.510
   85BOLB   GL4 2032   3.980  16.300   9.560
   85BOLB   C1C 2033   3.660  16.600   9.270
   85BOLB   C2C 2034   3.260  16.610   9.260
   85BOLB   C3C 2035   2.870  16.370   9.270
   85BOLB   C4C 2036   2.570  16.060   9.390
   85BOLB   C1D 2037   3.950  16.250   9.130
   85BOLB   C2D 2038   3.850  16.130   8.740
   85BOLB   C3D 2039   3.520  16.040   8.380
   85BOLB   C4D 2040   3.570  15.630   8.140
   86BOLB   NC1 2041   5.870   7.640  13.750
   86BOLB   PO1 2042   5.970   7.540  14.190
   86BOLB   GL1 2043   6.130   7.980  14.000
   86BOLB   GL2 2044   6.330   8.040  13.830
   86BOLB   C1A 2045   6.260   8.400  14.300
   86BOLB   C2A 2046   6.320   8.760  14.370
   86BOLB   C3A 2047   6.580   9.180  14.250
   86BOLB   C4A 2048   6.830   9.400  13.980
   86BOLB   C1B 2049   6.540   8.460  13.880
   86BOLB   C2B 2050   6.840   8.760  14.040
   86BOLB   C3B 2051   7.240   9.060  13.880
   86BOLB   C4B 2052   7.660   8.980  13.820
   86BOLB   NC2 2053   7.820  11.810  13.270
   86BOLB   PO2 2054   7.510  11.570  13.560
   86BOLB   GL3 2055   7.220  11.180  13.560
   86BOLB   GL4 2056   7.320  11.050  13.190
   86BOLB   C1C 2057   6.860  11.040  13.730
   86BOLB   C2C 2058   6.730  10.550  13.850
   86BOLB   C3C 2059   6.590  10.130  13.690
   86BOLB   C4C 2060   6.680   9.700  13.740
   86BOLB   C1D 2061   7.250  10.580  13.080
   86BOLB   C2D 2062   7.200  10.170  13.010
   86BOLB   C3D 2063   6.970   9.800  13.070
   86BOLB   C4D 2064   6.860   9.440  13.280
   87BOLB   NC1 2065   9.160  25.180  20.790
   87BOLB   PO1 2066   9.190  24.970  21.130
   87BOLB   GL1 2067   9.170  25.360  21.260
   87BOLB   GL2 2068   8.960  25.450  21.350
   87BOLB   C1A 2069   9.380  25.810  21.440
   87BOLB   C2A 2070   9.590  26.260  21.670
   87BOLB   C3A 2071   9.880  26.560  21.780
   87BOLB   C4A 2072   9.870  26.930  21.750
   87BOLB   C1B 2073   8.940  25.510  21.760
   87BOLB   C2B 2074   9.290  25.660  21.970
   87BOLB   C3B 2075   9.510  25.840  22.270
   87BOLB   C4B 2076   9.360  25.970  22.740
   87BOLB   NC2 2077  10.140  28.910  22.630
   87BOLB   PO2 2078   9.850  28.920  22.980
   87BOLB   GL3 2079   9.850  28.510  22.880
   87BOLB   GL4 2080  10.090  28.330  22.700
   87BOLB   C1C 2081   9.640  28.140  22.700
   87BOLB   C2C 2082   9.690  27.780  22.590
   87BOLB   C3C 2083   9.620  27.450  22.180
   87BOLB   C4C 2084   9.770  27.210  21.870
   87BOLB   C1D 2085  10.110  28.100  22.320
   87BOLB   C2D 2086  10.090  27.720  22.240
   87BOLB   C3D 2087  10.230  27.470  21.950
   87BOLB   C4D 2088  10.530  27.330  21.620
   88BOLB   NC1 2089   1.880  18.830  15.740
   88BOLB   PO1 2090   1.770  18.870  16.270
   88BOLB   GL1 2091   1.370  18.760  16.510
   88BOLB   GL2 2092   1.240  19.050  16.420
   88BOLB   C1A 2093   1.050  18.510  16.810
   88BOLB   C2A 2094   0.740  18.400  17.090
   88BOLB   C3A 2095   0.460  18.200  17.040
   88BOLB   C4A 2096   0.150  18.010  16.800
   88BOLB   C1B 2097   0.800  19.080  16.480
   88BOLB   C2B 2098   0.400  19.180  16.750
   88BOLB   C3B 2099   0.210  19.470  16.980
   88BOLB   C4B 2100   0.450  19.660  17.360
   88BOLB   NC2 2101  34.510  17.360  18.010
   88BOLB   PO2 2102  34.300  16.990  17.840
   88BOLB   GL3 2103  34.710  17.000  17.580
   88BOLB   GL4 2104  34.730  17.380  17.490
   88BOLB   C1C 2105  35.190  17.050  17.460
   88BOLB   C2C 2106  35.390  17.170  17.150
   88BOLB   C3C 2107  35.600  17.580  16.890
   88BOLB   C4C 2108  36.080  17.790  16.840
   88BOLB   C1D 2109  35.250  17.610  17.630
   88BOLB   C2D 2110  35.640  17.750  17.350
   88BOLB   C3D 2111  36.030  17.670  17.280
   88BOLB   C4D 2112   0.000  17.550  17.510
   89BOLB   NC1 2113   4.000  17.000  19.290
   89BOLB   PO1 2114   4.300  16.830  19.000
   89BOLB   GL1 2115   4.030  16.440  19.140
   89BOLB   GL2 2116   3.890  16.300  18.920
   89BOLB   C1A 2117   3.890  16.370  19.680
   89BOLB   C2A 2118   3.750  15.980  19.950
   89BOLB   C3A 2119   3.380  15.690  20.050
   89BOLB   C4A 2120   3.070  15.740  20.440
   89BOLB   C1B 2121   3.800  16.000  19.320
   89BOLB   C2B 2122   3.540  15.700  19.600
   89BOLB   C3B 2123   3.340  15.290  19.750
   89BOLB   C4B 2124   3.020  15.100  19.880
   89BOLB   NC2 2125   1.590  14.690  22.170
   89BOLB   PO2 2126   1.670  14.990  22.160
   89BOLB   GL3 2127   2.110  15.280  21.910
   89BOLB   GL4 2128   1.970  15.470  21.670
   89BOLB   C1C 2129   2.460  15.550  21.780
   89BOLB   C2C 2130   2.560  15.850  21.560
   89BOLB   C3C 2131   2.920  15.940  21.300
   89BOLB   C4C 2132   3.100  15.850  20.960
   89BOLB   C1D 2133   2.040  15.860  21.880
   89BOLB   C2D 2134   2.430  16.080  22.090
   89BOLB   C3D 2135   2.770  16.280  22.170
   89BOLB   C4D 2136   3.020  16.570  22.200
   90BOLB   NC1 2137   7.400  12.460  15.550
   90BOLB   PO1 2138   6.870  12.410  15.420
   90BOLB   GL1 2139   6.650  11.940  15.320
   90BOLB   GL2 2140   6.360  11.790  15.230
   90BOLB   C1A 2141   6.630  11.630  15.600
   90BOLB   C2A 2142   6.570  11.290  15.870
   90BOLB   C3A 2143   6.450  10.870  16.090
   90BOLB   C4A 2144   6.030  10.660  16.280
   90BOLB   C1B 2145   6.160  11.430  15.320
   90BOLB   C2B 2146   5.870  11.060  15.290
   90BOLB   C3B 2147   5.670  10.700  15.310
   90BOLB   C4B 2148   5.520  10.320  15.270
   90BOLB   NC2 2149   4.190   9.320  16.580
   90BOLB   PO2 2150   4.080   9.400  16.980
   90BOLB   GL3 2151   4.440   9.620  16.990
   90BOLB   GL4 2152   4.390   9.590  17.300
   90BOLB   C1C 2153   4.780   9.910  16.910
   90BOLB   C2C 2154   5.180  10.110  16.980
   90BOLB   C3C 2155   5.520  10.300  16.810
   90BOLB   C4C 2156   5.780  10.620  16.570
   90BOLB   C1D 2157   4.720   9.840  17.410
   90BOLB   C2D 2158   4.710  10.320  17.290
   90BOLB   C3D 2159   4.680  10.810  17.230
   90BOLB   C4D 2160   4.490  11.210  16.950
   91BOLB   NC1 2161  11.580  25.920  18.910
   91BOLB   PO1 2162  11.550  26.010  19.430
   91BOLB   GL1 2163  11.430  26.180  19.900
   91BOLB   GL2 2164  11.400  26.550  19.870
   91BOLB   C1A 2165  11.500  26.130  20.260
   91BOLB   C2A 2166  11.360  26.440  20.670
   91BOLB   C3A 2167  11.340  26.720  21.140
   91BOLB   C4A 2168  11.430  27.050  21.360
   91BOLB   C1B 2169  11.230  26.750  20.200
   91BOLB   C2B 2170  11.090  26.820  20.610
   91BOLB   C3B 2171  10.900  26.780  20.980
   91BOLB   C4B 2172  10.580  26.920  21.350
   91BOLB   NC2 2173  11.870  28.940  22.840
   91BOLB   PO2 2174  11.400  28.830  22.980
   91BOLB   GL3 2175  11.200  28.700  22.580
   91BOLB   GL4 2176  11.010  28.800  22.290
   91BOLB   C1C 2177  11.070  28.250  22.520
   91BOLB   C2C 2178  11.020  27.960  22.100
   91BOLB   C3C 2179  11.100  27.690  21.840
   91BOLB   C4C 2180  11.110  27.340  21.650
   91BOLB   C1D 2181  11.080  28.490  22.000
   91BOLB   C2D 2182  11.010  28.190  21.470
   91BOLB   C3D 2183  11.260  28.060  21.260
   91BOLB   C4D 2184  11.440  27.900  20.830
   92BOLB   NC1 2185   3.610  13.000  21.860
   92BOLB   PO1 2186   3.610  12.530  21.850
   92BOLB   GL1 2187   3.950  12.680  21.650
   92BOLB   GL2 2188   4.250  12.630  21.690
   92BOLB   C1A 2189   4.040  13.020  21.330
   92BOLB   C2A 2190   4.270  13.310  21.150
   92BOLB   C3A 2191   4.500  13.550  20.920
   92BOLB   C4A 2192   4.490  13.860  20.530
   92BOLB   C1B 2193   4.670  12.650  21.430
   92BOLB   C2B 2194   4.860  12.730  21.070
   92BOLB   C3B 2195   4.990  12.830  20.710
   92BOLB   C4B 2196   5.300  13.080  20.460
   92BOLB   NC2 2197   6.180  14.570  18.660
   92BOLB   PO2 2198   5.830  14.720  18.740
   92BOLB   GL3 2199   5.480  14.590  19.000
   92BOLB   GL4 2200   5.240  14.490  18.780
   92BOLB   C1C 2201   5.240  14.560  19.380
   92BOLB   C2C 2202   4.820  14.630  19.580
   92BOLB   C3C 2203   4.570  14.460  19.890
   92BOLB   C4C 2204   4.510  14.210  20.260
   92BOLB   C1D 2205   4.900  14.310  19.060
   92BOLB   C2D 2206   4.640  14.180  19.380
   92BOLB   C3D 2207   4.370  14.010  19.670
   92BOLB   C4D 2208   4.160  13.600  19.450
   93BOLB   NC1 2209   4.320  24.800  19.070
   93BOLB   PO1 2210   4.460  25.140  19.180
   93BOLB   GL1 2211   4.060  25.280  19.020
   93BOLB   GL2 2212   3.960  25.320  18.710
   93BOLB   C1A 2213   3.790  25.410  19.330
   93BOLB   C2A 2214   3.360  25.720  19.440
   93BOLB   C3A 2215   3.340  25.850  19.840
   93BOLB   C4A 2216   3.220  26.140  20.070
   93BOLB   C1B 2217   3.890  25.710  18.920
   93BOLB   C2B 2218   3.610  26.040  19.150
   93BOLB   C3B 2219   3.860  26.420  19.200
   93BOLB   C4B 2220   4.060  26.600  19.530
   93BOLB   NC2 2221   1.590  28.370  20.160
   93BOLB   PO2 2222   1.680  27.920  19.910
   93BOLB   GL3 2223   2.120  27.710  19.900
   93BOLB   GL4 2224   2.260  27.690  19.450
   93BOLB   C1C 2225   2.320  27.320  20.200
   93BOLB   C2C 2226   2.240  26.940  20.350
   93BOLB   C3C 2227   2.630  26.640  20.500
   93BOLB   C4C 2228   2.940  26.370  20.460
   93BOLB   C1D 2229   2.220  27.320  19.560
   93BOLB   C2D 2230   2.470  27.040  19.790
   93BOLB   C3D 2231   2.710  26.680  19.590
   93BOLB   C4D 2232   2.910  26.620  19.230
   94BOLB   NC1 2233   5.620  19.830  21.640
   94BOLB   PO1 2234   5.600  19.680  21.990
   94BOLB   GL1 2235   5.390  19.840  22.250
   94BOLB   GL2 2236   5.350  19.680  22.480
   94BOLB   C1A 2237   4.930  19.980  22.500
   94BOLB   C2A 2238   4.540  19.990  22.620
   94BOLB   C3A 2239   4.210  20.140  22.940
   94BOLB   C4A 2240   3.840  20.470  22.850
   94BOLB   C1B 2241   5.210  19.810  22.840
   94BOLB   C2B 2242   5.070  19.670  23.210
   94BOLB   C3B 2243   4.920  19.530  23.640
   94BOLB   C4B 2244   4.940  19.530  24.050
   94BOLB   NC2 2245   1.680  21.600  24.110
   94BOLB   PO2 2246   1.880  21.210  24.260
   94BOLB   GL3 2247   2.230  20.980  24.030
   94BOLB   GL4 2248   2.140  20.660  23.840
   94BOLB   C1C 2249   2.650  21.110  23.920
   94BOLB   C2C 2250   2.960  21.150  23.600
   94BOLB   C3C 2251   3.240  21.000  23.210
   94BOLB   C4C 2252   3.530  20.770  22.860
   94BOLB   C1D 2253   2.590  20.610  23.820
   94BOLB   C2D 2254   2.990  20.680  23.840
   94BOLB   C3D 2255   3.380  20.900  23.680
   94BOLB   C4D 2256   3.520  21.230  23.580
   95BOLB   NC1 2257  15.540  25.360  19.130
   95BOLB   PO1 2258  15.500  25.040  19.410
   95BOLB   GL1 2259  15.750  25.260  19.730
   95BOLB   GL2 2260  15.930  24.990  19.810
   95BOLB   C1A 2261  16.020  25.580  19.920
   95BOLB   C2A 2262  15.980  25.920  20.320
   95BOLB   C3A 2263  15.910  26.280  20.490
   95BOLB   C4A 2264  15.640  26.450  20.810
   95BOLB   C1B 2265  15.880  25.110  20.250
   95BOLB   C2B 2266  15.970  25.440  20.470
   95BOLB   C3B 2267  16.110  25.420  20.910
   95BOLB   C4B 2268  16.450  25.310  21.190
   95BOLB   NC2 2269  15.230  28.090  22.800
   95BOLB   PO2 2270  15.490  28.100  22.410
   95BOLB   GL3 2271  15.310  27.820  22.190
   95BOLB   GL4 2272  15.090  27.920  22.000
   95BOLB   C1C 2273  15.470  27.610  21.820
   95BOLB   C2C 2274  15.750  27.610  21.560
   95BOLB   C3C 2275  15.830  27.220  21.260
   95BOLB   C4C 2276  15.640  26.800  21.050
   95BOLB   C1D 2277  15.030  27.650  21.700
   95BOLB   C2D 2278  14.670  27.400  21.540
   95BOLB   C3D 2279  14.570  26.960  21.480
   95BOLB   C4D 2280  14.200  26.810  21.240
   96BOLB   NC1 2281   7.050  20.130  22.180
   96BOLB   PO1 2282   7.160  20.080  22.620
   96BOLB   GL1 2283   6.890  20.150  23.000
   96BOLB   GL2 2284   6.940  19.860  23.050
   96BOLB   C1A 2285   6.710  20.220  23.310
   96BOLB   C2A 2286   6.640  20.070  23.740
   96BOLB   C3A 2287   6.460  19.840  24.090
   96BOLB   C4A 2288   6.290  19.620  24.460
   96BOLB   C1B 2289   6.550  19.760  23.240
   96BOLB   C2B 2290   6.380  19.570  23.620
   96BOLB   C3B 2291   6.900  19.610  23.860
   96BOLB   C4B 2292   7.280  19.460  23.840
   96BOLB   NC2 2293   5.040  18.410  25.970
   96BOLB   PO2 2294   5.180  18.810  25.880
   96BOLB   GL3 2295   5.070  19.040  25.590
   96BOLB   GL4 2296   4.780  18.900  25.630
   96BOLB   C1C 2297   5.100  18.990  25.220
   96BOLB   C2C 2298   5.360  19.080  24.870
   96BOLB   C3C 2299   5.600  19.100  24.650
   96BOLB   C4C 2300   5.950  19.250  24.520
   96BOLB   C1D 2301   4.700  18.680  25.260
   96BOLB   C2D 2302   4.870  18.560  25.000
   96BOLB   C3D 2303   5.140  18.620  24.830
   96BOLB   C4D 2304   5.500  18.560  24.590
   97BOLB   NC1 2305   7.730  12.860  18.580
   97BOLB   PO1 2306   7.500  13.060  18.260
   97BOLB   GL1 2307   7.240  12.610  18.440
   97BOLB   GL2 2308   6.950  12.600  18.660
   97BOLB   C1A 2309   7.390  12.410  18.890
   97BOLB   C2A 2310   7.510  12.030  19.190
   97BOLB   C3A 2311   7.520  11.780  19.500
   97BOLB   C4A 2312   7.650  11.480  19.760
   97BOLB   C1B 2313   7.020  12.120  18.700
   97BOLB   C2B 2314   6.990  11.870  19.010
   97BOLB   C3B 2315   6.760  11.550  19.060
   97BOLB   C4B 2316   6.330  11.400  19.100
   97BOLB   NC2 2317   5.970   9.720  20.530
   97BOLB   PO2 2318   6.220  10.010  20.850
   97BOLB   GL3 2319   6.320  10.350  20.600
   97BOLB   GL4 2320   6.430  10.600  20.730
   97BOLB   C1C 2321   6.740  10.460  20.340
   97BOLB   C2C 2322   7.060  10.740  20.300
   97BOLB   C3C 2323   7.120  11.140  20.130
   97BOLB   C4C 2324   7.330  11.280  19.850
   97BOLB   C1D 2325   6.600  10.940  20.360
   97BOLB   C2D 2326   6.520  11.060  20.000
   97BOLB   C3D 2327   6.260  11.060  19.650
   97BOLB   C4D 2328   5.840  10.790  19.740
   98BOLB   NC1 2329   2.170  22.540  12.930
   98BOLB   PO1 2330   2.300  23.040  12.960
   98BOLB   GL1 2331   1.940  23.020  12.770
   98BOLB   GL2 2332   1.910  23.230  12.470
   98BOLB   C1A 2333   1.420  22.940  12.590
   98BOLB   C2A 2334   1.030  23.140  12.400
   98BOLB   C3A 2335   0.650  23.270  12.440
   98BOLB   C4A 2336   0.200  23.500  12.490
   98BOLB   C1B 2337   1.710  23.550  12.470
   98BOLB   C2B 2338   1.330  23.590  12.400
   98BOLB   C3B 2339   1.060  23.680  12.220
   98BOLB   C4B 2340   0.840  23.850  11.900
   98BOLB   NC2 2341  35.930  25.400  10.850
   98BOLB   PO2 2342  35.710  25.200  11.200
   98BOLB   GL3 2343  35.960  25.030  11.470
   98BOLB   GL4 2344  36.120  25.190  11.420
   98BOLB   C1C 2345  35.890  24.760  11.790
   98BOLB   C2C 2346  35.970  24.460  12.160
   98BOLB   C3C 2347  36.120  24.180  12.370
   98BOLB   C4C 2348  36.180  23.740  12.470
   98BOLB   C1D 2349   0.160  24.990  11.610
   98BOLB   C2D 2350   0.410  24.670  11.650
   98BOLB   C3D 2351   0.460  24.250  11.740
   98BOLB   C4D 2352   0.330  23.750  11.790
   99BOLB   NC1 2353   2.890  16.450  12.790
   99BOLB   PO1 2354   2.510  16.220  12.660
   99BOLB   GL1 2355   2.270  15.950  12.330
   99BOLB   GL2 2356   2.130  16.170  12.050
   99BOLB   C1A 2357   1.900  15.750  12.170
   99BOLB   C2A 2358   1.620  15.430  12.050
   99BOLB   C3A 2359   1.290  15.320  11.860
   99BOLB   C4A 2360   1.180  14.970  11.720
   99BOLB   C1B 2361   1.680  16.230  12.230
   99BOLB   C2B 2362   1.270  16.050  12.180
   99BOLB   C3B 2363   0.880  15.690  12.130
   99BOLB   C4B 2364   0.490  15.640  12.110
   99BOLB   NC2 2365  35.620  13.590  11.850
   99BOLB   PO2 2366  35.580  13.800  11.460
   99BOLB   GL3 2367  35.980  13.820  11.620
   99BOLB   GL4 2368  36.090  13.610  11.380
   99BOLB   C1C 2369  36.300  14.060  11.590
   99BOLB   C2C 2370   0.320  14.240  11.640
   99BOLB   C3C 2371   0.610  14.520  11.610
   99BOLB   C4C 2372   1.020  14.610  11.710
   99BOLB   C1D 2373   0.110  13.750  11.130
   99BOLB   C2D 2374   0.450  14.030  11.220
   99BOLB   C3D 2375   0.520  14.470  11.090
   99BOLB   C4D 2376   0.240  14.770  11.160
  100BOLB   NC1 2377   1.810  16.150  15.530
  100BOLB   PO1 2378   1.740  16.540  15.760
  100BOLB   GL1 2379   1.620  16.490  16.170
  100BOLB   GL2 2380   1.640  16.750  16.370
  100BOLB   C1A 2381   1.480  16.320  16.540
  100BOLB   C2A 2382   1.180  16.600  16.770
  100BOLB   C3A 2383   0.780  16.570  17.040
  100BOLB   C4A 2384   0.520  16.270  17.320
  100BOLB   C1B 2385   1.170  16.770  16.300
  100BOLB   C2B 2386   0.760  16.840  16.340
  100BOLB   C3B 2387   0.390  16.620  16.380
  100BOLB   C4B 2388   0.190  16.230  16.380
  100BOLB   NC2 2389  35.640  13.970  17.580
  100BOLB   PO2 2390  36.020  13.850  17.710
  100BOLB   GL3 2391  36.280  14.090  17.410
  100BOLB   GL4 2392   0.150  14.020  17.220
  100BOLB   C1C 2393   0.100  14.540  17.250
  100BOLB   C2C 2394   0.110  14.950  17.110
  100BOLB   C3C 2395   0.310  15.460  17.170
  100BOLB   C4C 2396   0.550  15.780  17.320
  100BOLB   C1D 2397   0.480  14.240  17.090
  100BOLB   C2D 2398   0.750  14.500  16.800
  100BOLB   C3D 2399   1.000  14.710  16.520
  100BOLB   C4D 2400   0.970  14.960  16.130
  101BOLB   NC1 2401   5.940  13.050  13.110
  101BOLB   PO1 2402   5.660  12.990  12.770
  101BOLB   GL1 2403   5.450  12.590  12.600
  101BOLB   GL2 2404   5.120  12.640  12.540
  101BOLB   C1A 2405   5.330  12.240  12.360
  101BOLB   C2A 2406   5.320  11.850  12.280
  101BOLB   C3A 2407   5.120  11.500  12.140
  101BOLB   C4A 2408   4.770  11.270  12.070
  101BOLB   C1B 2409   4.830  12.340  12.460
  101BOLB   C2B 2410   4.390  12.240  12.410
  101BOLB   C3B 2411   4.050  12.060  12.380
  101BOLB   C4B 2412   3.680  12.010  12.160
  101BOLB   NC2 2413   4.050   9.480  10.520
  101BOLB   PO2 2414   3.790   9.820  10.510
  101BOLB   GL3 2415   4.140   9.900  10.860
  101BOLB   GL4 2416   4.330  10.030  10.700
  101BOLB   C1C 2417   4.010  10.110  11.210
  101BOLB   C2C 2418   4.100  10.300  11.650
  101BOLB   C3C 2419   4.490  10.560  11.890
  101BOLB   C4C 2420   4.620  10.920  12.050
  101BOLB   C1D 2421   4.280  10.420  10.910
  101BOLB   C2D 2422   4.540  10.640  11.360
  101BOLB   C3D 2423   4.650  10.970  11.490
  101BOLB   C4D 2424   4.980  11.280  11.580
  102BOLB   NC1 2425   3.600  19.430  20.270
  102BOLB   PO1 2426   3.290  19.300  19.900
  102BOLB   GL1 2427   3.070  19.140  20.230
  102BOLB   GL2 2428   3.190  19.230  20.520
  102BOLB   C1A 2429   2.920  18.740  20.350
  102BOLB   C2A 2430   2.820  18.440  20.640
  102BOLB   C3A 2431   2.570  18.120  20.720
  102BOLB   C4A 2432   2.610  17.830  21.050
  102BOLB   C1B 2433   2.760  19.200  20.510
  102BOLB   C2B 2434   2.490  18.990  20.510
  102BOLB   C3B 2435   2.140  18.790  20.470
  102BOLB   C4B 2436   2.220  18.450  20.740
  102BOLB   NC2 2437   1.410  17.620  22.990
  102BOLB   PO2 2438   1.770  17.290  23.060
  102BOLB   GL3 2439   1.800  17.350  22.620
  102BOLB   GL4 2440   1.670  17.570  22.550
  102BOLB   C1C 2441   2.170  17.370  22.350
  102BOLB   C2C 2442   2.430  17.290  22.030
  102BOLB   C3C 2443   2.620  17.420  21.730
  102BOLB   C4C 2444   2.640  17.630  21.520
  102BOLB   C1D 2445   1.760  17.500  22.080
  102BOLB   C2D 2446   1.660  17.590  21.700
  102BOLB   C3D 2447   1.770  17.820  21.310
  102BOLB   C4D 2448   1.720  18.160  20.980
  103BOLB   NC1 2449   1.260  13.820   7.560
  103BOLB   PO1 2450   1.500  13.830   8.040
  103BOLB   GL1 2451   1.760  13.990   8.350
  103BOLB   GL2 2452   2.160  13.880   8.380
  103BOLB   C1A 2453   1.970  14.330   8.250
  103BOLB   C2A 2454   2.160  14.610   8.470
  103BOLB   C3A 2455   2.550  14.680   8.700
  103BOLB   C4A 2456   2.940  14.610   8.820
  103BOLB   C1B 2457   2.130  14.160   8.700
  103BOLB   C2B 2458   2.120  14.270   9.190
  103BOLB   C3B 2459   2.170  14.530   9.590
  103BOLB   C4B 2460   2.280  14.630  10.000
  103BOLB   NC2 2461   1.720  13.110   8.150
  103BOLB   PO2 2462   1.800  12.830   8.650
  103BOLB   GL3 2463   2.110  13.050   8.820
  103BOLB   GL4 2464   2.120  13.190   8.480
  103BOLB   C1C 2465   2.290  13.300   9.090
  103BOLB   C2C 2466   2.660  13.540   9.240
  103BOLB   C3C 2467   2.960  13.730   9.060
  103BOLB   C4C 2468   3.130  14.160   8.920
  103BOLB   C1D 2469   2.070  13.510   8.720
  103BOLB   C2D 2470   2.280  13.770   9.040
  103BOLB   C3D 2471   2.570  14.020   9.100
  103BOLB   C4D 2472   2.570  14.420   9.210
  104BOLB   NC1 2473  11.910   7.350  19.160
  104BOLB   PO1 2474  12.030   7.580  19.550
  104BOLB   GL1 2475  12.310   7.940  19.490
  104BOLB   GL2 2476  12.700   7.970  19.430
  104BOLB   C1A 2477  12.410   8.420  19.470
  104BOLB   C2A 2478  12.460   8.830  19.420
  104BOLB   C3A 2479  12.470   9.180  19.130
  104BOLB   C4A 2480  12.620   9.400  18.700
  104BOLB   C1B 2481  12.910   8.280  19.280
  104BOLB   C2B 2482  12.690   8.610  19.030
  104BOLB   C3B 2483  12.220   8.760  18.980
  104BOLB   C4B 2484  12.130   9.250  18.810
  104BOLB   NC2 2485  12.220  10.860  17.370
  104BOLB   PO2 2486  12.390  11.260  17.470
  104BOLB   GL3 2487  12.610  11.190  17.840
  104BOLB   GL4 2488  12.420  11.270  18.160
  104BOLB   C1C 2489  12.830  10.910  18.100
  104BOLB   C2C 2490  12.840  10.630  18.450
  104BOLB   C3C 2491  12.830  10.160  18.430
  104BOLB   C4C 2492  12.690   9.750  18.490
  104BOLB   C1D 2493  12.360  10.820  18.040
  104BOLB   C2D 2494  12.310  10.500  18.240
  104BOLB   C3D 2495  12.220  10.000  18.380
  104BOLB   C4D 2496  12.200   9.600  18.330
  105BOLB   NC1 2497   8.290  20.860  22.950
  105BOLB   PO1 2498   8.300  21.210  23.100
  105BOLB   GL1 2499   8.100  21.280  23.480
  105BOLB   GL2 2500   8.230  21.600  23.520
  105BOLB   C1A 2501   7.940  21.320  23.860
  105BOLB   C2A 2502   7.850  21.580  24.200
  105BOLB   C3A 2503   7.380  21.680  24.390
  105BOLB   C4A 2504   7.130  21.770  24.850
  105BOLB   C1B 2505   8.080  21.800  23.810
  105BOLB   C2B 2506   7.790  22.180  24.010
  105BOLB   C3B 2507   7.640  22.590  24.120
  105BOLB   C4B 2508   7.490  22.920  24.410
  105BOLB   NC2 2509   6.560  24.110  26.070
  105BOLB   PO2 2510   6.770  23.970  26.480
  105BOLB   GL3 2511   6.850  23.760  26.000
  105BOLB   GL4 2512   7.210  23.670  25.910
  105BOLB   C1C 2513   7.030  23.220  25.900
  105BOLB   C2C 2514   6.950  22.790  25.700
  105BOLB   C3C 2515   6.950  22.330  25.440
  105BOLB   C4C 2516   6.980  21.800  25.290
  105BOLB   C1D 2517   7.450  23.370  25.650
  105BOLB   C2D 2518   7.390  23.080  25.460
  105BOLB   C3D 2519   7.670  23.110  25.060
  105BOLB   C4D 2520   8.010  22.890  24.880
  106BOLB   NC1 2521   4.620  23.800  20.420
  106BOLB   PO1 2522   4.390  23.880  20.140
  106BOLB   GL1 2523   4.220  24.050  20.440
  106BOLB   GL2 2524   4.130  23.680  20.500
  106BOLB   C1A 2525   4.120  24.430  20.640
  106BOLB   C2A 2526   3.920  24.440  21.120
  106BOLB   C3A 2527   3.810  24.620  21.420
  106BOLB   C4A 2528   3.490  24.580  21.770
  106BOLB   C1B 2529   3.720  23.550  20.750
  106BOLB   C2B 2530   3.250  23.720  20.880
  106BOLB   C3B 2531   2.890  23.830  21.150
  106BOLB   C4B 2532   2.740  24.120  21.380
  106BOLB   NC2 2533   1.420  24.230  23.110
  106BOLB   PO2 2534   1.210  24.480  22.800
  106BOLB   GL3 2535   1.630  24.290  22.670
  106BOLB   GL4 2536   1.600  23.980  22.630
  106BOLB   C1C 2537   1.960  24.300  22.370
  106BOLB   C2C 2538   2.390  24.250  22.570
  106BOLB   C3C 2539   2.880  24.340  22.390
  106BOLB   C4C 2540   3.160  24.350  22.040
  106BOLB   C1D 2541   1.740  23.820  22.310
  106BOLB   C2D 2542   1.940  24.070  21.930
  106BOLB   C3D 2543   2.150  24.210  21.600
  106BOLB   C4D 2544   2.390  24.490  21.380
  107BOLB   NC1 2545   5.590  22.770  26.390
  107BOLB   PO1 2546   5.920  23.180  26.520
  107BOLB   GL1 2547   6.110  23.200  26.140
  107BOLB   GL2 2548   6.030  23.600  25.910
  107BOLB   C1A 2549   6.510  23.010  26.070
  107BOLB   C2A 2550   6.890  22.730  26.180
  107BOLB   C3A 2551   7.000  22.290  26.010
  107BOLB   C4A 2552   7.010  21.900  25.870
  107BOLB   C1B 2553   6.500  23.430  25.780
  107BOLB   C2B 2554   6.670  23.140  25.440
  107BOLB   C3B 2555   6.900  22.880  25.190
  107BOLB   C4B 2556   7.290  22.680  25.240
  107BOLB   NC2 2557   5.420  21.080  26.360
  107BOLB   PO2 2558   5.660  20.760  26.390
  107BOLB   GL3 2559   5.890  20.560  26.010
  107BOLB   GL4 2560   5.760  20.310  25.900
  107BOLB   C1C 2561   6.210  20.670  25.790
  107BOLB   C2C 2562   6.400  21.000  25.470
  107BOLB   C3C 2563   6.560  21.470  25.380
  107BOLB   C4C 2564   6.780  21.600  25.680
  107BOLB   C1D 2565   5.830  20.220  25.490
  107BOLB   C2D 2566   5.860  20.130  25.040
  107BOLB   C3D 2567   5.950  20.150  24.580
  107BOLB   C4D 2568   5.710  20.090  24.180
  108BOLB   NC1 2569   8.960  12.130  12.020
  108BOLB   PO1 2570   8.930  11.660  11.880
  108BOLB   GL1 2571   8.920  11.190  11.800
  108BOLB   GL2 2572   8.610  11.050  11.830
  108BOLB   C1A 2573   9.080  10.870  11.600
  108BOLB   C2A 2574   9.080  10.490  11.190
  108BOLB   C3A 2575   9.170  10.210  10.930
  108BOLB   C4A 2576   9.330   9.800  11.010
  108BOLB   C1B 2577   8.570  10.790  11.520
  108BOLB   C2B 2578   8.530  10.360  11.250
  108BOLB   C3B 2579   8.560  10.320  10.900
  108BOLB   C4B 2580   8.290  10.390  10.560
  108BOLB   NC2 2581   8.480   7.850  10.410
  108BOLB   PO2 2582   8.570   8.060  10.030
  108BOLB   GL3 2583   8.820   8.360  10.190
  108BOLB   GL4 2584   8.630   8.580  10.210
  108BOLB   C1C 2585   9.160   8.410  10.310
  108BOLB   C2C 2586   9.230   8.830  10.500
  108BOLB   C3C 2587   9.210   9.090  10.790
  108BOLB   C4C 2588   9.390   9.390  10.940
  108BOLB   C1D 2589   8.850   8.850  10.220
  108BOLB   C2D 2590   8.920   9.270  10.390
  108BOLB   C3D 2591   9.090   9.710  10.550
  108BOLB   C4D 2592   9.520   9.970  10.580
  109BOLB   NC1 2593  17.290  19.190  19.990
  109BOLB   PO1 2594  17.510  18.860  20.060
  109BOLB   GL1 2595  17.920  18.920  20.170
  109BOLB   GL2 2596  18.070  19.120  19.940
  109BOLB   C1A 2597  18.120  18.910  20.450
  109BOLB   C2A 2598  18.450  18.820  20.760
  109BOLB   C3A 2599  18.500  18.810  21.260
  109BOLB   C4A 2600  18.380  19.050  21.620
  109BOLB   C1B 2601  18.480  19.240  20.190
  109BOLB   C2B 2602  18.770  19.170  20.500
  109BOLB   C3B 2603  19.230  19.130  20.400
  109BOLB   C4B 2604  19.620  18.980  20.390
  109BOLB   NC2 2605  18.990  19.770  23.970
  109BOLB   PO2 2606  19.010  19.420  23.860
  109BOLB   GL3 2607  18.560  19.340  23.840
  109BOLB   GL4 2608  18.170  19.470  23.710
  109BOLB   C1C 2609  18.520  19.350  23.360
  109BOLB   C2C 2610  18.420  19.220  22.910
  109BOLB   C3C 2611  18.470  19.320  22.500
  109BOLB   C4C 2612  18.400  19.100  22.070
  109BOLB   C1D 2613  17.930  19.230  23.320
  109BOLB   C2D 2614  17.790  19.010  22.970
  109BOLB   C3D 2615  17.570  18.820  22.650
  109BOLB   C4D 2616  17.390  18.660  22.460
  110BOLB   NC1 2617  11.550  21.810  27.080
  110BOLB   PO1 2618  11.950  21.700  26.810
  110BOLB   GL1 2619  11.680  21.770  26.460
  110BOLB   GL2 2620  11.980  21.740  26.320
  110BOLB   C1A 2621  11.460  21.420  26.230
  110BOLB   C2A 2622  11.140  21.460  25.820
  110BOLB   C3A 2623  10.900  21.460  25.440
  110BOLB   C4A 2624  10.680  21.380  24.990
  110BOLB   C1B 2625  12.030  21.720  25.800
  110BOLB   C2B 2626  11.900  21.590  25.410
  110BOLB   C3B 2627  11.850  21.800  25.000
  110BOLB   C4B 2628  12.020  21.890  24.560
  110BOLB   NC2 2629   9.880  21.800  22.750
  110BOLB   PO2 2630   9.450  21.970  22.850
  110BOLB   GL3 2631   9.680  22.000  23.190
  110BOLB   GL4 2632   9.850  22.320  23.350
  110BOLB   C1C 2633  10.000  21.880  23.600
  110BOLB   C2C 2634   9.990  21.820  24.070
  110BOLB   C3C 2635  10.070  21.670  24.390
  110BOLB   C4C 2636  10.340  21.440  24.670
  110BOLB   C1D 2637  10.130  22.560  23.480
  110BOLB   C2D 2638  10.480  22.730  23.770
  110BOLB   C3D 2639  10.750  22.900  24.070
  110BOLB   C4D 2640  11.110  22.760  24.160
  111BOLB   NC1 2641   5.520  14.070  17.770
  111BOLB   PO1 2642   5.460  14.380  18.100
  111BOLB   GL1 2643   5.360  14.010  18.270
  111BOLB   GL2 2644   5.290  13.750  18.070
  111BOLB   C1A 2645   5.270  13.980  18.690
  111BOLB   C2A 2646   5.110  13.840  19.050
  111BOLB   C3A 2647   5.050  13.360  19.280
  111BOLB   C4A 2648   4.950  12.960  19.480
  111BOLB   C1B 2649   5.100  13.610  18.430
  111BOLB   C2B 2650   4.930  13.450  18.740
  111BOLB   C3B 2651   4.710  13.060  18.860
  111BOLB   C4B 2652   4.390  12.730  19.030
  111BOLB   NC2 2653   3.970  11.260  20.650
  111BOLB   PO2 2654   3.960  11.510  21.080
  111BOLB   GL3 2655   4.260  11.770  20.860
  111BOLB   GL4 2656   4.600  11.700  20.990
  111BOLB   C1C 2657   4.430  11.960  20.450
  111BOLB   C2C 2658   4.330  12.290  20.270
  111BOLB   C3C 2659   4.520  12.580  20.070
  111BOLB   C4C 2660   4.590  12.750  19.790
  111BOLB   C1D 2661   4.890  11.870  20.660
  111BOLB   C2D 2662   5.210  11.820  20.440
  111BOLB   C3D 2663   5.620  11.980  20.470
  111BOLB   C4D 2664   5.970  12.010  20.150
  112BOLB   NC1 2665  10.480  29.340  22.730
  112BOLB   PO1 2666  10.570  29.080  22.330
  112BOLB   GL1 2667  10.500  28.640  22.320
  112BOLB   GL2 2668  10.250  28.640  22.180
  112BOLB   C1A 2669  10.590  28.240  22.160
  112BOLB   C2A 2670  10.560  27.840  21.900
  112BOLB   C3A 2671  10.790  27.710  21.480
  112BOLB   C4A 2672  10.890  27.800  21.060
  112BOLB   C1B 2673  10.190  28.300  21.860
  112BOLB   C2B 2674  10.050  27.990  21.630
  112BOLB   C3B 2675   9.840  27.710  21.740
  112BOLB   C4B 2676   9.460  27.620  21.540
  112BOLB   NC2 2677  11.190  29.600  21.840
  112BOLB   PO2 2678  11.210  29.360  22.220
  112BOLB   GL3 2679  11.140  29.040  21.830
  112BOLB   GL4 2680  10.780  28.900  21.860
  112BOLB   C1C 2681  11.420  28.620  21.630
  112BOLB   C2C 2682  11.340  28.560  21.300
  112BOLB   C3C 2683  11.060  28.500  20.920
  112BOLB   C4C 2684  10.850  28.150  20.800
  112BOLB   C1D 2685  10.570  28.570  21.760
  112BOLB   C2D 2686  10.490  28.130  21.460
  112BOLB   C3D 2687  10.330  27.740  21.330
  112BOLB   C4D 2688  10.120  27.280  21.390
  113BOLB   NC1 2689   7.460  12.120  10.970
  113BOLB   PO1 2690   7.310  12.450  10.810
  113BOLB   GL1 2691   7.240  12.160  10.480
  113BOLB   GL2 2692   7.550  12.050  10.480
  113BOLB   C1A 2693   6.890  11.860  10.260
  113BOLB   C2A 2694   6.690  11.480   9.990
  113BOLB   C3A 2695   6.440  11.590   9.600
  113BOLB   C4A 2696   6.420  11.510   9.160
  113BOLB   C1B 2697   7.430  11.740  10.230
  113BOLB   C2B 2698   7.230  11.500   9.890
  113BOLB   C3B 2699   6.940  11.580   9.530
  113BOLB   C4B 2700   6.830  11.670   9.010
  113BOLB   NC2 2701   4.450  10.210   7.910
  113BOLB   PO2 2702   4.950  10.130   8.070
  113BOLB   GL3 2703   5.030  10.360   8.440
  113BOLB   GL4 2704   4.930  10.600   8.640
  113BOLB   C1C 2705   5.380  10.460   8.660
  113BOLB   C2C 2706   5.530  10.840   8.780
  113BOLB   C3C 2707   5.810  11.080   8.880
  113BOLB   C4C 2708   5.970  11.520   9.050
  113BOLB   C1D 2709   5.020  11.030   8.850
  113BOLB   C2D 2710   5.000  11.140   9.260
  113BOLB   C3D 2711   4.900  11.440   9.560
  113BOLB   C4D 2712   4.990  11.680   9.910
  114BOLB   NC1 2713  13.340   9.130   7.080
  114BOLB   PO1 2714  12.900   9.150   7.120
  114BOLB   GL1 2715  12.790   9.340   7.450
  114BOLB   GL2 2716  12.510   9.280   7.640
  114BOLB   C1A 2717  12.900   9.840   7.570
  114BOLB   C2A 2718  12.630  10.180   7.480
  114BOLB   C3A 2719  12.430  10.480   7.780
  114BOLB   C4A 2720  12.270  10.660   8.130
  114BOLB   C1B 2721  12.760   9.440   7.990
  114BOLB   C2B 2722  12.650   9.670   8.340
  114BOLB   C3B 2723  12.820   9.830   8.650
  114BOLB   C4B 2724  12.980  10.200   8.760
  114BOLB   NC2 2725  11.720  12.180   9.230
  114BOLB   PO2 2726  11.760  12.320   9.650
  114BOLB   GL3 2727  11.730  11.800   9.570
  114BOLB   GL4 2728  11.590  11.570   9.680
  114BOLB   C1C 2729  11.710  11.530   9.210
  114BOLB   C2C 2730  11.890  11.210   9.020
  114BOLB   C3C 2731  11.760  11.010   8.590
  114BOLB   C4C 2732  11.870  10.820   8.270
  114BOLB   C1D 2733  11.350  11.340   9.470
  114BOLB   C2D 2734  11.410  10.870   9.460
  114BOLB   C3D 2735  11.550  10.610   9.490
  114BOLB   C4D 2736  11.620  10.210   9.610
  115BOLB   NC1 2737   8.870  19.530  22.830
  115BOLB   PO1 2738   9.270  19.230  22.810
  115BOLB   GL1 2739   9.320  18.870  23.040
  115BOLB   GL2 2740   9.490  18.650  23.050
  115BOLB   C1A 2741   9.060  18.600  23.390
  115BOLB   C2A 2742   8.780  18.470  23.700
  115BOLB   C3A 2743   8.490  18.570  24.010
  115BOLB   C4A 2744   8.560  18.710  24.410
  115BOLB   C1B 2745   9.580  18.920  23.510
  115BOLB   C2B 2746   9.440  19.210  23.830
  115BOLB   C3B 2747   9.630  19.330  24.250
  115BOLB   C4B 2748   9.660  19.510  24.690
  115BOLB   NC2 2749   8.980  18.420  27.170
  115BOLB   PO2 2750   8.710  18.730  26.960
  115BOLB   GL3 2751   8.740  18.600  26.470
  115BOLB   GL4 2752   8.940  18.310  26.380
  115BOLB   C1C 2753   8.800  18.610  26.060
  115BOLB   C2C 2754   8.630  18.730  25.650
  115BOLB   C3C 2755   8.670  18.620  25.180
  115BOLB   C4C 2756   8.770  18.550  24.810
  115BOLB   C1D 2757   8.910  18.160  25.960
  115BOLB   C2D 2758   8.640  18.210  25.620
  115BOLB   C3D 2759   8.440  18.020  25.270
  115BOLB   C4D 2760   8.290  17.560  25.100
  116BOLB   NC1 2761   4.250  26.220  15.650
  116BOLB   PO1 2762   4.460  26.020  16.060
  116BOLB   GL1 2763   4.170  26.540  16.000
  116BOLB   GL2 2764   4.310  26.870  15.970
  116BOLB   C1A 2765   3.800  26.770  15.940
  116BOLB   C2A 2766   3.600  27.110  16.020
  116BOLB   C3A 2767   3.410  27.520  16.210
  116BOLB   C4A 2768   3.400  27.850  16.190
  116BOLB   C1B 2769   4.260  27.160  15.710
  116BOLB   C2B 2770   3.920  27.210  15.500
  116BOLB   C3B 2771   3.650  27.080  15.270
  116BOLB   C4B 2772   3.230  27.190  15.210
  116BOLB   NC2 2773   2.040  30.160  16.440
  116BOLB   PO2 2774   2.420  30.180  16.170
  116BOLB   GL3 2775   2.560  29.760  16.210
  116BOLB   GL4 2776   2.840  29.810  16.380
  116BOLB   C1C 2777   2.660  29.320  16.260
  116BOLB   C2C 2778   2.670  28.880  16.150
  116BOLB   C3C 2779   2.850  28.480  16.190
  116BOLB   C4C 2780   3.130  28.190  16.230
  116BOLB   C1D 2781   3.130  29.520  16.530
  116BOLB   C2D 2782   3.430  29.270  16.570
  116BOLB   C3D 2783   3.590  28.850  16.750
  116BOLB   C4D 2784   3.720  28.610  17.050
  117BOLB   NC1 2785  18.240  14.440  11.590
  117BOLB   PO1 2786  17.800  14.380  11.460
  117BOLB   GL1 2787  17.870  13.960  11.230
  117BOLB   GL2 2788  17.730  13.690  11.430
  117BOLB   C1A 2789  17.980  13.600  10.950
  117BOLB   C2A 2790  18.110  13.240  10.690
  117BOLB   C3A 2791  18.330  12.830  10.470
  117BOLB   C4A 2792  18.180  12.410  10.690
  117BOLB   C1B 2793  18.130  13.490  11.380
  117BOLB   C2B 2794  18.390  13.400  11.120
  117BOLB   C3B 2795  18.760  13.120  10.780
  117BOLB   C4B 2796  19.110  12.680  10.740
  117BOLB   NC2 2797  18.860  10.430   9.440
  117BOLB   PO2 2798  18.430  10.210   9.770
  117BOLB   GL3 2799  18.290  10.600   9.630
  117BOLB   GL4 2800  18.120  10.420   9.420
  117BOLB   C1C 2801  18.220  10.940   9.870
  117BOLB   C2C 2802  18.250  11.190  10.160
  117BOLB   C3C 2803  18.040  11.640  10.340
  117BOLB   C4C 2804  17.970  12.060  10.510
  117BOLB   C1D 2805  17.810  10.720   9.640
  117BOLB   C2D 2806  17.470  10.690   9.930
  117BOLB   C3D 2807  17.220  11.120  10.030
  117BOLB   C4D 2808  16.940  11.380   9.920
  118BOLB   NC1 2809  12.340  10.720  13.780
  118BOLB   PO1 2810  12.540  10.450  14.090
  118BOLB   GL1 2811  12.320  10.050  13.940
  118BOLB   GL2 2812  12.600   9.990  13.850
  118BOLB   C1A 2813  12.270   9.570  13.990
  118BOLB   C2A 2814  12.420   9.150  13.890
  118BOLB   C3A 2815  12.130   8.910  13.560
  118BOLB   C4A 2816  12.120   8.710  13.180
  118BOLB   C1B 2817  12.740   9.670  13.470
  118BOLB   C2B 2818  13.020   9.290  13.260
  118BOLB   C3B 2819  13.380   9.050  13.070
  118BOLB   C4B 2820  13.660   8.860  12.780
  118BOLB   NC2 2821  11.970   6.230  12.690
  118BOLB   PO2 2822  11.750   6.570  12.890
  118BOLB   GL3 2823  11.550   6.910  12.890
  118BOLB   GL4 2824  11.840   7.000  13.110
  118BOLB   C1C 2825  11.520   7.340  12.690
  118BOLB   C2C 2826  11.530   7.700  12.840
  118BOLB   C3C 2827  11.860   8.140  12.860
  118BOLB   C4C 2828  12.050   8.430  12.950
  118BOLB   C1D 2829  11.840   7.440  13.100
  118BOLB   C2D 2830  11.910   7.860  13.250
  118BOLB   C3D 2831  12.070   8.200  13.470
  118BOLB   C4D 2832  11.820   8.530  13.760
  119BOLB   NC1 2833  16.100  13.210  13.160
  119BOLB   PO1 2834  16.480  12.840  13.160
  119BOLB   GL1 2835  16.870  12.620  13.200
  119BOLB   GL2 2836  16.960  12.390  13.340
  119BOLB   C1A 2837  17.250  12.380  12.970
  119BOLB   C2A 2838  17.480  12.140  12.850
  119BOLB   C3A 2839  17.700  11.710  12.900
  119BOLB   C4A 2840  17.530  11.170  12.790
  119BOLB   C1B 2841  17.240  12.090  13.430
  119BOLB   C2B 2842  17.560  11.760  13.420
  119BOLB   C3B 2843  17.400  11.390  13.640
  119BOLB   C4B 2844  17.260  11.380  13.950
  119BOLB   NC2 2845  19.520  10.370  12.060
  119BOLB   PO2 2846  19.420   9.940  12.330
  119BOLB   GL3 2847  19.070  10.170  12.430
  119BOLB   GL4 2848  19.000  10.370  12.720
  119BOLB   C1C 2849  18.600  10.270  12.420
  119BOLB   C2C 2850  18.180  10.180  12.480
  119BOLB   C3C 2851  17.920  10.470  12.520
  119BOLB   C4C 2852  17.650  10.770  12.430
  119BOLB   C1D 2853  18.820  10.660  12.740
  119BOLB   C2D 2854  18.510  10.790  12.510
  119BOLB   C3D 2855  18.160  11.020  12.550
  119BOLB   C4D 2856  18.010  11.360  12.830
  120BOLB   NC1 2857  10.670  11.790  23.720
  120BOLB   PO1 2858  11.060  11.540  23.530
  120BOLB   GL1 2859  11.160  11.920  23.370
  120BOLB   GL2 2860  11.300  11.830  23.190
  120BOLB   C1A 2861  11.310  12.310  23.230
  120BOLB   C2A 2862  11.470  12.680  23.120
  120BOLB   C3A 2863  11.600  13.110  22.960
  120BOLB   C4A 2864  11.410  13.480  22.920
  120BOLB   C1B 2865  11.530  11.850  22.780
  120BOLB   C2B 2866  11.680  12.050  22.470
  120BOLB   C3B 2867  11.770  12.200  22.180
  120BOLB   C4B 2868  11.580  12.470  22.000
  120BOLB   NC2 2869  11.220  15.160  21.530
  120BOLB   PO2 2870  11.380  15.520  21.710
  120BOLB   GL3 2871  11.350  15.200  22.060
  120BOLB   GL4 2872  11.330  14.860  21.930
  120BOLB   C1C 2873  11.260  15.010  22.460
  120BOLB   C2C 2874  11.170  14.730  22.840
  120BOLB   C3C 2875  11.210  14.340  23.090
  120BOLB   C4C 2876  11.240  13.940  22.880
  120BOLB   C1D 2877  11.270  14.420  22.010
  120BOLB   C2D 2878  11.090  14.000  22.130
  120BOLB   C3D 2879  11.220  13.650  22.400
  120BOLB   C4D 2880  11.270  13.170  22.260
  121BOLB   NC1 2881   9.770  14.610   8.320
  121BOLB   PO1 2882  10.150  14.810   8.190
  121BOLB   GL1 2883   9.940  14.580   7.830
  121BOLB   GL2 2884   9.650  14.400   7.870
  121BOLB   C1A 2885   9.950  14.670   7.460
  121BOLB   C2A 2886   9.860  14.370   7.050
  121BOLB   C3A 2887   9.570  14.260   6.710
  121BOLB   C4A 2888   9.390  13.850   6.710
  121BOLB   C1B 2889   9.920  14.120   7.570
  121BOLB   C2B 2890  10.050  13.980   7.250
  121BOLB   C3B 2891   9.960  13.910   6.930
  121BOLB   C4B 2892   9.860  13.930   6.510
  121BOLB   NC2 2893   9.090  12.480   4.880
  121BOLB   PO2 2894   8.730  12.320   5.010
  121BOLB   GL3 2895   8.720  12.350   5.390
  121BOLB   GL4 2896   8.360  12.520   5.540
  121BOLB   C1C 2897   8.720  12.590   5.860
  121BOLB   C2C 2898   8.910  12.840   6.150
  121BOLB   C3C 2899   8.900  13.170   6.460
  121BOLB   C4C 2900   9.120  13.500   6.680
  121BOLB   C1D 2901   8.050  12.630   5.920
  121BOLB   C2D 2902   7.950  13.070   6.210
  121BOLB   C3D 2903   8.230  13.500   6.350
  121BOLB   C4D 2904   8.530  13.350   6.700
  122BOLB   NC1 2905  11.260  10.790  16.480
  122BOLB   PO1 2906  10.830  10.680  16.530
  122BOLB   GL1 2907  10.830  10.340  16.810
  122BOLB   GL2 2908  10.880  10.380  17.070
  122BOLB   C1A 2909  10.780   9.930  16.800
  122BOLB   C2A 2910  10.630   9.550  16.830
  122BOLB   C3A 2911  10.750   9.140  16.920
  122BOLB   C4A 2912  10.700   8.770  17.070
  122BOLB   C1B 2913  11.110   9.920  17.210
  122BOLB   C2B 2914  11.230   9.660  17.500
  122BOLB   C3B 2915  11.350   9.210  17.650
  122BOLB   C4B 2916  11.410   8.810  17.830
  122BOLB   NC2 2917   9.130   6.740  18.030
  122BOLB   PO2 2918   9.470   6.990  18.130
  122BOLB   GL3 2919   9.750   7.270  17.880
  122BOLB   GL4 2920   9.630   7.460  17.950
  122BOLB   C1C 2921  10.080   7.640  17.760
  122BOLB   C2C 2922  10.330   7.830  17.740
  122BOLB   C3C 2923  10.610   8.120  17.700
  122BOLB   C4C 2924  10.740   8.490  17.530
  122BOLB   C1D 2925   9.620   7.800  18.010
  122BOLB   C2D 2926   9.830   8.180  18.010
  122BOLB   C3D 2927  10.160   8.370  17.790
  122BOLB   C4D 2928  10.450   8.660  17.950
  123BOLB   NC1 2929  10.460  13.840  20.190
  123BOLB   PO1 2930  10.220  14.030  20.500
  123BOLB   GL1 2931   9.990  13.680  20.780
  123BOLB   GL2 2932  10.020  13.330  20.610
  123BOLB   C1A 2933   9.770  13.650  21.260
  123BOLB   C2A 2934   9.630  13.630  21.570
  123BOLB   C3A 2935   9.440  13.510  21.970
  123BOLB   C4A 2936   9.050  13.500  22.150
  123BOLB   C1B 2937  10.380  13.170  20.810
  123BOLB   C2B 2938  10.490  13.020  21.210
  123BOLB   C3B 2939  10.830  12.930  21.550
  123BOLB   C4B 2940  10.900  12.960  21.940
  123BOLB   NC2 2941   8.300  13.470  24.860
  123BOLB   PO2 2942   8.600  13.500  24.530
  123BOLB   GL3 2943   8.450  13.630  24.240
  123BOLB   GL4 2944   8.250  13.350  24.090
  123BOLB   C1C 2945   8.770  13.660  23.830
  123BOLB   C2C 2946   8.790  13.690  23.420
  123BOLB   C3C 2947   8.820  13.790  22.940
  123BOLB   C4C 2948   8.920  13.730  22.520
  123BOLB   C1D 2949   8.160  13.690  23.720
  123BOLB   C2D 2950   8.100  14.060  23.540
  123BOLB   C3D 2951   7.860  14.430  23.440
  123BOLB   C4D 2952   7.890  14.650  23.150
  124BOLB   NC1 2953  15.570  11.480  15.260
  124BOLB   PO1 2954  15.850  11.720  14.970
  124BOLB   GL1 2955  16.180  11.660  14.700
  124BOLB   GL2 2956  16.360  11.470  14.930
  124BOLB   C1A 2957  16.490  11.360  14.480
  124BOLB   C2A 2958  16.650  10.960  14.490
  124BOLB   C3A 2959  16.570  10.580  14.490
  124BOLB   C4A 2960  16.730  10.150  14.710
  124BOLB   C1B 2961  16.240  11.170  15.300
  124BOLB   C2B 2962  16.070  10.850  15.320
  124BOLB   C3B 2963  15.970  10.390  15.330
  124BOLB   C4B 2964  15.900   9.990  15.430
  124BOLB   NC2 2965  17.230   7.850  14.120
  124BOLB   PO2 2966  17.650   7.930  14.310
  124BOLB   GL3 2967  17.400   8.300  14.290
  124BOLB   GL4 2968  17.650   8.500  14.090
  124BOLB   C1C 2969  17.370   8.720  14.470
  124BOLB   C2C 2970  17.110   8.960  14.530
  124BOLB   C3C 2971  16.770   9.340  14.650
  124BOLB   C4C 2972  16.530   9.810  14.640
  124BOLB   C1D 2973  17.660   8.880  14.040
  124BOLB   C2D 2974  17.560   9.170  14.320
  124BOLB   C3D 2975  17.360   9.390  14.660
  124BOLB   C4D 2976  17.190   9.870  14.770
  125BOLB   NC1 2977   5.810  12.500  13.660
  125BOLB   PO1 2978   5.580  12.920  13.570
  125BOLB   GL1 2979   5.300  12.490  13.660
  125BOLB   GL2 2980   5.250  12.330  13.380
  125BOLB   C1A 2981   4.890  12.270  13.790
  125BOLB   C2A 2982   4.560  12.120  13.660
  125BOLB   C3A 2983   4.270  11.860  13.490
  125BOLB   C4A 2984   4.300  11.510  13.160
  125BOLB   C1B 2985   4.940  12.080  13.310
  125BOLB   C2B 2986   4.710  11.700  13.370
  125BOLB   C3B 2987   4.410  11.440  13.650
  125BOLB   C4B 2988   4.250  11.060  13.700
  125BOLB   NC2 2989   6.460  12.670  13.080
  125BOLB   PO2 2990   6.040  12.570  13.070
  125BOLB   GL3 2991   5.770  12.170  13.010
  125BOLB   GL4 2992   5.630  12.020  13.320
  125BOLB   C1C 2993   5.650  11.810  12.660
  125BOLB   C2C 2994   5.390  11.470  12.590
  125BOLB   C3C 2995   5.130  11.250  12.990
  125BOLB   C4C 2996   4.660  11.240  13.190
  125BOLB   C1D 2997   5.300  11.680  13.390
  125BOLB   C2D 2998   5.100  11.400  13.500
  125BOLB   C3D 2999   5.000  11.100  13.720
  125BOLB   C4D 3000   4.680  10.880  14.010
  126BOLB   NC1 3001  13.850  13.710  20.220
  126BOLB   PO1 3002  13.610  13.410  20.040
  126BOLB   GL1 3003  13.730  13.240  20.480
  126BOLB   GL2 3004  14.160  13.310  20.400
  126BOLB   C1A 3005  13.990  13.110  20.850
  126BOLB   C2A 3006  14.330  12.850  20.980
  126BOLB   C3A 3007  14.810  12.800  21.080
  126BOLB   C4A 3008  15.040  12.360  20.990
  126BOLB   C1B 3009  14.380  12.960  20.500
  126BOLB   C2B 3010  14.350  12.490  20.490
  126BOLB   C3B 3011  14.500  12.300  20.810
  126BOLB   C4B 3012  14.070  12.240  21.080
  126BOLB   NC2 3013  16.630  11.550  23.150
  126BOLB   PO2 3014  16.370  11.750  22.830
  126BOLB   GL3 3015  16.100  12.110  22.540
  126BOLB   GL4 3016  16.330  12.100  22.330
  126BOLB   C1C 3017  15.840  12.100  22.250
  126BOLB   C2C 3018  15.670  11.780  21.940
  126BOLB   C3C 3019  15.510  11.890  21.530
  126BOLB   C4C 3020  15.170  12.100  21.320
  126BOLB   C1D 3021  16.240  12.250  22.000
  126BOLB   C2D 3022  15.730  12.240  21.830
  126BOLB   C3D 3023  15.410  12.480  21.550
  126BOLB   C4D 3024  15.020  12.510  21.490
  127BOLB   NC1 3025  15.290  13.250  11.140
  127BOLB   PO1 3026  15.580  13.160  10.760
  127BOLB   GL1 3027  15.590  12.740  10.510
  127BOLB   GL2 3028  15.860  12.680  10.390
  127BOLB   C1A 3029  15.560  12.260  10.340
  127BOLB   C2A 3030  15.820  12.030  10.140
  127BOLB   C3A 3031  15.920  12.250   9.700
  127BOLB   C4A 3032  16.190  12.190   9.410
  127BOLB   C1B 3033  16.100  12.470  10.100
  127BOLB   C2B 3034  16.410  12.280   9.950
  127BOLB   C3B 3035  16.850  12.210   9.900
  127BOLB   C4B 3036  17.220  12.010   9.810
  127BOLB   NC2 3037  17.630  10.580   7.900
  127BOLB   PO2 3038  17.860  10.800   8.270
  127BOLB   GL3 3039  17.660  11.190   8.450
  127BOLB   GL4 3040  17.460  10.950   8.630
  127BOLB   C1C 3041  17.300  11.380   8.560
  127BOLB   C2C 3042  16.970  11.480   8.820
  127BOLB   C3C 3043  16.640  11.660   9.050
  127BOLB   C4C 3044  16.270  11.860   9.180
  127BOLB   C1D 3045  17.030  10.940   8.620
  127BOLB   C2D 3046  16.690  10.990   8.950
  127BOLB   C3D 3047  16.400  11.160   9.160
  127BOLB   C4D 3048  16.420  11.490   9.520
  128BOLB   NC1 3049  10.940  14.680  20.680
  128BOLB   PO1 3050  10.920  14.940  21.060
  128BOLB   GL1 3051  10.860  14.670  21.430
  128BOLB   GL2 3052  10.750  14.890  21.670
  128BOLB   C1A 3053  10.900  14.260  21.580
  128BOLB   C2A 3054  10.730  14.040  21.820
  128BOLB   C3A 3055  10.440  13.820  22.130
  128BOLB   C4A 3056  10.220  13.820  22.490
  128BOLB   C1B 3057  10.820  14.620  21.920
  128BOLB   C2B 3058  10.910  14.660  22.360
  128BOLB   C3B 3059  11.190  14.350  22.540
  128BOLB   C4B 3060  11.570  14.380  22.730
  128BOLB   NC2 3061  10.500  12.270  24.400
  128BOLB   PO2 3062  10.450  11.950  24.130
  128BOLB   GL3 3063  10.620  12.370  23.960
  128BOLB   GL4 3064  10.780  12.260  23.620
  128BOLB   C1C 3065  10.780  12.760  23.770
  128BOLB   C2C 3066  10.610  13.120  23.580
  128BOLB   C3C 3067  10.570  13.370  23.230
  128BOLB   C4C 3068  10.300  13.640  22.830
  128BOLB   C1D 3069  11.180  12.470  23.640
  128BOLB   C2D 3070  11.470  12.820  23.560
  128BOLB   C3D 3071  11.430  13.230  23.380
  128BOLB   C4D 3072  11.050  13.270  23.190
  129BOLB   NC1 3073  15.420  11.470  16.130
  129BOLB   PO1 3074  15.330  11.290  15.770
  129BOLB   GL1 3075  15.390  10.970  15.590
  129BOLB   GL2 3076  15.590  11.020  15.380
  129BOLB   C1A 3077  15.740  10.650  15.640
  129BOLB   C2A 3078  16.120  10.510  15.860
  129BOLB   C3A 3079  16.520  10.380  15.900
  129BOLB   C4A 3080  17.020  10.230  15.730
  129BOLB   C1B 3081  15.720  10.660  15.060
  129BOLB   C2B 3082  15.660  10.170  14.990
  129BOLB   C3B 3083  15.580   9.820  15.010
  129BOLB   C4B 3084  15.660   9.450  14.770
  129BOLB   NC2 3085  19.280   9.690  14.390
  129BOLB   PO2 3086  19.240   9.840  14.780
  129BOLB   GL3 3087  18.920  10.040  14.880
  129BOLB   GL4 3088  18.900  10.150  15.280
  129BOLB   C1C 3089  18.540  10.260  14.840
  129BOLB   C2C 3090  18.040  10.410  14.830
  129BOLB   C3C 3091  17.670  10.380  15.040
  129BOLB   C4C 3092  17.280  10.280  15.370
  129BOLB   C1D 3093  18.710  10.490  15.230
  129BOLB   C2D 3094  18.320  10.720  15.130
  129BOLB   C3D 3095  17.900  10.860  15.100
  129BOLB   C4D 3096  17.340  10.840  15.160
  130BOLB   NC1 3097  13.070  13.160  19.860
  130BOLB   PO1 3098  12.630  13.130  19.810
  130BOLB   GL1 3099  12.690  12.810  20.010
  130BOLB   GL2 3100  13.070  12.740  20.160
  130BOLB   C1A 3101  12.610  12.330  20.170
  130BOLB   C2A 3102  12.760  11.910  20.130
  130BOLB   C3A 3103  12.730  11.510  20.240
  130BOLB   C4A 3104  12.990  11.080  20.290
  130BOLB   C1B 3105  13.450  12.490  19.950
  130BOLB   C2B 3106  13.610  12.110  20.100
  130BOLB   C3B 3107  14.020  11.910  20.230
  130BOLB   C4B 3108  14.340  11.930  20.520
  130BOLB   NC2 3109  13.380   8.620  20.710
  130BOLB   PO2 3110  13.550   9.050  20.840
  130BOLB   GL3 3111  13.420   9.320  20.700
  130BOLB   GL4 3112  13.620   9.320  20.410
  130BOLB   C1C 3113  13.080   9.670  20.750
  130BOLB   C2C 3114  12.900  10.020  20.780
  130BOLB   C3C 3115  13.010  10.310  20.410
  130BOLB   C4C 3116  13.110  10.730  20.250
  130BOLB   C1D 3117  13.380   9.690  20.280
  130BOLB   C2D 3118  13.160  10.000  20.030
  130BOLB   C3D 3119  13.100  10.430  19.880
  130BOLB   C4D 3120  13.120  10.850  19.760
  131BOLB   NC1 3121   7.340   7.260  15.330
  131BOLB   PO1 3122   7.530   7.070  15.630
  131BOLB   GL1 3123   7.740   7.510  15.540
  131BOLB   GL2 3124   7.450   7.760  15.390
  131BOLB   C1A 3125   7.970   7.850  15.300
  131BOLB   C2A 3126   8.260   8.220  15.510
  131BOLB   C3A 3127   8.720   8.270  15.480
  131BOLB   C4A 3128   9.110   8.330  15.720
  131BOLB   C1B 3129   7.700   8.140  15.590
  131BOLB   C2B 3130   7.840   8.510  15.440
  131BOLB   C3B 3131   7.770   8.950  15.220
  131BOLB   C4B 3132   7.950   9.130  14.940
  131BOLB   NC2 3133   9.360   6.490  16.710
  131BOLB   PO2 3134   9.390   6.650  16.320
  131BOLB   GL3 3135   9.710   6.920  16.060
  131BOLB   GL4 3136   9.980   7.200  16.250
  131BOLB   C1C 3137   9.830   7.300  15.790
  131BOLB   C2C 3138   9.740   7.500  15.490
  131BOLB   C3C 3139   9.500   7.790  15.410
  131BOLB   C4C 3140   9.460   8.150  15.670
  131BOLB   C1D 3141  10.210   7.530  16.200
  131BOLB   C2D 3142  10.580   7.810  16.010
  131BOLB   C3D 3143  10.750   8.260  16.030
  131BOLB   C4D 3144  11.220   8.390  16.090
  132BOLB   NC1 3145   9.760   6.910  16.630
  132BOLB   PO1 3146  10.210   6.840  16.470
  132BOLB   GL1 3147  10.510   7.130  16.260
  132BOLB   GL2 3148  10.660   7.040  16.070
  132BOLB   C1A 3149  10.960   7.390  16.140
  132BOLB   C2A 3150  11.330   7.590  15.820
  132BOLB   C3A 3151  11.290   7.900  15.560
  132BOLB   C4A 3152  11.210   8.310  15.580
  132BOLB   C1B 3153  10.400   7.300  15.820
  132BOLB   C2B 3154  10.240   7.630  15.660
  132BOLB   C3B 3155   9.940   7.950  15.540
  132BOLB   C4B 3156   9.850   8.280  15.270
  132BOLB   NC2 3157  11.520  11.230  16.230
  132BOLB   PO2 3158  11.420  10.820  16.040
  132BOLB   GL3 3159  11.330  10.450  16.050
  132BOLB   GL4 3160  11.140  10.300  16.260
  132BOLB   C1C 3161  11.300   9.890  15.880
  132BOLB   C2C 3162  11.250   9.470  15.830
  132BOLB   C3C 3163  10.860   9.130  15.740
  132BOLB   C4C 3164  10.850   8.650  15.700
  132BOLB   C1D 3165  10.990   9.990  16.350
  132BOLB   C2D 3166  11.140   9.610  16.320
  132BOLB   C3D 3167  11.220   9.140  16.140
  132BOLB   C4D 3168  11.290   8.830  15.810
  133BOLB   NC1 3169   9.760  14.210  21.020
  133BOLB   PO1 3170  10.080  14.360  21.070
  133BOLB   GL1 3171  10.060  14.200  21.450
  133BOLB   GL2 3172   9.890  14.390  21.560
  133BOLB   C1A 3173  10.210  14.060  21.760
  133BOLB   C2A 3174  10.180  13.600  21.760
  133BOLB   C3A 3175   9.940  13.250  21.640
  133BOLB   C4A 3176   9.820  13.150  21.990
  133BOLB   C1B 3177   9.640  14.540  21.890
  133BOLB   C2B 3178   9.520  14.440  22.210
  133BOLB   C3B 3179   9.510  14.310  22.680
  133BOLB   C4B 3180   9.730  14.360  22.980
  133BOLB   NC2 3181   8.420  11.620  24.200
  133BOLB   PO2 3182   8.720  11.880  23.800
  133BOLB   GL3 3183   8.800  12.340  23.610
  133BOLB   GL4 3184   8.490  12.250  23.370
  133BOLB   C1C 3185   8.970  12.420  23.210
  133BOLB   C2C 3186   9.320  12.480  22.860
  133BOLB   C3C 3187   9.480  12.730  22.630
  133BOLB   C4C 3188   9.820  12.960  22.510
  133BOLB   C1D 3189   8.430  12.250  22.990
  133BOLB   C2D 3190   8.330  12.640  22.630
  133BOLB   C3D 3191   8.500  13.060  22.640
  133BOLB   C4D 3192   8.870  13.250  22.580
  134BOLB   NC1 3193   9.020   6.760  14.060
  134BOLB   PO1 3194   9.390   6.810  13.810
  134BOLB   GL1 3195   9.290   7.170  13.870
  134BOLB   GL2 3196   9.360   7.470  13.610
  134BOLB   C1A 3197   9.490   7.450  14.070
  134BOLB   C2A 3198   9.620   7.930  14.060
  134BOLB   C3A 3199   9.540   8.290  14.210
  134BOLB   C4A 3200   9.380   8.590  14.520
  134BOLB   C1B 3201   9.080   7.650  13.840
  134BOLB   C2B 3202   8.570   7.790  13.930
  134BOLB   C3B 3203   8.280   7.920  14.130
  134BOLB   C4B 3204   7.860   8.040  14.400
  134BOLB   NC2 3205   9.090  11.020  14.840
  134BOLB   PO2 3206   8.830  10.680  14.600
  134BOLB   GL3 3207   8.710  10.340  14.830
  134BOLB   GL4 3208   8.820  10.270  15.120
  134BOLB   C1C 3209   8.670   9.880  14.830
  134BOLB   C2C 3210   8.710   9.430  14.850
  134BOLB   C3C 3211   8.840   9.070  14.800
  134BOLB   C4C 3212   9.150   8.840  14.810
  134BOLB   C1D 3213   8.980   9.930  15.250
  134BOLB   C2D 3214   8.990   9.490  15.310
  134BOLB   C3D 3215   9.130   9.210  15.650
  134BOLB   C4D 3216   9.100   8.880  15.850
  135BOLB   NC1 3217  16.540  16.880   8.290
  135BOLB   PO1 3218  16.550  17.370   8.330
  135BOLB   GL1 3219  16.840  17.490   8.130
  135BOLB   GL2 3220  17.050  17.180   8.040
  135BOLB   C1A 3221  16.900  17.680   7.700
  135BOLB   C2A 3222  16.930  17.900   7.400
  135BOLB   C3A 3223  16.930  18.180   7.100
  135BOLB   C4A 3224  16.900  18.240   6.670
  135BOLB   C1B 3225  17.280  17.410   7.920
  135BOLB   C2B 3226  17.480  17.750   7.660
  135BOLB   C3B 3227  17.400  17.680   7.230
  135BOLB   C4B 3228  17.200  17.860   6.810
  135BOLB   NC2 3229  17.310  19.040   4.250
  135BOLB   PO2 3230  17.640  18.730   4.270
  135BOLB   GL3 3231  17.420  18.760   4.700
  135BOLB   GL4 3232  17.250  19.080   4.800
  135BOLB   C1C 3233  17.330  18.770   5.140
  135BOLB   C2C 3234  17.130  18.820   5.570
  135BOLB   C3C 3235  17.040  18.720   5.930
  135BOLB   C4C 3236  16.850  18.550   6.340
  135BOLB   C1D 3237  17.220  19.340   5.240
  135BOLB   C2D 3238  17.000  19.400   5.600
  135BOLB   C3D 3239  16.740  19.620   5.870
  135BOLB   C4D 3240  16.370  19.770   5.980
  136BOLB   NC1 3241   9.660  17.910   7.170
  136BOLB   PO1 3242   9.740  18.260   6.990
  136BOLB   GL1 3243   9.870  18.360   6.580
  136BOLB   GL2 3244   9.570  18.110   6.510
  136BOLB   C1A 3245   9.730  18.480   6.230
  136BOLB   C2A 3246   9.690  18.570   5.780
  136BOLB   C3A 3247   9.610  18.510   5.410
  136BOLB   C4A 3248   9.580  18.440   4.970
  136BOLB   C1B 3249   9.370  18.150   5.980
  136BOLB   C2B 3250   9.450  18.030   5.550
  136BOLB   C3B 3251   9.350  17.890   5.030
  136BOLB   C4B 3252   9.030  17.860   4.860
  136BOLB   NC2 3253   9.910  17.810   2.840
  136BOLB   PO2 3254   9.790  18.110   2.540
  136BOLB   GL3 3255   9.780  18.320   2.850
  136BOLB   GL4 3256   9.520  18.360   3.070
  136BOLB   C1C 3257   9.990  18.400   3.290
  136BOLB   C2C 3258   9.940  18.470   3.690
  136BOLB   C3C 3259   9.950  18.390   4.100
  136BOLB   C4C 3260   9.690  18.570   4.450
  136BOLB   C1D 3261   9.440  18.360   3.490
  136BOLB   C2D 3262   9.500  18.140   3.830
  136BOLB   C3D 3263   9.480  18.070   4.170
  136BOLB   C4D 3264   9.280  18.230   4.550
  137BOLB   NC1 3265  13.670  12.090  18.580
  137BOLB   PO1 3266  13.340  12.370  18.760
  137BOLB   GL1 3267  13.270  12.140  19.190
  137BOLB   GL2 3268  13.330  12.400  19.310
  137BOLB   C1A 3269  13.030  11.930  19.480
  137BOLB   C2A 3270  12.830  11.630  19.720
  137BOLB   C3A 3271  12.750  11.210  19.860
  137BOLB   C4A 3272  12.580  10.900  20.110
  137BOLB   C1B 3273  13.410  12.120  19.640
  137BOLB   C2B 3274  13.270  11.770  19.920
  137BOLB   C3B 3275  13.310  11.370  20.040
  137BOLB   C4B 3276  13.450  11.200  20.310
  137BOLB   NC2 3277  12.720   9.580  22.130
  137BOLB   PO2 3278  12.430   9.980  22.230
  137BOLB   GL3 3279  12.320  10.300  21.960
  137BOLB   GL4 3280  12.050  10.230  21.640
  137BOLB   C1C 3281  12.430  10.590  21.640
  137BOLB   C2C 3282  12.540  10.470  21.190
  137BOLB   C3C 3283  12.630  10.500  20.780
  137BOLB   C4C 3284  12.520  10.630  20.390
  137BOLB   C1D 3285  12.070  10.360  21.180
  137BOLB   C2D 3286  12.090  10.670  20.990
  137BOLB   C3D 3287  11.950  10.990  20.670
  137BOLB   C4D 3288  11.790  11.080  20.260
  138BOLB   NC1 3289  13.210  11.180  14.760
  138BOLB   PO1 3290  13.000  10.840  14.450
  138BOLB   GL1 3291  12.920  10.420  14.570
  138BOLB   GL2 3292  12.920  10.170  14.260
  138BOLB   C1A 3293  12.850   9.910  14.660
  138BOLB   C2A 3294  13.020   9.600  14.870
  138BOLB   C3A 3295  13.320   9.200  14.800
  138BOLB   C4A 3296  13.680   8.980  14.950
  138BOLB   C1B 3297  12.680   9.650  14.210
  138BOLB   C2B 3298  12.690   9.370  14.470
  138BOLB   C3B 3299  12.640   8.880  14.460
  138BOLB   C4B 3300  12.540   8.500  14.340
  138BOLB   NC2 3301  13.730   6.540  14.430
  138BOLB   PO2 3302  13.430   6.900  14.640
  138BOLB   GL3 3303  13.670   7.200  14.890
  138BOLB   GL4 3304  13.440   7.300  15.180
  138BOLB   C1C 3305  13.780   7.600  15.080
  138BOLB   C2C 3306  14.080   7.780  15.310
  138BOLB   C3C 3307  14.030   8.200  15.180
  138BOLB   C4C 3308  13.860   8.620  15.230
  138BOLB   C1D 3309  13.320   7.720  15.200
  138BOLB   C2D 3310  12.930   7.830  15.010
  138BOLB   C3D 3311  12.770   7.720  14.640
  138BOLB   C4D 3312  12.560   7.550  14.290
  139BOLB   NC1 3313  11.030  11.090  17.860
  139BOLB   PO1 3314  11.390  11.000  17.720
  139BOLB   GL1 3315  11.410  10.920  18.170
  139BOLB   GL2 3316  11.150  11.000  18.300
  139BOLB   C1A 3317  11.290  10.480  18.440
  139BOLB   C2A 3318  11.200  10.090  18.670
  139BOLB   C3A 3319  11.180   9.740  18.860
  139BOLB   C4A 3320  11.190   9.190  18.920
  139BOLB   C1B 3321  10.940  10.770  18.710
  139BOLB   C2B 3322  10.990  10.440  19.090
  139BOLB   C3B 3323  10.800  10.280  19.410
  139BOLB   C4B 3324  10.750  10.390  19.830
  139BOLB   NC2 3325  10.490   6.920  18.020
  139BOLB   PO2 3326  10.840   6.980  17.830
  139BOLB   GL3 3327  10.870   7.280  18.110
  139BOLB   GL4 3328  10.570   7.470  18.090
  139BOLB   C1C 3329  10.750   7.760  18.420
  139BOLB   C2C 3330  11.020   8.080  18.450
  139BOLB   C3C 3331  11.150   8.470  18.570
  139BOLB   C4C 3332  11.200   8.710  18.940
  139BOLB   C1D 3333  10.950   7.790  17.910
  139BOLB   C2D 3334  11.020   8.280  17.930
  139BOLB   C3D 3335  11.030   8.680  18.080
  139BOLB   C4D 3336  10.850   9.090  18.050
  140BOLB   NC1 3337   8.150   9.040  20.950
  140BOLB   PO1 3338   8.600   9.180  20.710
  140BOLB   GL1 3339   8.870   9.450  20.510
  140BOLB   GL2 3340   8.940   9.180  20.360
  140BOLB   C1A 3341   9.210   9.630  20.370
  140BOLB   C2A 3342   9.270   9.800  19.930
  140BOLB   C3A 3343   8.940   9.820  19.680
  140BOLB   C4A 3344   8.630   9.990  19.480
  140BOLB   C1B 3345   9.190   9.270  20.020
  140BOLB   C2B 3346   9.170   9.340  19.690
  140BOLB   C3B 3347   9.350   9.690  19.340
  140BOLB   C4B 3348   9.630   9.930  19.050
  140BOLB   NC2 3349   8.470  11.980  17.490
  140BOLB   PO2 3350   8.650  11.760  17.810
  140BOLB   GL3 3351   8.420  11.700  18.200
  140BOLB   GL4 3352   8.350  12.010  18.300
  140BOLB   C1C 3353   8.500  11.550  18.660
  140BOLB   C2C 3354   8.520  11.140  18.850
  140BOLB   C3C 3355   8.480  10.610  18.930
  140BOLB   C4C 3356   8.630  10.230  19.160
  140BOLB   C1D 3357   7.980  11.910  18.410
  140BOLB   C2D 3358   8.020  11.550  18.620
  140BOLB   C3D 3359   8.060  11.240  18.970
  140BOLB   C4D 3360   8.050  10.870  19.170
  141BOLB   NC1 3361   8.770  11.300  13.060
  141BOLB   PO1 3362   8.770  10.950  12.820
  141BOLB   GL1 3363   8.490  10.680  13.090
  141BOLB   GL2 3364   8.560  10.440  13.330
  141BOLB   C1A 3365   8.130  10.340  13.110
  141BOLB   C2A 3366   8.210   9.970  13.230
  141BOLB   C3A 3367   8.000   9.550  13.370
  141BOLB   C4A 3368   7.950   9.100  13.300
  141BOLB   C1B 3369   8.580  10.230  12.900
  141BOLB   C2B 3370   8.400   9.950  12.650
  141BOLB   C3B 3371   8.410   9.580  12.650
  141BOLB   C4B 3372   8.850   9.350  12.580
  141BOLB   NC2 3373   6.390   7.480  13.920
  141BOLB   PO2 3374   6.710   7.340  13.660
  141BOLB   GL3 3375   6.800   7.730  13.510
  141BOLB   GL4 3376   6.890   7.930  13.740
  141BOLB   C1C 3377   6.870   7.900  13.090
  141BOLB   C2C 3378   7.250   7.970  12.890
  141BOLB   C3C 3379   7.470   8.440  12.880
  141BOLB   C4C 3380   7.810   8.820  13.000
  141BOLB   C1D 3381   7.390   8.000  13.790
  141BOLB   C2D 3382   7.850   8.010  13.730
  141BOLB   C3D 3383   8.310   8.210  13.720
  141BOLB   C4D 3384   8.600   8.510  13.840
  142BOLB   NC1 3385  14.650  16.380   7.740
  142BOLB   PO1 3386  14.370  16.120   7.440
  142BOLB   GL1 3387  14.350  16.360   7.030
  142BOLB   GL2 3388  14.230  16.570   6.950
  142BOLB   C1A 3389  14.440  16.150   6.550
  142BOLB   C2A 3390  14.430  15.780   6.340
  142BOLB   C3A 3391  14.400  15.860   5.880
  142BOLB   C4A 3392  14.430  15.770   5.530
  142BOLB   C1B 3393  14.010  16.850   6.560
  142BOLB   C2B 3394  13.960  16.780   6.090
  142BOLB   C3B 3395  14.220  16.840   5.840
  142BOLB   C4B 3396  14.330  17.170   5.450
  142BOLB   NC2 3397  15.590  14.880   3.540
  142BOLB   PO2 3398  15.910  15.180   3.710
  142BOLB   GL3 3399  15.730  15.220   4.140
  142BOLB   GL4 3400  15.670  15.600   4.210
  142BOLB   C1C 3401  15.540  15.180   4.500
  142BOLB   C2C 3402  15.230  15.120   4.910
  142BOLB   C3C 3403  15.070  15.280   5.290
  142BOLB   C4C 3404  14.670  15.530   5.230
  142BOLB   C1D 3405  15.720  15.610   4.660
  142BOLB   C2D 3406  15.380  15.570   5.030
  142BOLB   C3D 3407  15.090  15.860   5.350
  142BOLB   C4D 3408  15.080  16.220   5.410
  143BOLB   NC1 3409   2.790  10.850  18.390
  143BOLB   PO1 3410   2.620  10.900  18.800
  143BOLB   GL1 3411   3.030  11.070  18.770
  143BOLB   GL2 3412   3.220  11.020  18.570
  143BOLB   C1A 3413   3.180  11.510  18.770
  143BOLB   C2A 3414   3.310  11.940  18.630
  143BOLB   C3A 3415   3.350  12.060  18.230
  143BOLB   C4A 3416   3.300  12.120  17.830
  143BOLB   C1B 3417   3.530  11.000  18.250
  143BOLB   C2B 3418   3.760  11.340  18.060
  143BOLB   C3B 3419   3.610  11.710  17.870
  143BOLB   C4B 3420   3.370  11.760  17.500
  143BOLB   NC2 3421   1.270  11.590  17.140
  143BOLB   PO2 3422   1.580  11.190  17.210
  143BOLB   GL3 3423   1.810  11.440  16.980
  143BOLB   GL4 3424   1.870  11.380  16.710
  143BOLB   C1C 3425   2.100  11.820  17.080
  143BOLB   C2C 3426   2.310  12.140  17.020
  143BOLB   C3C 3427   2.820  12.170  17.150
  143BOLB   C4C 3428   3.070  12.180  17.410
  143BOLB   C1D 3429   2.220  11.600  16.580
  143BOLB   C2D 3430   2.530  11.680  16.690
  143BOLB   C3D 3431   2.680  11.660  16.880
  143BOLB   C4D 3432   3.140  11.830  17.000
  144BOLB   NC1 3433  12.980  10.830  15.830
  144BOLB   PO1 3434  12.860  10.450  16.060
  144BOLB   GL1 3435  12.980  10.080  15.870
  144BOLB   GL2 3436  12.800  10.040  15.560
  144BOLB   C1A 3437  13.110   9.610  15.750
  144BOLB   C2A 3438  13.120   9.250  15.580
  144BOLB   C3A 3439  13.370   8.990  15.300
  144BOLB   C4A 3440  13.390   8.630  15.050
  144BOLB   C1B 3441  13.060   9.770  15.290
  144BOLB   C2B 3442  13.520   9.470  15.180
  144BOLB   C3B 3443  13.870   9.160  15.330
  144BOLB   C4B 3444  14.150   8.920  15.560
  144BOLB   NC2 3445  12.670   6.430  15.750
  144BOLB   PO2 3446  12.570   6.510  15.320
  144BOLB   GL3 3447  12.600   6.900  15.190
  144BOLB   GL4 3448  12.290   7.070  15.220
  144BOLB   C1C 3449  12.860   7.350  15.070
  144BOLB   C2C 3450  13.150   7.410  14.740
  144BOLB   C3C 3451  13.320   7.890  14.700
  144BOLB   C4C 3452  13.500   8.170  15.020
  144BOLB   C1D 3453  12.400   7.440  15.400
  144BOLB   C2D 3454  12.460   7.820  15.230
  144BOLB   C3D 3455  12.520   8.180  15.030
  144BOLB   C4D 3456  12.550   8.620  14.890
  145BOLB   NC1 3457  15.000  11.530  15.500
  145BOLB   PO1 3458  15.010  11.150  15.240
  145BOLB   GL1 3459  15.040  10.730  15.340
  145BOLB   GL2 3460  14.770  10.640  15.500
  145BOLB   C1A 3461  15.370  10.300  15.390
  145BOLB   C2A 3462  15.460   9.910  15.620
  145BOLB   C3A 3463  15.380   9.570  15.830
  145BOLB   C4A 3464  15.230   9.170  15.960
  145BOLB   C1B 3465  14.500  10.230  15.560
  145BOLB   C2B 3466  14.460   9.810  15.480
  145BOLB   C3B 3467  14.340   9.420  15.440
  145BOLB   C4B 3468  14.610   9.070  15.650
  145BOLB   NC2 3469  15.330   6.750  16.310
  145BOLB   PO2 3470  15.740   7.060  16.200
  145BOLB   GL3 3471  15.460   7.400  16.110
  145BOLB   GL4 3472  15.170   7.200  15.990
  145BOLB   C1C 3473  15.430   7.810  16.350
  145BOLB   C2C 3474  15.330   8.190  16.440
  145BOLB   C3C 3475  15.050   8.440  16.300
  145BOLB   C4C 3476  15.110   8.840  16.140
  145BOLB   C1D 3477  15.060   7.630  15.960
  145BOLB   C2D 3478  15.150   8.080  15.950
  145BOLB   C3D 3479  14.940   8.480  15.850
  145BOLB   C4D 3480  15.170   8.830  15.540
  146BOLB   NC1 3481  14.250   7.060  17.630
  146BOLB   PO1 3482  14.560   7.260  17.390
  146BOLB   GL1 3483  14.400   7.460  16.980
  146BOLB   GL2 3484  14.180   7.160  16.800
  146BOLB   C1A 3485  14.450   7.760  16.540
  146BOLB   C2A 3486  14.210   8.020  16.250
  146BOLB   C3A 3487  13.880   8.260  16.290
  146BOLB   C4A 3488  13.540   8.380  16.290
  146BOLB   C1B 3489  14.010   7.210  16.480
  146BOLB   C2B 3490  13.960   7.460  16.150
  146BOLB   C3B 3491  13.820   7.900  16.010
  146BOLB   C4B 3492  13.640   8.220  15.870
  146BOLB   NC2 3493  13.010   6.480  16.610
  146BOLB   PO2 3494  12.710   6.550  16.340
  146BOLB   GL3 3495  12.730   6.900  16.100
  146BOLB   GL4 3496  12.430   6.850  15.750
  146BOLB   C1C 3497  12.920   7.240  16.050
  146BOLB   C2C 3498  12.830   7.630  15.980
  146BOLB   C3C 3499  12.880   7.950  16.280
  146BOLB   C4C 3500  13.120   8.320  16.320
  146BOLB   C1D 3501  12.270   7.170  15.780
  146BOLB   C2D 3502  12.320   7.620  15.890
  146BOLB   C3D 3503  12.500   7.980  15.750
  146BOLB   C4D 3504  12.550   8.350  15.480
  147BOLB   NC1 3505   9.930  14.450   3.520
  147BOLB   PO1 3506   9.710  14.890   3.600
  147BOLB   GL1 3507   9.960  14.830   3.910
  147BOLB   GL2 3508  10.100  15.060   4.090
  147BOLB   C1A 3509  10.040  14.670   4.430
  147BOLB   C2A 3510  10.330  14.610   4.760
  147BOLB   C3A 3511  10.230  14.450   5.130
  147BOLB   C4A 3512  10.040  14.110   5.260
  147BOLB   C1B 3513  10.050  15.200   4.520
  147BOLB   C2B 3514  10.060  15.040   4.990
  147BOLB   C3B 3515   9.970  14.830   5.370
  147BOLB   C4B 3516   9.960  14.440   5.640
  147BOLB   NC2 3517   9.280  12.100   4.010
  147BOLB   PO2 3518   9.240  12.440   4.350
  147BOLB   GL3 3519   9.500  12.660   4.730
  147BOLB   GL4 3520   9.680  12.470   4.940
  147BOLB   C1C 3521   9.660  13.020   4.920
  147BOLB   C2C 3522   9.820  13.200   5.300
  147BOLB   C3C 3523   9.810  13.480   5.550
  147BOLB   C4C 3524   9.830  13.950   5.520
  147BOLB   C1D 3525   9.640  12.660   5.280
  147BOLB   C2D 3526   9.790  12.890   5.750
  147BOLB   C3D 3527   9.840  13.050   6.180
  147BOLB   C4D 3528   9.790  12.860   6.540
  148BOLB   NC1 3529  10.560  15.080   7.910
  148BOLB   PO1 3530  10.890  14.990   7.800
  148BOLB   GL1 3531  10.750  14.760   7.430
  148BOLB   GL2 3532  10.360  14.850   7.420
  148BOLB   C1A 3533  10.610  14.350   7.340
  148BOLB   C2A 3534  10.460  14.100   6.990
  148BOLB   C3A 3535  10.450  13.660   6.780
  148BOLB   C4A 3536  10.350  13.390   6.320
  148BOLB   C1B 3537  10.270  14.650   7.010
  148BOLB   C2B 3538  10.180  14.400   6.610
  148BOLB   C3B 3539   9.940  14.360   6.240
  148BOLB   C4B 3540   9.560  14.320   5.830
  148BOLB   NC2 3541  11.240  13.090   4.260
  148BOLB   PO2 3542  11.340  13.490   4.230
  148BOLB   GL3 3543  11.230  13.720   4.570
  148BOLB   GL4 3544  11.280  13.460   4.720
  148BOLB   C1C 3545  10.890  13.730   4.900
  148BOLB   C2C 3546  10.570  13.510   5.200
  148BOLB   C3C 3547  10.290  13.670   5.520
  148BOLB   C4C 3548  10.080  13.730   5.930
  148BOLB   C1D 3549  11.360  13.730   5.150
  148BOLB   C2D 3550  11.710  13.960   5.220
  148BOLB   C3D 3551  11.640  14.380   5.230
  148BOLB   C4D 3552  11.840  14.770   5.330
  149BOLB   NC1 3553  10.670  13.140  18.690
  149BOLB   PO1 3554  10.920  12.810  18.930
  149BOLB   GL1 3555  11.120  12.550  19.300
  149BOLB   GL2 3556  11.420  12.450  19.400
  149BOLB   C1A 3557  11.040  12.180  19.500
  149BOLB   C2A 3558  11.000  11.800  19.710
  149BOLB   C3A 3559  11.160  11.470  19.950
  149BOLB   C4A 3560  10.880  11.070  19.920
  149BOLB   C1B 3561  11.600  12.300  19.620
  149BOLB   C2B 3562  11.490  11.870  19.860
  149BOLB   C3B 3563  11.730  11.600  20.060
  149BOLB   C4B 3564  11.940  11.580  20.440
  149BOLB   NC2 3565  10.160   9.970  22.070
  149BOLB   PO2 3566  10.360   9.760  21.680
  149BOLB   GL3 3567  10.440  10.010  21.450
  149BOLB   GL4 3568  10.190  10.090  21.320
  149BOLB   C1C 3569  10.640  10.210  21.090
  149BOLB   C2C 3570  10.820  10.220  20.780
  149BOLB   C3C 3571  10.960  10.380  20.440
  149BOLB   C4C 3572  10.750  10.820  20.120
  149BOLB   C1D 3573   9.950  10.460  21.280
  149BOLB   C2D 3574   9.500  10.600  21.220
  149BOLB   C3D 3575   9.380  10.960  20.900
  149BOLB   C4D 3576   9.230  11.260  20.540
  150BOLB   NC1 3577   7.580   7.290  17.220
  150BOLB   PO1 3578   8.040   7.410  17.280
  150BOLB   GL1 3579   8.210   7.810  17.390
  150BOLB   GL2 3580   8.350   7.920  17.770
  150BOLB   C1A 3581   7.920   8.010  17.480
  150BOLB   C2A 3582   7.710   8.420  17.360
  150BOLB   C3A 3583   7.870   8.890  17.090
  150BOLB   C4A 3584   8.090   9.330  17.000
  150BOLB   C1B 3585   8.530   8.230  17.380
  150BOLB   C2B 3586   8.630   8.540  17.190
  150BOLB   C3B 3587   8.780   8.870  17.080
  150BOLB   C4B 3588   8.720   9.250  16.750
  150BOLB   NC2 3589   8.340  11.350  15.860
  150BOLB   PO2 3590   8.160  11.450  15.620
  150BOLB   GL3 3591   7.770  11.230  15.900
  150BOLB   GL4 3592   7.510  11.130  15.740
  150BOLB   C1C 3593   7.640  10.780  16.200
  150BOLB   C2C 3594   7.850  10.590  16.610
  150BOLB   C3C 3595   7.810  10.160  16.800
  150BOLB   C4C 3596   8.060   9.730  16.810
  150BOLB   C1D 3597   7.200  10.890  15.930
  150BOLB   C2D 3598   6.930  10.700  16.080
  150BOLB   C3D 3599   6.650  10.310  16.160
  150BOLB   C4D 3600   6.720   9.900  16.280
  151BOLB   NC1 3601  10.990  11.280  14.170
  151BOLB   PO1 3602  11.050  10.880  14.030
  151BOLB   GL1 3603  11.100  10.460  13.940
  151BOLB   GL2 3604  11.310  10.400  13.630
  151BOLB   C1A 3605  10.820  10.050  13.910
  151BOLB   C2A 3606  10.770   9.610  13.860
  151BOLB   C3A 3607  10.690   9.220  13.700
  151BOLB   C4A 3608  10.400   8.990  13.590
  151BOLB   C1B 3609  11.180  10.060  13.400
  151BOLB   C2B 3610  11.090   9.700  13.220
  151BOLB   C3B 3611  10.920   9.280  13.240
  151BOLB   C4B 3612  10.520   9.080  13.090
  151BOLB   NC2 3613   8.340   7.060  13.810
  151BOLB   PO2 3614   8.510   7.270  13.430
  151BOLB   GL3 3615   8.870   7.490  13.400
  151BOLB   GL4 3616   8.880   7.670  13.080
  151BOLB   C1C 3617   9.200   7.880  13.330
  151BOLB   C2C 3618   9.590   7.960  13.540
  151BOLB   C3C 3619   9.980   8.210  13.430
  151BOLB   C4C 3620  10.280   8.650  13.430
  151BOLB   C1D 3621   8.870   8.060  12.960
  151BOLB   C2D 3622   8.900   8.520  12.860
  151BOLB   C3D 3623   9.140   8.790  12.660
  151BOLB   C4D 3624   9.280   9.180  12.450
  152BOLB   NC1 3625  10.420  12.670  18.840
  152BOLB   PO1 3626  10.500  12.960  19.160
  152BOLB   GL1 3627  10.530  12.570  19.330
  152BOLB   GL2 3628  10.760  12.580  19.650
  152BOLB   C1A 3629  10.460  12.170  19.420
  152BOLB   C2A 3630  10.460  11.940  19.780
  152BOLB   C3A 3631  10.640  11.510  19.960
  152BOLB   C4A 3632  10.600  11.280  20.320
  152BOLB   C1B 3633  10.500  12.380  19.870
  152BOLB   C2B 3634  10.700  12.390  20.270
  152BOLB   C3B 3635  11.160  12.400  20.520
  152BOLB   C4B 3636  11.290  12.080  20.790
  152BOLB   NC2 3637   9.140   8.960  21.310
  152BOLB   PO2 3638   9.300   9.290  21.520
  152BOLB   GL3 3639   9.630   9.360  21.190
  152BOLB   GL4 3640   9.340   9.510  20.920
  152BOLB   C1C 3641   9.870   9.780  21.070
  152BOLB   C2C 3642  10.110  10.170  20.860
  152BOLB   C3C 3643  10.350  10.500  20.790
  152BOLB   C4C 3644  10.450  10.920  20.530
  152BOLB   C1D 3645   9.650   9.760  20.600
  152BOLB   C2D 3646   9.610  10.000  20.170
  152BOLB   C3D 3647   9.550  10.480  20.200
  152BOLB   C4D 3648   9.310  10.760  20.390
  153BOLB   NC1 3649   7.270  13.800  18.940
  153BOLB   PO1 3650   6.870  13.480  18.790
  153BOLB   GL1 3651   6.700  13.290  18.990
  153BOLB   GL2 3652   6.820  12.940  18.960
  153BOLB   C1A 3653   6.340  13.020  19.050
  153BOLB   C2A 3654   6.230  12.620  19.220
  153BOLB   C3A 3655   6.310  12.440  19.590
  153BOLB   C4A 3656   6.300  12.340  20.030
  153BOLB   C1B 3657   7.100  12.730  19.280
  153BOLB   C2B 3658   7.150  12.290  19.350
  153BOLB   C3B 3659   7.050  11.900  19.540
  153BOLB   C4B 3660   7.070  11.460  19.490
  153BOLB   NC2 3661   5.670  10.930  22.280
  153BOLB   PO2 3662   5.300  11.250  22.070
  153BOLB   GL3 3663   5.660  11.560  21.800
  153BOLB   GL4 3664   5.700  11.930  21.880
  153BOLB   C1C 3665   6.150  11.670  21.670
  153BOLB   C2C 3666   6.480  11.740  21.290
  153BOLB   C3C 3667   6.570  11.880  20.860
  153BOLB   C4C 3668   6.450  12.010  20.340
  153BOLB   C1D 3669   5.750  12.140  21.450
  153BOLB   C2D 3670   5.960  12.500  21.350
  153BOLB   C3D 3671   6.290  12.500  21.010
  153BOLB   C4D 3672   6.630  12.400  20.680
  154BOLB   NC1 3673  17.240  14.220  16.740
  154BOLB   PO1 3674  17.610  13.910  16.850
  154BOLB   GL1 3675  17.890  13.670  17.130
  154BOLB   GL2 3676  17.710  13.610  17.290
  154BOLB   C1A 3677  18.100  13.290  17.110
  154BOLB   C2A 3678  18.320  13.130  17.480
  154BOLB   C3A 3679  18.430  12.900  17.870
  154BOLB   C4A 3680  18.670  12.490  17.810
  154BOLB   C1B 3681  17.940  13.480  17.620
  154BOLB   C2B 3682  18.000  13.190  17.890
  154BOLB   C3B 3683  18.210  13.060  18.260
  154BOLB   C4B 3684  18.660  12.850  18.290
  154BOLB   NC2 3685  19.720  10.660  19.280
  154BOLB   PO2 3686  19.240  10.800  19.290
  154BOLB   GL3 3687  18.940  11.020  19.070
  154BOLB   GL4 3688  18.810  11.310  19.330
  154BOLB   C1C 3689  18.960  11.270  18.690
  154BOLB   C2C 3690  18.810  11.460  18.350
  154BOLB   C3C 3691  18.890  11.630  17.800
  154BOLB   C4C 3692  18.620  12.060  17.580
  154BOLB   C1D 3693  18.480  11.670  19.310
  154BOLB   C2D 3694  18.220  11.980  19.100
  154BOLB   C3D 3695  17.950  12.300  18.840
  154BOLB   C4D 3696  17.660  12.510  18.590
  155BOLB   NC1 3697  11.800  15.340   7.510
  155BOLB   PO1 3698  12.070  15.710   7.410
  155BOLB   GL1 3699  11.850  15.720   7.010
  155BOLB   GL2 3700  11.720  15.420   6.990
  155BOLB   C1A 3701  11.570  15.750   6.650
  155BOLB   C2A 3702  11.490  15.750   6.160
  155BOLB   C3A 3703  11.720  15.600   5.840
  155BOLB   C4A 3704  11.980  15.720   5.480
  155BOLB   C1B 3705  11.580  15.050   6.860
  155BOLB   C2B 3706  11.540  14.830   6.370
  155BOLB   C3B 3707  11.710  14.650   5.980
  155BOLB   C4B 3708  11.920  14.430   5.660
  155BOLB   NC2 3709  11.550  14.150   3.640
  155BOLB   PO2 3710  11.850  14.510   3.490
  155BOLB   GL3 3711  11.920  14.780   3.650
  155BOLB   GL4 3712  11.810  14.680   4.000
  155BOLB   C1C 3713  11.820  15.220   3.820
  155BOLB   C2C 3714  11.920  15.530   4.140
  155BOLB   C3C 3715  11.900  15.600   4.560
  155BOLB   C4C 3716  11.910  15.650   4.990
  155BOLB   C1D 3717  11.520  14.620   4.360
  155BOLB   C2D 3718  11.500  14.670   4.810
  155BOLB   C3D 3719  11.370  14.970   5.110
  155BOLB   C4D 3720  10.980  15.210   5.310
  156BOLB   NC1 3721  14.990  11.890  13.850
  156BOLB   PO1 3722  15.430  11.900  13.630
  156BOLB   GL1 3723  15.750  11.600  13.830
  156BOLB   GL2 3724  15.830  11.330  13.510
  156BOLB   C1A 3725  15.660  11.100  13.940
  156BOLB   C2A 3726  15.920  10.830  14.120
  156BOLB   C3A 3727  16.390  10.830  14.050
  156BOLB   C4A 3728  16.740  10.580  13.930
  156BOLB   C1B 3729  16.090  10.960  13.560
  156BOLB   C2B 3730  16.250  10.470  13.720
  156BOLB   C3B 3731  16.120  10.070  13.730
  156BOLB   C4B 3732  16.250   9.640  13.830
  156BOLB   NC2 3733  18.140   8.920  12.690
  156BOLB   PO2 3734  18.620   9.280  12.750
  156BOLB   GL3 3735  18.230   9.370  12.740
  156BOLB   GL4 3736  18.030   9.350  12.470
  156BOLB   C1C 3737  17.960   9.530  13.070
  156BOLB   C2C 3738  17.610   9.840  13.120
  156BOLB   C3C 3739  17.340  10.260  13.320
  156BOLB   C4C 3740  17.060  10.230  13.640
  156BOLB   C1D 3741  17.810   9.740  12.680
  156BOLB   C2D 3742  17.590  10.120  12.490
  156BOLB   C3D 3743  17.540  10.310  12.840
  156BOLB   C4D 3744  17.390  10.670  13.070
  157BOLB   NC1 3745   8.800  10.820  13.430
  157BOLB   PO1 3746   8.410  11.100  13.360
  157BOLB   GL1 3747   8.060  10.710  13.340
  157BOLB   GL2 3748   7.690  10.680  13.480
  157BOLB   C1A 3749   7.970  10.290  13.660
  157BOLB   C2A 3750   7.950   9.910  13.720
  157BOLB   C3A 3751   8.160   9.430  13.880
  157BOLB   C4A 3752   8.130   8.950  14.100
  157BOLB   C1B 3753   7.650  10.330  13.240
  157BOLB   C2B 3754   7.730  10.020  12.930
  157BOLB   C3B 3755   8.000   9.720  12.890
  157BOLB   C4B 3756   8.010   9.310  12.800
  157BOLB   NC2 3757   8.650   7.060  14.830
  157BOLB   PO2 3758   9.000   6.930  14.550
  157BOLB   GL3 3759   9.060   7.310  14.710
  157BOLB   GL4 3760   9.310   7.490  14.520
  157BOLB   C1C 3761   8.900   7.720  14.760
  157BOLB   C2C 3762   8.780   7.940  14.380
  157BOLB   C3C 3763   8.430   8.200  14.500
  157BOLB   C4C 3764   8.140   8.460  14.290
  157BOLB   C1D 3765   9.260   8.020  14.500
  157BOLB   C2D 3766   8.940   8.310  14.710
  157BOLB   C3D 3767   8.850   8.510  15.090
  157BOLB   C4D 3768   8.880   8.890  15.260
  158BOLB   NC1 3769  18.710  16.160  12.590
  158BOLB   PO1 3770  19.040  15.930  12.840
  158BOLB   GL1 3771  19.400  15.830  12.770
  158BOLB   GL2 3772  19.540  15.970  12.550
  158BOLB   C1A 3773  19.780  15.700  13.040
  158BOLB   C2A 3774  20.230  15.570  13.190
  158BOLB   C3A 3775  20.630  15.540  13.140
  158BOLB   C4A 3776  20.960  15.280  13.120
  158BOLB   C1B 3777  19.920  15.790  12.580
  158BOLB   C2B 3778  20.270  15.580  12.590
  158BOLB   C3B 3779  20.400  15.270  12.390
  158BOLB   C4B 3780  20.290  15.110  11.940
  158BOLB   NC2 3781  23.040  13.800  13.710
  158BOLB   PO2 3782  23.120  14.130  13.840
  158BOLB   GL3 3783  22.740  14.280  13.720
  158BOLB   GL4 3784  22.580  14.120  13.570
  158BOLB   C1C 3785  22.330  14.430  14.010
  158BOLB   C2C 3786  21.910  14.680  13.820
  158BOLB   C3C 3787  21.530  14.860  13.650
  158BOLB   C4C 3788  21.050  14.940  13.420
  158BOLB   C1D 3789  22.220  14.100  13.550
  158BOLB   C2D 3790  22.040  14.110  13.250
  158BOLB   C3D 3791  21.920  14.390  12.870
  158BOLB   C4D 3792  21.950  14.590  12.390
  159BOLB   NC1 3793  12.720   8.890   6.680
  159BOLB   PO1 3794  12.510   9.160   6.400
  159BOLB   GL1 3795  12.450   9.370   6.790
  159BOLB   GL2 3796  12.550   9.660   6.700
  159BOLB   C1A 3797  12.360   9.540   7.280
  159BOLB   C2A 3798  12.380   9.750   7.600
  159BOLB   C3A 3799  12.490   9.990   7.970
  159BOLB   C4A 3800  12.690  10.240   8.330
  159BOLB   C1B 3801  12.210   9.880   6.980
  159BOLB   C2B 3802  12.070  10.080   7.310
  159BOLB   C3B 3803  11.930   9.980   7.670
  159BOLB   C4B 3804  12.060   9.550   7.900
  159BOLB   NC2 3805  12.920  12.520   9.530
  159BOLB   PO2 3806  13.140  12.280   9.850
  159BOLB   GL3 3807  13.260  11.960   9.670
  159BOLB   GL4 3808  13.340  11.820   9.890
  159BOLB   C1C 3809  13.340  11.590   9.380
  159BOLB   C2C 3810  13.170  11.130   9.200
  159BOLB   C3C 3811  12.850  10.900   9.090
  159BOLB   C4C 3812  12.670  10.590   8.800
  159BOLB   C1D 3813  13.600  11.400   9.780
  159BOLB   C2D 3814  13.550  11.030   9.570
  159BOLB   C3D 3815  13.440  10.660   9.350
  159BOLB   C4D 3816  13.020  10.450   9.210
  160BOLB   NC1 3817  11.760  10.560  15.830
  160BOLB   PO1 3818  11.440  10.580  15.540
  160BOLB   GL1 3819  11.630  10.180  15.550
  160BOLB   GL2 3820  11.760  10.080  15.800
  160BOLB   C1A 3821  11.580   9.650  15.540
  160BOLB   C2A 3822  11.450   9.220  15.370
  160BOLB   C3A 3823  11.490   8.870  15.230
  160BOLB   C4A 3824  11.660   8.540  15.430
  160BOLB   C1B 3825  11.740   9.690  15.980
  160BOLB   C2B 3826  11.700   9.280  16.000
  160BOLB   C3B 3827  11.850   8.880  15.960
  160BOLB   C4B 3828  12.120   8.530  15.700
  160BOLB   NC2 3829  10.920   6.590  15.390
  160BOLB   PO2 3830  10.870   6.610  15.920
  160BOLB   GL3 3831  11.140   6.820  16.070
  160BOLB   GL4 3832  11.410   7.090  15.790
  160BOLB   C1C 3833  11.400   7.150  16.270
  160BOLB   C2C 3834  11.550   7.520  16.290
  160BOLB   C3C 3835  11.670   7.880  16.080
  160BOLB   C4C 3836  11.640   8.170  15.820
  160BOLB   C1D 3837  11.800   7.450  15.880
  160BOLB   C2D 3838  11.920   7.680  15.550
  160BOLB   C3D 3839  12.090   8.070  15.440
  160BOLB   C4D 3840  12.110   8.490  15.210
  161BOLB   NC1 3841  17.150  10.270  20.990
  161BOLB   PO1 3842  17.420  10.630  20.960
  161BOLB   GL1 3843  17.300  10.650  20.640
  161BOLB   GL2 3844  17.530  10.360  20.390
  161BOLB   C1A 3845  17.010  10.770  20.310
  161BOLB   C2A 3846  16.860  10.870  20.130
  161BOLB   C3A 3847  16.740  10.960  19.720
  161BOLB   C4A 3848  16.750  11.030  19.310
  161BOLB   C1B 3849  17.300  10.470  20.030
  161BOLB   C2B 3850  16.880  10.460  19.850
  161BOLB   C3B 3851  16.470  10.520  19.590
  161BOLB   C4B 3852  16.250  10.680  19.280
  161BOLB   NC2 3853  15.350  12.750  17.380
  161BOLB   PO2 3854  15.450  12.350  17.580
  161BOLB   GL3 3855  15.610  11.980  17.590
  161BOLB   GL4 3856  15.410  11.770  17.500
  161BOLB   C1C 3857  15.870  11.620  17.730
  161BOLB   C2C 3858  16.170  11.510  17.970
  161BOLB   C3C 3859  16.460  11.240  18.290
  161BOLB   C4C 3860  16.590  11.170  18.780
  161BOLB   C1D 3861  15.470  11.310  17.570
  161BOLB   C2D 3862  15.620  10.840  17.660
  161BOLB   C3D 3863  15.600  10.330  17.730
  161BOLB   C4D 3864  15.910  10.090  18.070
  162BOLB   NC1 3865   8.840  10.770  14.000
  162BOLB   PO1 3866   9.030  10.490  13.680
  162BOLB   GL1 3867   9.140  10.080  13.630
  162BOLB   GL2 3868   8.930   9.920  13.900
  162BOLB   C1A 3869   9.320   9.730  13.420
  162BOLB   C2A 3870   9.490   9.350  13.490
  162BOLB   C3A 3871   9.420   8.870  13.520
  162BOLB   C4A 3872   9.060   8.540  13.500
  162BOLB   C1B 3873   8.570   9.620  14.040
  162BOLB   C2B 3874   8.320   9.470  14.420
  162BOLB   C3B 3875   8.350   9.060  14.620
  162BOLB   C4B 3876   8.580   8.630  14.630
  162BOLB   NC2 3877   9.620  11.180  13.440
  162BOLB   PO2 3878   9.330  10.820  13.350
  162BOLB   GL3 3879   9.220  10.410  13.200
  162BOLB   GL4 3880   8.970  10.500  12.980
  162BOLB   C1C 3881   8.930  10.040  13.220
  162BOLB   C2C 3882   8.640   9.710  13.050
  162BOLB   C3C 3883   8.530   9.220  12.970
  162BOLB   C4C 3884   8.690   8.760  13.220
  162BOLB   C1D 3885   9.360  10.350  12.720
  162BOLB   C2D 3886   9.460   9.950  12.430
  162BOLB   C3D 3887   9.440   9.550  12.180
  162BOLB   C4D 3888   9.010   9.420  12.030
  163BOLB   NC1 3889   5.500  15.080  18.850
  163BOLB   PO1 3890   5.470  15.370  19.120
  163BOLB   GL1 3891   5.490  15.130  19.410
  163BOLB   GL2 3892   5.690  14.920  19.520
  163BOLB   C1A 3893   5.220  15.020  19.670
  163BOLB   C2A 3894   5.150  14.780  20.090
  163BOLB   C3A 3895   4.990  14.490  20.310
  163BOLB   C4A 3896   4.910  14.190  20.600
  163BOLB   C1B 3897   5.600  14.540  19.780
  163BOLB   C2B 3898   5.220  14.310  19.830
  163BOLB   C3B 3899   4.900  13.960  19.880
  163BOLB   C4B 3900   4.590  13.730  20.060
  163BOLB   NC2 3901   4.050  12.390  22.100
  163BOLB   PO2 3902   4.110  12.100  21.790
  163BOLB   GL3 3903   4.150  12.390  21.240
  163BOLB   GL4 3904   3.880  12.640  21.120
  163BOLB   C1C 3905   4.350  12.750  21.070
  163BOLB   C2C 3906   4.600  13.070  20.840
  163BOLB   C3C 3907   4.990  13.370  20.830
  163BOLB   C4C 3908   4.980  13.840  20.780
  163BOLB   C1D 3909   3.840  12.920  20.870
  163BOLB   C2D 3910   4.060  13.230  20.680
  163BOLB   C3D 3911   4.360  13.310  20.450
  163BOLB   C4D 3912   4.780  13.430  20.400
  164BOLB   NC1 3913  11.550  18.980  22.890
  164BOLB   PO1 3914  11.350  18.730  23.140
  164BOLB   GL1 3915  11.760  18.710  23.450
  164BOLB   GL2 3916  12.060  18.550  23.390
  164BOLB   C1A 3917  11.750  18.800  23.800
  164BOLB   C2A 3918  11.750  18.770  24.190
  164BOLB   C3A 3919  11.910  18.860  24.610
  164BOLB   C4A 3920  11.830  19.000  25.050
  164BOLB   C1B 3921  12.410  18.590  23.630
  164BOLB   C2B 3922  12.690  18.410  23.540
  164BOLB   C3B 3923  12.870  18.020  23.440
  164BOLB   C4B 3924  13.230  17.750  23.460
  164BOLB   NC2 3925  11.960  19.430  27.260
  164BOLB   PO2 3926  12.230  19.140  26.980
  164BOLB   GL3 3927  11.900  19.180  26.680
  164BOLB   GL4 3928  11.890  18.910  26.430
  164BOLB   C1C 3929  11.890  19.500  26.350
  164BOLB   C2C 3930  11.900  19.560  25.930
  164BOLB   C3C 3931  12.040  19.400  25.640
  164BOLB   C4C 3932  11.920  19.110  25.450
  164BOLB   C1D 3933  11.580  19.210  26.090
  164BOLB   C2D 3934  11.280  19.410  25.810
  164BOLB   C3D 3935  11.310  19.310  25.420
  164BOLB   C4D 3936  11.080  19.260  25.030
  165BOLB   NC1 3937  12.080  11.230  17.020
  165BOLB   PO1 3938  12.430  10.860  16.920
  165BOLB   GL1 3939  12.500  10.430  17.030
  165BOLB   GL2 3940  12.740  10.180  16.780
  165BOLB   C1A 3941  12.330  10.020  17.000
  165BOLB   C2A 3942  12.030   9.650  16.800
  165BOLB   C3A 3943  11.890   9.310  16.850
  165BOLB   C4A 3944  11.730   9.000  16.840
  165BOLB   C1B 3945  12.820   9.860  17.030
  165BOLB   C2B 3946  12.550   9.650  17.310
  165BOLB   C3B 3947  12.330   9.300  17.240
  165BOLB   C4B 3948  12.330   9.010  16.870
  165BOLB   NC2 3949  11.590   6.620  17.390
  165BOLB   PO2 3950  11.750   6.610  17.000
  165BOLB   GL3 3951  11.860   6.990  17.020
  165BOLB   GL4 3952  11.660   7.090  17.220
  165BOLB   C1C 3953  11.810   7.420  16.860
  165BOLB   C2C 3954  11.580   7.910  16.630
  165BOLB   C3C 3955  11.550   8.270  16.780
  165BOLB   C4C 3956  11.640   8.590  16.900
  165BOLB   C1D 3957  11.360   7.290  17.080
  165BOLB   C2D 3958  11.220   7.530  16.700
  165BOLB   C3D 3959  11.200   7.880  16.320
  165BOLB   C4D 3960  11.050   7.920  16.010
  166BOLB   NC1 3961  19.500  10.010  18.070
  166BOLB   PO1 3962  19.750  10.370  17.950
  166BOLB   GL1 3963  19.510  10.670  17.980
  166BOLB   GL2 3964  19.680  11.060  17.940
  166BOLB   C1A 3965  19.150  10.860  17.870
  166BOLB   C2A 3966  18.710  11.060  17.990
  166BOLB   C3A 3967  18.400  11.380  18.100
  166BOLB   C4A 3968  18.450  11.850  18.060
  166BOLB   C1B 3969  19.510  11.040  17.480
  166BOLB   C2B 3970  19.160  11.210  17.270
  166BOLB   C3B 3971  18.740  11.310  17.220
  166BOLB   C4B 3972  18.280  11.360  17.100
  166BOLB   NC2 3973  20.050  10.740  18.120
  166BOLB   PO2 3974  20.120  11.090  18.430
  166BOLB   GL3 3975  19.770  11.390  18.340
  166BOLB   GL4 3976  19.460  11.360  18.530
  166BOLB   C1C 3977  19.680  11.680  17.980
  166BOLB   C2C 3978  19.450  11.930  17.900
  166BOLB   C3C 3979  19.140  12.160  17.800
  166BOLB   C4C 3980  18.850  12.030  18.040
  166BOLB   C1D 3981  19.220  11.750  18.380
  166BOLB   C2D 3982  19.070  12.170  18.690
  166BOLB   C3D 3983  19.090  12.320  19.130
  166BOLB   C4D 3984  19.110  12.330  19.590
  167BOLB   NC1 3985  10.420  18.740  22.790
  167BOLB   PO1 3986  10.660  18.920  23.060
  167BOLB   GL1 3987  10.640  18.560  23.320
  167BOLB   GL2 3988  10.970  18.400  23.300
  167BOLB   C1A 3989  10.590  18.560  23.680
  167BOLB   C2A 3990  10.520  18.410  24.010
  167BOLB   C3A 3991  10.160  18.480  24.300
  167BOLB   C4A 3992  10.040  18.640  24.680
  167BOLB   C1B 3993  10.940  18.190  23.640
  167BOLB   C2B 3994  10.680  17.930  23.940
  167BOLB   C3B 3995  10.710  18.010  24.430
  167BOLB   C4B 3996  10.410  17.790  24.710
  167BOLB   NC2 3997  11.220  19.160  27.110
  167BOLB   PO2 3998  10.930  18.810  27.100
  167BOLB   GL3 3999  10.920  18.770  26.660
  167BOLB   GL4 4000  11.080  18.710  26.380
  167BOLB   C1C 4001  10.640  18.920  26.230
  167BOLB   C2C 4002  10.340  18.850  25.830
  167BOLB   C3C 4003  10.380  19.000  25.400
  167BOLB   C4C 4004  10.270  18.710  25.100
  167BOLB   C1D 4005  11.090  18.550  25.900
  167BOLB   C2D 4006  11.130  18.380  25.560
  167BOLB   C3D 4007  11.100  18.200  25.150
  167BOLB   C4D 4008  11.130  18.150  24.730
  168BOLB   NC1 4009  11.380  20.140  22.340
  168BOLB   PO1 4010  11.270  20.000  22.720
  168BOLB   GL1 4011  11.450  19.990  23.180
  168BOLB   GL2 4012  11.190  19.940  23.290
  168BOLB   C1A 4013  11.770  19.720  23.420
  168BOLB   C2A 4014  11.980  19.560  23.790
  168BOLB   C3A 4015  11.960  19.340  24.240
  168BOLB   C4A 4016  11.850  19.370  24.690
  168BOLB   C1B 4017  10.940  19.980  23.740
  168BOLB   C2B 4018  10.750  19.900  24.150
  168BOLB   C3B 4019  10.750  19.960  24.650
  168BOLB   C4B 4020  10.810  20.190  25.120
  168BOLB   NC2 4021  13.010  18.870  27.030
  168BOLB   PO2 4022  12.860  19.310  26.800
  168BOLB   GL3 4023  12.860  19.400  26.290
  168BOLB   GL4 4024  13.130  19.150  26.070
  168BOLB   C1C 4025  12.880  19.650  26.040
  168BOLB   C2C 4026  12.640  19.610  25.630
  168BOLB   C3C 4027  12.370  19.620  25.310
  168BOLB   C4C 4028  12.080  19.470  25.080
  168BOLB   C1D 4029  12.860  19.030  25.780
  168BOLB   C2D 4030  12.490  19.160  25.530
  168BOLB   C3D 4031  12.380  18.980  25.130
  168BOLB   C4D 4032  12.360  19.240  24.780
  169BOLB   NC1 4033  12.540  11.230  14.730
  169BOLB   PO1 4034  12.570  10.720  14.710
  169BOLB   GL1 4035  12.520  10.230  14.850
  169BOLB   GL2 4036  12.450  10.120  14.480
  169BOLB   C1A 4037  12.610   9.890  15.130
  169BOLB   C2A 4038  12.510   9.510  15.440
  169BOLB   C3A 4039  12.490   9.080  15.440
  169BOLB   C4A 4040  12.820   8.840  15.540
  169BOLB   C1B 4041  12.300   9.690  14.560
  169BOLB   C2B 4042  12.380   9.450  14.920
  169BOLB   C3B 4043  12.680   9.190  15.010
  169BOLB   C4B 4044  12.930   8.910  15.040
  169BOLB   NC2 4045  13.270   6.810  15.160
  169BOLB   PO2 4046  13.570   6.890  15.480
  169BOLB   GL3 4047  13.750   7.110  15.570
  169BOLB   GL4 4048  14.000   7.190  15.310
  169BOLB   C1C 4049  13.750   7.530  15.590
  169BOLB   C2C 4050  13.660   7.990  15.450
  169BOLB   C3C 4051  13.430   8.500  15.520
  169BOLB   C4C 4052  13.040   8.540  15.620
  169BOLB   C1D 4053  14.390   7.420  15.340
  169BOLB   C2D 4054  14.750   7.570  15.540
  169BOLB   C3D 4055  14.670   7.980  15.750
  169BOLB   C4D 4056  14.450   8.420  15.650
  170BOLB   NC1 4057  20.320  18.820  12.400
  170BOLB   PO1 4058  20.160  18.440  12.170
  170BOLB   GL1 4059  20.550  18.470  12.060
  170BOLB   GL2 4060  20.370  18.640  11.690
  170BOLB   C1A 4061  21.000  18.580  12.200
  170BOLB   C2A 4062  21.380  18.690  12.410
  170BOLB   C3A 4063  21.760  18.750  12.570
  170BOLB   C4A 4064  21.960  18.630  12.960
  170BOLB   C1B 4065  20.700  18.730  11.680
  170BOLB   C2B 4066  21.060  18.520  11.700
  170BOLB   C3B 4067  21.020  18.150  11.570
  170BOLB   C4B 4068  21.020  17.980  11.180
  170BOLB   NC2 4069  23.930  18.300  12.880
  170BOLB   PO2 4070  24.210  17.960  12.760
  170BOLB   GL3 4071  23.800  17.770  12.810
  170BOLB   GL4 4072  23.720  17.470  12.760
  170BOLB   C1C 4073  23.380  17.960  12.800
  170BOLB   C2C 4074  23.040  18.010  13.100
  170BOLB   C3C 4075  22.650  18.300  13.180
  170BOLB   C4C 4076  22.330  18.470  13.060
  170BOLB   C1D 4077  23.480  17.580  12.410
  170BOLB   C2D 4078  23.230  17.870  12.310
  170BOLB   C3D 4079  22.940  18.130  12.560
  170BOLB   C4D 4080  22.530  18.200  12.700
  171BOLB   NC1 4081   8.490  11.350  15.190
  171BOLB   PO1 4082   8.300  11.030  15.470
  171BOLB   GL1 4083   7.950  10.760  15.360
  171BOLB   GL2 4084   7.650  10.720  15.230
  171BOLB   C1A 4085   7.640  10.590  15.650
  171BOLB   C2A 4086   7.280  10.390  15.770
  171BOLB   C3A 4087   7.130  10.120  16.090
  171BOLB   C4A 4088   7.210   9.790  16.470
  171BOLB   C1B 4089   7.700  10.260  15.260
  171BOLB   C2B 4090   7.860   9.800  15.260
  171BOLB   C3B 4091   7.840   9.400  15.410
  171BOLB   C4B 4092   7.990   9.060  15.610
  171BOLB   NC2 4093   6.680   7.730  16.130
  171BOLB   PO2 4094   6.180   7.710  16.050
  171BOLB   GL3 4095   6.160   8.120  16.100
  171BOLB   GL4 4096   6.170   8.090  15.750
  171BOLB   C1C 4097   6.390   8.420  16.040
  171BOLB   C2C 4098   6.750   8.700  16.120
  171BOLB   C3C 4099   6.970   9.070  16.090
  171BOLB   C4C 4100   6.980   9.490  16.410
  171BOLB   C1D 4101   6.070   8.560  15.690
  171BOLB   C2D 4102   6.130   8.940  15.460
  171BOLB   C3D 4103   6.270   9.250  15.390
  171BOLB   C4D 4104   6.230   9.670  15.510
  172BOLB   NC1 4105  13.740  10.890  16.330
  172BOLB   PO1 4106  13.860  10.510  16.160
  172BOLB   GL1 4107  13.880  10.100  16.260
  172BOLB   GL2 4108  13.780  10.040  15.850
  172BOLB   C1A 4109  13.830   9.850  16.590
  172BOLB   C2A 4110  13.790   9.500  16.820
  172BOLB   C3A 4111  13.920   9.230  17.190
  172BOLB   C4A 4112  13.790   8.890  17.470
  172BOLB   C1B 4113  14.110   9.780  15.980
  172BOLB   C2B 4114  14.590   9.890  16.080
  172BOLB   C3B 4115  14.960   9.850  16.280
  172BOLB   C4B 4116  15.180   9.710  16.640
  172BOLB   NC2 4117  12.710   6.760  17.860
  172BOLB   PO2 4118  12.930   6.670  17.680
  172BOLB   GL3 4119  12.810   7.110  17.460
  172BOLB   GL4 4120  12.880   7.160  17.190
  172BOLB   C1C 4121  13.160   7.470  17.430
  172BOLB   C2C 4122  13.560   7.640  17.340
  172BOLB   C3C 4123  13.740   7.970  17.440
  172BOLB   C4C 4124  13.880   8.390  17.650
  172BOLB   C1D 4125  12.780   7.490  16.980
  172BOLB   C2D 4126  12.930   7.840  16.870
  172BOLB   C3D 4127  12.880   8.290  17.060
  172BOLB   C4D 4128  12.590   8.660  17.250
  173BOLB   NC1 4129  16.690  13.040  16.930
  173BOLB   PO1 4130  16.890  13.400  16.720
  173BOLB   GL1 4131  17.170  13.090  16.860
  173BOLB   GL2 4132  17.120  12.960  17.160
  173BOLB   C1A 4133  17.630  12.950  16.880
  173BOLB   C2A 4134  17.960  12.690  17.040
  173BOLB   C3A 4135  18.350  12.840  17.090
  173BOLB   C4A 4136  18.700  12.910  17.270
  173BOLB   C1B 4137  17.020  12.490  17.280
  173BOLB   C2B 4138  17.290  12.070  17.310
  173BOLB   C3B 4139  17.570  11.980  17.650
  173BOLB   C4B 4140  17.970  11.800  17.760
  173BOLB   NC2 4141  21.240  11.640  17.670
  173BOLB   PO2 4142  20.870  11.460  17.870
  173BOLB   GL3 4143  20.440  11.570  17.920
  173BOLB   GL4 4144  20.140  11.330  17.990
  173BOLB   C1C 4145  20.080  11.880  17.700
  173BOLB   C2C 4146  19.770  12.050  17.540
  173BOLB   C3C 4147  19.370  12.330  17.410
  173BOLB   C4C 4148  19.010  12.550  17.350
  173BOLB   C1D 4149  19.900  11.410  17.620
  173BOLB   C2D 4150  19.400  11.480  17.640
  173BOLB   C3D 4151  19.110  11.700  17.390
  173BOLB   C4D 4152  18.670  11.830  17.100
  174BOLB   NC1 4153   3.280  14.280  13.900
  174BOLB   PO1 4154   3.480  13.900  13.600
  174BOLB   GL1 4155   3.140  13.670  13.600
  174BOLB   GL2 4156   3.010  13.620  13.360
  174BOLB   C1A 4157   2.730  13.540  13.860
  174BOLB   C2A 4158   2.620  13.230  13.990
  174BOLB   C3A 4159   2.370  13.300  14.360
  174BOLB   C4A 4160   2.090  13.060  14.620
  174BOLB   C1B 4161   2.700  13.250  13.450
  174BOLB   C2B 4162   2.460  12.930  13.620
  174BOLB   C3B 4163   2.280  12.900  14.080
  174BOLB   C4B 4164   2.160  12.530  14.250
  174BOLB   NC2 4165   0.660  11.480  15.260
  174BOLB   PO2 4166   0.520  11.850  15.430
  174BOLB   GL3 4167   0.590  12.300  15.510
  174BOLB   GL4 4168   0.700  12.520  15.720
  174BOLB   C1C 4169   0.860  12.560  15.240
  174BOLB   C2C 4170   1.130  12.630  15.110
  174BOLB   C3C 4171   1.570  12.800  14.970
  174BOLB   C4C 4172   1.910  12.770  14.740
  174BOLB   C1D 4173   1.130  12.540  15.660
  174BOLB   C2D 4174   1.450  12.790  15.490
  174BOLB   C3D 4175   1.690  13.060  15.610
  174BOLB   C4D 4176   2.050  13.290  15.460
  175BOLB   NC1 4177   6.330  13.730  11.390
  175BOLB   PO1 4178   6.050  13.280  11.540
  175BOLB   GL1 4179   5.780  12.940  11.610
  175BOLB   GL2 4180   5.790  12.730  11.780
  175BOLB   C1A 4181   5.760  12.550  11.300
  175BOLB   C2A 4182   5.630  12.110  11.070
  175BOLB   C3A 4183   5.500  11.650  10.840
  175BOLB   C4A 4184   5.530  11.160  10.800
  175BOLB   C1B 4185   5.390  12.470  11.660
  175BOLB   C2B 4186   5.120  12.180  11.920
  175BOLB   C3B 4187   4.740  12.040  12.130
  175BOLB   C4B 4188   4.690  11.660  12.330
  175BOLB   NC2 4189   4.400   9.350   9.800
  175BOLB   PO2 4190   4.620   9.550   9.390
  175BOLB   GL3 4191   4.700  10.000   9.310
  175BOLB   GL4 4192   4.620  10.160   9.560
  175BOLB   C1C 4193   5.120  10.200   9.440
  175BOLB   C2C 4194   5.340  10.410   9.760
  175BOLB   C3C 4195   5.350  10.690  10.040
  175BOLB   C4C 4196   5.430  11.090  10.310
  175BOLB   C1D 4197   4.810  10.380   9.890
  175BOLB   C2D 4198   5.050  10.360  10.230
  175BOLB   C3D 4199   5.360  10.340  10.540
  175BOLB   C4D 4200   5.740  10.230  10.800
  176BOLB   NC1 4201  21.010  11.120  12.630
  176BOLB   PO1 4202  20.640  10.840  12.800
  176BOLB   GL1 4203  20.230  10.890  13.090
  176BOLB   GL2 4204  20.120  10.830  13.380
  176BOLB   C1A 4205  19.920  11.230  12.950
  176BOLB   C2A 4206  19.590  11.540  12.850
  176BOLB   C3A 4207  19.110  11.680  12.910
  176BOLB   C4A 4208  18.970  11.490  13.300
  176BOLB   C1B 4209  19.810  11.150  13.510
  176BOLB   C2B 4210  19.710  11.440  13.720
  176BOLB   C3B 4211  19.400  11.780  13.830
  176BOLB   C4B 4212  19.340  12.150  13.950
  176BOLB   NC2 4213  20.280  10.290  14.230
  176BOLB   PO2 4214  20.340  10.600  13.830
  176BOLB   GL3 4215  20.120  11.000  13.900
  176BOLB   GL4 4216  20.340  11.140  13.710
  176BOLB   C1C 4217  19.770  11.060  14.040
  176BOLB   C2C 4218  19.340  11.230  14.100
  176BOLB   C3C 4219  18.970  11.420  14.150
  176BOLB   C4C 4220  18.850  11.670  13.740
  176BOLB   C1D 4221  20.290  11.600  13.700
  176BOLB   C2D 4222  19.970  11.860  13.760
  176BOLB   C3D 4223  19.910  12.330  13.910
  176BOLB   C4D 4224  19.730  12.680  14.070
  177BOLB   NC1 4225  14.630  11.990  14.300
  177BOLB   PO1 4226  14.620  11.540  13.910
  177BOLB   GL1 4227  14.600  11.190  13.810
  177BOLB   GL2 4228  14.960  11.130  13.900
  177BOLB   C1A 4229  14.640  10.780  13.630
  177BOLB   C2A 4230  14.980  10.600  13.480
  177BOLB   C3A 4231  15.350  10.330  13.450
  177BOLB   C4A 4232  15.510  10.030  13.700
  177BOLB   C1B 4233  15.120  10.840  13.880
  177BOLB   C2B 4234  15.500  10.630  13.980
  177BOLB   C3B 4235  15.760  10.510  13.720
  177BOLB   C4B 4236  15.970  10.520  13.280
  177BOLB   NC2 4237  16.370   7.760  14.050
  177BOLB   PO2 4238  16.780   7.900  14.190
  177BOLB   GL3 4239  16.820   8.290  14.350
  177BOLB   GL4 4240  16.940   8.580  14.160
  177BOLB   C1C 4241  16.510   8.570  14.340
  177BOLB   C2C 4242  16.190   8.910  14.280
  177BOLB   C3C 4243  15.910   9.390  14.250
  177BOLB   C4C 4244  15.740   9.720  13.910
  177BOLB   C1D 4245  16.690   9.040  14.240
  177BOLB   C2D 4246  16.400   9.400  14.290
  177BOLB   C3D 4247  16.170   9.820  14.280
  177BOLB   C4D 4248  16.230  10.170  14.550
  178BOLB   NC1 4249   6.450  14.990  19.110
  178BOLB   PO1 4250   5.990  14.690  19.160
  178BOLB   GL1 4251   5.840  14.280  19.160
  178BOLB   GL2 4252   5.660  13.960  18.950
  178BOLB   C1A 4253   5.460  14.110  19.390
  178BOLB   C2A 4254   5.250  13.800  19.540
  178BOLB   C3A 4255   5.100  13.470  19.870
  178BOLB   C4A 4256   4.790  13.210  19.930
  178BOLB   C1B 4257   5.870  13.830  19.330
  178BOLB   C2B 4258   5.940  13.380  19.500
  178BOLB   C3B 4259   5.870  12.950  19.280
  178BOLB   C4B 4260   5.810  12.660  19.660
  178BOLB   NC2 4261   3.150  10.950  20.560
  178BOLB   PO2 4262   3.340  11.340  20.590
  178BOLB   GL3 4263   3.580  11.620  20.580
  178BOLB   GL4 4264   3.450  11.820  20.290
  178BOLB   C1C 4265   3.820  12.020  20.560
  178BOLB   C2C 4266   4.090  12.370  20.730
  178BOLB   C3C 4267   4.310  12.760  20.490
  178BOLB   C4C 4268   4.670  12.960  20.290
  178BOLB   C1D 4269   3.760  12.110  20.020
  178BOLB   C2D 4270   3.890  12.330  19.520
  178BOLB   C3D 4271   4.020  12.400  19.090
  178BOLB   C4D 4272   4.010  12.640  18.680
  179BOLB   NC1 4273   7.860   7.210  18.720
  179BOLB   PO1 4274   7.690   7.660  18.640
  179BOLB   GL1 4275   7.950   8.060  18.570
  179BOLB   GL2 4276   8.230   8.310  18.780
  179BOLB   C1A 4277   7.920   8.640  18.500
  179BOLB   C2A 4278   7.840   9.070  18.250
  179BOLB   C3A 4279   7.630   9.310  18.040
  179BOLB   C4A 4280   7.740   9.600  17.690
  179BOLB   C1B 4281   8.260   8.890  18.740
  179BOLB   C2B 4282   8.340   9.340  18.830
  179BOLB   C3B 4283   8.710   9.500  18.670
  179BOLB   C4B 4284   8.800   9.640  18.290
  179BOLB   NC2 4285   7.630  11.740  16.310
  179BOLB   PO2 4286   7.910  11.780  16.660
  179BOLB   GL3 4287   7.690  11.390  16.700
  179BOLB   GL4 4288   7.540  11.260  16.370
  179BOLB   C1C 4289   7.560  10.950  16.730
  179BOLB   C2C 4290   7.540  10.590  17.020
  179BOLB   C3C 4291   7.640  10.230  17.280
  179BOLB   C4C 4292   7.750   9.840  17.400
  179BOLB   C1D 4293   7.220  10.860  16.440
  179BOLB   C2D 4294   7.020  10.690  16.770
  179BOLB   C3D 4295   6.920  10.610  17.220
  179BOLB   C4D 4296   6.560  10.600  17.350
  180BOLB   NC1 4297  16.720  12.350  14.260
  180BOLB   PO1 4298  17.030  12.430  14.540
  180BOLB   GL1 4299  17.290  12.130  14.730
  180BOLB   GL2 4300  17.060  12.090  14.890
  180BOLB   C1A 4301  17.400  11.710  14.850
  180BOLB   C2A 4302  17.510  11.240  14.790
  180BOLB   C3A 4303  17.540  10.750  14.670
  180BOLB   C4A 4304  17.590  10.340  14.570
  180BOLB   C1B 4305  16.840  11.700  14.800
  180BOLB   C2B 4306  17.040  11.390  14.460
  180BOLB   C3B 4307  17.360  11.010  14.270
  180BOLB   C4B 4308  17.610  11.020  13.990
  180BOLB   NC2 4309  18.130   8.410  16.040
  180BOLB   PO2 4310  18.230   8.700  15.660
  180BOLB   GL3 4311  18.300   8.960  15.270
  180BOLB   GL4 4312  18.410   9.260  15.100
  180BOLB   C1C 4313  18.000   8.950  14.920
  180BOLB   C2C 4314  17.880   9.200  14.760
  180BOLB   C3C 4315  17.840   9.540  14.650
  180BOLB   C4C 4316  17.740   9.950  14.620
  180BOLB   C1D 4317  18.260   9.490  15.310
  180BOLB   C2D 4318  18.330   9.540  15.680
  180BOLB   C3D 4319  17.960   9.480  16.030
  180BOLB   C4D 4320  17.910   9.550  16.530
  181BOLB   NC1 4321   6.600  12.250  14.110
  181BOLB   PO1 4322   6.590  12.080  14.570
  181BOLB   GL1 4323   6.460  11.670  14.740
  181BOLB   GL2 4324   6.480  11.340  14.440
  181BOLB   C1A 4325   6.460  11.280  14.900
  181BOLB   C2A 4326   6.270  10.810  15.000
  181BOLB   C3A 4327   6.120  10.470  15.250
  181BOLB   C4A 4328   6.030  10.110  15.470
  181BOLB   C1B 4329   6.030  11.220  14.480
  181BOLB   C2B 4330   5.600  11.310  14.480
  181BOLB   C3B 4331   5.310  10.900  14.580
  181BOLB   C4B 4332   5.040  10.850  14.330
  181BOLB   NC2 4333   4.430   8.750  15.810
  181BOLB   PO2 4334   4.300   9.010  16.220
  181BOLB   GL3 4335   4.490   9.450  16.200
  181BOLB   GL4 4336   4.290   9.750  16.090
  181BOLB   C1C 4337   4.840   9.560  16.320
  181BOLB   C2C 4338   5.240   9.560  16.200
  181BOLB   C3C 4339   5.640   9.730  16.150
  181BOLB   C4C 4340   5.750   9.770  15.660
  181BOLB   C1D 4341   4.380  10.070  15.910
  181BOLB   C2D 4342   4.700  10.460  15.770
  181BOLB   C3D 4343   4.770  10.900  15.520
  181BOLB   C4D 4344   4.860  11.240  15.310
  182BOLB   NC1 4345   9.020  11.380  17.070
  182BOLB   PO1 4346   8.710  11.540  17.260
  182BOLB   GL1 4347   8.710  11.120  17.380
  182BOLB   GL2 4348   9.060  10.940  17.400
  182BOLB   C1A 4349   8.280  10.880  17.410
  182BOLB   C2A 4350   7.850  10.650  17.550
  182BOLB   C3A 4351   7.630  10.870  17.960
  182BOLB   C4A 4352   7.710  10.820  18.370
  182BOLB   C1B 4353   9.070  10.480  17.540
  182BOLB   C2B 4354   9.200  10.120  17.810
  182BOLB   C3B 4355   9.150  10.050  18.270
  182BOLB   C4B 4356   9.080   9.900  18.650
  182BOLB   NC2 4357   8.100   8.280  19.350
  182BOLB   PO2 4358   7.780   8.530  19.600
  182BOLB   GL3 4359   7.780   8.980  19.440
  182BOLB   GL4 4360   7.540   9.080  19.370
  182BOLB   C1C 4361   7.880   9.300  19.070
  182BOLB   C2C 4362   7.890   9.710  19.020
  182BOLB   C3C 4363   8.010  10.130  18.890
  182BOLB   C4C 4364   7.960  10.510  18.630
  182BOLB   C1D 4365   7.400   9.360  19.160
  182BOLB   C2D 4366   7.380   9.750  18.980
  182BOLB   C3D 4367   7.380   9.950  18.650
  182BOLB   C4D 4368   7.460  10.280  18.460
  183BOLB   NC1 4369  11.640  15.320  21.250
  183BOLB   PO1 4370  11.700  15.130  21.670
  183BOLB   GL1 4371  11.840  14.990  22.060
  183BOLB   GL2 4372  11.810  14.700  22.040
  183BOLB   C1A 4373  11.820  15.070  22.560
  183BOLB   C2A 4374  11.670  14.890  22.970
  183BOLB   C3A 4375  11.620  14.570  23.290
  183BOLB   C4A 4376  11.940  14.330  23.550
  183BOLB   C1B 4377  11.730  14.340  22.200
  183BOLB   C2B 4378  11.670  13.920  22.490
  183BOLB   C3B 4379  11.720  13.920  22.930
  183BOLB   C4B 4380  11.770  13.540  23.220
  183BOLB   NC2 4381  11.200  12.650  25.290
  183BOLB   PO2 4382  11.480  13.020  25.130
  183BOLB   GL3 4383  11.520  13.130  24.820
  183BOLB   GL4 4384  11.260  13.230  24.600
  183BOLB   C1C 4385  11.830  13.260  24.530
  183BOLB   C2C 4386  11.950  13.440  24.260
  183BOLB   C3C 4387  12.200  13.730  24.020
  183BOLB   C4C 4388  12.260  14.080  23.770
  183BOLB   C1D 4389  11.460  13.370  24.240
  183BOLB   C2D 4390  11.630  13.290  23.920
  183BOLB   C3D 4391  11.880  13.150  23.520
  183BOLB   C4D 4392  12.120  13.150  23.110
  184BOLB   NC1 4393   5.690  12.610  14.500
  184BOLB   PO1 4394   5.460  12.770  14.090
  184BOLB   GL1 4395   5.280  12.440  14.190
  184BOLB   GL2 4396   5.260  12.410  14.600
  184BOLB   C1A 4397   5.140  12.010  14.210
  184BOLB   C2A 4398   5.090  11.610  14.430
  184BOLB   C3A 4399   5.040  11.260  14.740
  184BOLB   C4A 4400   4.920  10.940  14.920
  184BOLB   C1B 4401   4.970  12.160  14.770
  184BOLB   C2B 4402   4.800  11.980  14.590
  184BOLB   C3B 4403   4.500  11.620  14.570
  184BOLB   C4B 4404   4.530  11.220  14.780
  184BOLB   NC2 4405   3.800   8.830  15.260
  184BOLB   PO2 4406   3.610   9.170  15.460
  184BOLB   GL3 4407   3.730   9.580  15.450
  184BOLB   GL4 4408   3.820   9.660  15.160
  184BOLB   C1C 4409   4.120   9.770  15.500
  184BOLB   C2C 4410   4.470  10.000  15.360
  184BOLB   C3C 4411   4.570  10.280  15.140
  184BOLB   C4C 4412   4.530  10.710  15.050
  184BOLB   C1D 4413   4.050  10.090  15.130
  184BOLB   C2D 4414   4.120  10.440  15.320
  184BOLB   C3D 4415   4.140  10.770  15.480
  184BOLB   C4D 4416   4.410  10.900  15.880
  185BOLB   NC1 4417  16.060   8.070  12.360
  185BOLB   PO1 4418  16.360   8.210  12.000
  185BOLB   GL1 4419  16.160   8.610  12.050
  185BOLB   GL2 4420  15.910   8.730  11.750
  185BOLB   C1A 4421  16.280   9.010  12.070
  185BOLB   C2A 4422  16.140   9.470  12.010
  185BOLB   C3A 4423  16.140   9.760  11.930
  185BOLB   C4A 4424  16.060  10.130  11.610
  185BOLB   C1B 4425  15.730   9.050  11.970
  185BOLB   C2B 4426  15.670   9.450  12.090
  185BOLB   C3B 4427  15.720   9.840  12.150
  185BOLB   C4B 4428  15.940  10.210  12.290
  185BOLB   NC2 4429  17.390   8.810  10.760
  185BOLB   PO2 4430  17.440   9.200  10.630
  185BOLB   GL3 4431  17.570   9.650  10.770
  185BOLB   GL4 4432  17.870   9.610  11.010
  185BOLB   C1C 4433  17.480  10.130  10.860
  185BOLB   C2C 4434  17.310  10.450  11.120
  185BOLB   C3C 4435  16.870  10.530  11.230
  185BOLB   C4C 4436  16.410  10.460  11.450
  185BOLB   C1D 4437  17.560   9.890  11.290
  185BOLB   C2D 4438  17.190  10.030  11.480
  185BOLB   C3D 4439  16.920  10.170  11.830
  185BOLB   C4D 4440  16.760  10.540  12.090
  186BOLB   NC1 4441  11.370  13.160   9.120
  186BOLB   PO1 4442  11.170  12.740   8.920
  186BOLB   GL1 4443  11.250  12.530   8.460
  186BOLB   GL2 4444  10.990  12.260   8.490
  186BOLB   C1A 4445  11.350  12.180   8.110
  186BOLB   C2A 4446  11.210  11.730   7.900
  186BOLB   C3A 4447  11.110  11.380   8.110
  186BOLB   C4A 4448  11.280  11.040   8.400
  186BOLB   C1B 4449  10.920  12.500   8.060
  186BOLB   C2B 4450  11.090  12.700   7.780
  186BOLB   C3B 4451  11.220  12.960   7.590
  186BOLB   C4B 4452  11.640  13.130   7.490
  186BOLB   NC2 4453  11.610   8.720   7.660
  186BOLB   PO2 4454  11.890   8.890   7.270
  186BOLB   GL3 4455  11.970   9.320   7.420
  186BOLB   GL4 4456  11.850   9.590   7.250
  186BOLB   C1C 4457  11.580   9.580   7.710
  186BOLB   C2C 4458  11.570   9.900   8.130
  186BOLB   C3C 4459  11.450  10.300   8.340
  186BOLB   C4C 4460  11.310  10.680   8.470
  186BOLB   C1D 4461  11.430   9.890   7.250
  186BOLB   C2D 4462  11.160  10.090   7.460
  186BOLB   C3D 4463  10.850  10.400   7.550
  186BOLB   C4D 4464  10.410  10.680   7.580
  187BOLB   NC1 4465   9.540  10.390  13.610
  187BOLB   PO1 4466   9.840  10.440  13.930
  187BOLB   GL1 4467   9.840  10.000  13.930
  187BOLB   GL2 4468   9.510   9.950  13.880
  187BOLB   C1A 4469   9.740   9.740  14.230
  187BOLB   C2A 4470   9.610   9.330  14.270
  187BOLB   C3A 4471   9.310   9.140  14.280
  187BOLB   C4A 4472   9.390   8.730  14.050
  187BOLB   C1B 4473   9.230   9.540  13.960
  187BOLB   C2B 4474   9.020   9.100  13.830
  187BOLB   C3B 4475   8.660   9.080  13.770
  187BOLB   C4B 4476   8.410   9.250  13.450
  187BOLB   NC2 4477   8.710   6.730  13.180
  187BOLB   PO2 4478   9.100   6.750  12.850
  187BOLB   GL3 4479   9.390   7.200  12.810
  187BOLB   GL4 4480   9.220   7.440  12.640
  187BOLB   C1C 4481   9.640   7.520  13.080
  187BOLB   C2C 4482   9.670   7.980  13.100
  187BOLB   C3C 4483   9.560   8.400  13.200
  187BOLB   C4C 4484   9.440   8.390  13.730
  187BOLB   C1D 4485   9.290   7.890  12.790
  187BOLB   C2D 4486   9.550   8.240  12.640
  187BOLB   C3D 4487   9.840   8.470  12.410
  187BOLB   C4D 4488  10.130   8.810  12.140
  188BOLB   NC1 4489  10.080  11.240  17.710
  188BOLB   PO1 4490  10.010  11.540  17.980
  188BOLB   GL1 4491  10.150  11.270  18.360
  188BOLB   GL2 4492   9.870  11.330  18.550
  188BOLB   C1A 4493  10.080  10.890  18.350
  188BOLB   C2A 4494   9.940  10.580  18.650
  188BOLB   C3A 4495   9.930  10.120  18.520
  188BOLB   C4A 4496   9.600   9.810  18.440
  188BOLB   C1B 4497   9.610  10.950  18.550
  188BOLB   C2B 4498   9.210  10.810  18.520
  188BOLB   C3B 4499   8.980  10.540  18.690
  188BOLB   C4B 4500   8.640  10.140  18.670
  188BOLB   NC2 4501   9.740   7.650  19.320
  188BOLB   PO2 4502   9.330   7.480  19.480
  188BOLB   GL3 4503   9.280   7.900  19.350
  188BOLB   GL4 4504   9.030   8.140  19.070
  188BOLB   C1C 4505   9.540   8.220  19.000
  188BOLB   C2C 4506   9.600   8.740  18.960
  188BOLB   C3C 4507   9.670   9.160  18.980
  188BOLB   C4C 4508   9.660   9.530  18.710
  188BOLB   C1D 4509   9.150   8.540  18.820
  188BOLB   C2D 4510   9.240   9.000  18.760
  188BOLB   C3D 4511   9.200   9.340  18.780
  188BOLB   C4D 4512   9.260   9.440  18.390
  189BOLB   NC1 4513  18.600   9.730  18.170
  189BOLB   PO1 4514  18.550  10.120  18.400
  189BOLB   GL1 4515  18.180  10.370  18.250
  189BOLB   GL2 4516  18.250  10.520  18.340
  189BOLB   C1A 4517  17.770  10.310  18.040
  189BOLB   C2A 4518  17.400  10.460  17.750
  189BOLB   C3A 4519  17.010  10.470  17.580
  189BOLB   C4A 4520  16.600  10.270  17.810
  189BOLB   C1B 4521  17.970  10.860  18.260
  189BOLB   C2B 4522  17.960  11.180  17.880
  189BOLB   C3B 4523  17.910  11.340  17.490
  189BOLB   C4B 4524  17.780  11.670  17.240
  189BOLB   NC2 4525  17.890   9.580  18.700
  189BOLB   PO2 4526  18.050   9.850  19.080
  189BOLB   GL3 4527  17.830  10.290  19.040
  189BOLB   GL4 4528  17.950  10.560  18.950
  189BOLB   C1C 4529  17.330  10.320  18.880
  189BOLB   C2C 4530  16.940  10.340  18.720
  189BOLB   C3C 4531  16.590  10.170  18.570
  189BOLB   C4C 4532  16.410  10.200  18.180
  189BOLB   C1D 4533  17.700  10.480  18.560
  189BOLB   C2D 4534  17.460  10.670  18.270
  189BOLB   C3D 4535  17.520  11.170  18.190
  189BOLB   C4D 4536  17.580  11.470  17.850
  190BOLB   NC1 4537  15.670  15.480  20.440
  190BOLB   PO1 4538  16.180  15.640  20.500
  190BOLB   GL1 4539  16.550  15.380  20.640
  190BOLB   GL2 4540  16.740  15.600  20.570
  190BOLB   C1A 4541  16.810  15.100  20.870
  190BOLB   C2A 4542  17.080  14.980  21.230
  190BOLB   C3A 4543  16.950  14.980  21.580
  190BOLB   C4A 4544  16.990  14.760  21.860
  190BOLB   C1B 4545  17.210  15.530  20.940
  190BOLB   C2B 4546  17.560  15.640  21.220
  190BOLB   C3B 4547  17.880  15.620  21.400
  190BOLB   C4B 4548  17.990  15.220  21.640
  190BOLB   NC2 4549  16.610  15.090  24.430
  190BOLB   PO2 4550  16.920  15.220  24.340
  190BOLB   GL3 4551  17.320  15.170  24.030
  190BOLB   GL4 4552  17.540  15.400  23.960
  190BOLB   C1C 4553  17.520  15.090  23.530
  190BOLB   C2C 4554  17.410  14.970  23.070
  190BOLB   C3C 4555  17.210  14.680  22.690
  190BOLB   C4C 4556  16.910  14.680  22.350
  190BOLB   C1D 4557  17.170  15.510  23.650
  190BOLB   C2D 4558  17.020  15.290  23.370
  190BOLB   C3D 4559  16.910  15.100  22.990
  190BOLB   C4D 4560  16.840  15.110  22.610
  191BOLB   NC1 4561  17.790  15.260  17.430
  191BOLB   PO1 4562  17.750  14.870  17.660
  191BOLB   GL1 4563  17.920  14.590  18.010
  191BOLB   GL2 4564  17.760  14.230  18.090
  191BOLB   C1A 4565  17.940  14.600  18.450
  191BOLB   C2A 4566  18.250  14.670  18.700
  191BOLB   C3A 4567  18.400  14.540  19.030
  191BOLB   C4A 4568  18.550  14.330  19.390
  191BOLB   C1B 4569  18.010  14.070  18.450
  191BOLB   C2B 4570  18.230  13.890  18.730
  191BOLB   C3B 4571  18.600  13.640  18.940
  191BOLB   C4B 4572  18.740  13.190  19.110
  191BOLB   NC2 4573  19.830  12.650  21.040
  191BOLB   PO2 4574  19.900  12.840  20.640
  191BOLB   GL3 4575  19.570  13.000  20.650
  191BOLB   GL4 4576  19.250  12.840  20.520
  191BOLB   C1C 4577  19.320  13.340  20.350
  191BOLB   C2C 4578  19.310  13.650  19.980
  191BOLB   C3C 4579  19.100  13.940  19.720
  191BOLB   C4C 4580  18.890  14.280  19.540
  191BOLB   C1D 4581  19.450  12.850  20.060
  191BOLB   C2D 4582  19.530  12.570  19.760
  191BOLB   C3D 4583  19.540  12.410  19.390
  191BOLB   C4D 4584  19.570  12.140  18.890
  192BOLB   NC1 4585  14.670  13.760   9.700
  192BOLB   PO1 4586  14.540  13.360   9.450
  192BOLB   GL1 4587  14.690  13.040   9.200
  192BOLB   GL2 4588  14.690  13.210   8.910
  192BOLB   C1A 4589  14.900  12.660   9.120
  192BOLB   C2A 4590  14.850  12.540   8.690
  192BOLB   C3A 4591  15.100  12.680   8.230
  192BOLB   C4A 4592  15.380  12.380   7.970
  192BOLB   C1B 4593  15.090  13.000   8.750
  192BOLB   C2B 4594  15.450  12.710   8.530
  192BOLB   C3B 4595  15.760  12.370   8.630
  192BOLB   C4B 4596  16.150  12.230   8.670
  192BOLB   NC2 4597  17.030  11.020   6.710
  192BOLB   PO2 4598  16.890  11.110   7.170
  192BOLB   GL3 4599  16.550  10.970   7.470
  192BOLB   GL4 4600  16.720  11.030   7.770
  192BOLB   C1C 4601  16.190  11.130   7.750
  192BOLB   C2C 4602  15.790  11.370   7.460
  192BOLB   C3C 4603  15.510  11.700   7.550
  192BOLB   C4C 4604  15.500  12.070   7.660
  192BOLB   C1D 4605  16.790  11.100   8.110
  192BOLB   C2D 4606  16.740  11.380   8.440
  192BOLB   C3D 4607  16.370  11.420   8.700
  192BOLB   C4D 4608  16.100  11.690   8.790
  193BOLB   NC1 4609  11.720  11.090  12.490
  193BOLB   PO1 4610  11.740  10.800  12.710
  193BOLB   GL1 4611  11.780  10.370  12.730
  193BOLB   GL2 4612  11.550  10.370  12.600
  193BOLB   C1A 4613  12.030  10.080  12.810
  193BOLB   C2A 4614  12.510  10.110  12.650
  193BOLB   C3A 4615  12.610   9.710  12.420
  193BOLB   C4A 4616  12.650   9.250  12.470
  193BOLB   C1B 4617  11.770  10.050  12.330
  193BOLB   C2B 4618  12.140   9.840  12.300
  193BOLB   C3B 4619  12.240   9.350  12.120
  193BOLB   C4B 4620  12.150   8.990  11.920
  193BOLB   NC2 4621  13.080   7.080  12.680
  193BOLB   PO2 4622  13.530   7.020  12.670
  193BOLB   GL3 4623  13.450   7.480  12.650
  193BOLB   GL4 4624  13.390   7.660  12.980
  193BOLB   C1C 4625  13.440   7.930  12.600
  193BOLB   C2C 4626  13.160   8.240  12.560
  193BOLB   C3C 4627  12.850   8.510  12.510
  193BOLB   C4C 4628  12.680   8.830  12.430
  193BOLB   C1D 4629  13.500   7.990  13.170
  193BOLB   C2D 4630  13.600   8.020  13.700
  193BOLB   C3D 4631  13.310   8.230  13.880
  193BOLB   C4D 4632  12.970   8.540  14.060
  194BOLB   NC1 4633  13.140  10.710  14.990
  194BOLB   PO1 4634  13.010  10.700  15.370
  194BOLB   GL1 4635  13.150  10.260  15.350
  194BOLB   GL2 4636  13.050  10.200  15.050
  194BOLB   C1A 4637  13.540   9.910  15.430
  194BOLB   C2A 4638  13.630   9.540  15.700
  194BOLB   C3A 4639  13.960   9.340  15.850
  194BOLB   C4A 4640  14.280   9.120  16.070
  194BOLB   C1B 4641  13.480   9.930  14.950
  194BOLB   C2B 4642  13.630   9.560  14.690
  194BOLB   C3B 4643  13.290   9.320  14.340
  194BOLB   C4B 4644  12.900   9.100  14.120
  194BOLB   NC2 4645  14.560   6.800  16.740
  194BOLB   PO2 4646  15.000   6.750  16.720
  194BOLB   GL3 4647  14.940   7.090  16.420
  194BOLB   GL4 4648  14.610   7.260  16.480
  194BOLB   C1C 4649  14.940   7.620  16.420
  194BOLB   C2C 4650  14.790   7.950  16.270
  194BOLB   C3C 4651  14.570   8.410  16.170
  194BOLB   C4C 4652  14.570   8.800  16.110
  194BOLB   C1D 4653  14.580   7.530  16.060
  194BOLB   C2D 4654  14.250   7.720  15.750
  194BOLB   C3D 4655  14.070   8.140  15.670
  194BOLB   C4D 4656  14.030   8.540  15.840
  195BOLB   NC1 4657  14.040  11.190  14.580
  195BOLB   PO1 4658  14.270  11.260  14.930
  195BOLB   GL1 4659  14.390  10.870  14.820
  195BOLB   GL2 4660  14.100  10.730  14.840
  195BOLB   C1A 4661  14.720  10.620  14.950
  195BOLB   C2A 4662  14.890  10.270  15.180
  195BOLB   C3A 4663  15.140   9.920  15.210
  195BOLB   C4A 4664  15.330   9.480  15.360
  195BOLB   C1B 4665  14.380  10.480  14.570
  195BOLB   C2B 4666  14.630  10.110  14.490
  195BOLB   C3B 4667  14.670   9.920  14.020
  195BOLB   C4B 4668  14.560   9.700  13.680
  195BOLB   NC2 4669  15.320   6.920  15.250
  195BOLB   PO2 4670  15.580   7.240  15.090
  195BOLB   GL3 4671  15.730   7.480  15.190
  195BOLB   GL4 4672  15.800   7.690  14.890
  195BOLB   C1C 4673  15.710   7.910  15.390
  195BOLB   C2C 4674  15.520   8.300  15.470
  195BOLB   C3C 4675  15.660   8.790  15.430
  195BOLB   C4C 4676  15.650   9.180  15.530
  195BOLB   C1D 4677  15.660   8.050  14.800
  195BOLB   C2D 4678  15.330   8.290  14.550
  195BOLB   C3D 4679  15.180   8.700  14.600
  195BOLB   C4D 4680  15.090   9.120  14.550
  196BOLB   NC1 4681  12.710   6.620  11.970
  196BOLB   PO1 4682  12.350   6.800  12.020
  196BOLB   GL1 4683  12.120   7.110  12.290
  196BOLB   GL2 4684  12.110   7.050  12.640
  196BOLB   C1A 4685  11.950   7.520  12.410
  196BOLB   C2A 4686  11.660   7.910  12.390
  196BOLB   C3A 4687  11.240   7.980  12.490
  196BOLB   C4A 4688  11.010   8.330  12.490
  196BOLB   C1B 4689  12.290   7.390  12.790
  196BOLB   C2B 4690  12.620   7.470  12.920
  196BOLB   C3B 4691  12.840   7.920  12.940
  196BOLB   C4B 4692  13.000   8.390  13.030
  196BOLB   NC2 4693  10.440  10.680  13.620
  196BOLB   PO2 4694  10.830  10.690  13.550
  196BOLB   GL3 4695  10.790  10.430  13.320
  196BOLB   GL4 4696  10.700  10.500  13.090
  196BOLB   C1C 4697  10.680   9.920  13.370
  196BOLB   C2C 4698  10.660   9.580  12.950
  196BOLB   C3C 4699  10.780   9.180  12.710
  196BOLB   C4C 4700  11.040   8.780  12.570
  196BOLB   C1D 4701  10.690  10.160  12.910
  196BOLB   C2D 4702  10.840   9.920  12.630
  196BOLB   C3D 4703  11.150   9.620  12.720
  196BOLB   C4D 4704  11.380   9.190  12.650
  197BOLB   NC1 4705  19.340  16.280  13.830
  197BOLB   PO1 4706  19.560  16.300  14.290
  197BOLB   GL1 4707  19.740  15.980  14.440
  197BOLB   GL2 4708  19.820  15.920  14.700
  197BOLB   C1A 4709  20.100  15.670  14.320
  197BOLB   C2A 4710  20.510  15.530  14.540
  197BOLB   C3A 4711  20.820  15.250  14.830
  197BOLB   C4A 4712  21.060  14.930  15.160
  197BOLB   C1B 4713  20.280  15.840  14.860
  197BOLB   C2B 4714  20.640  15.750  14.960
  197BOLB   C3B 4715  21.050  15.680  15.010
  197BOLB   C4B 4716  21.300  15.360  14.850
  197BOLB   NC2 4717  22.440  14.010  16.630
  197BOLB   PO2 4718  22.630  13.510  16.470
  197BOLB   GL3 4719  22.300  13.690  16.290
  197BOLB   GL4 4720  22.030  13.650  16.330
  197BOLB   C1C 4721  22.030  14.040  16.050
  197BOLB   C2C 4722  21.960  14.500  15.980
  197BOLB   C3C 4723  21.690  14.600  15.700
  197BOLB   C4C 4724  21.310  14.620  15.440
  197BOLB   C1D 4725  21.730  13.930  16.490
  197BOLB   C2D 4726  21.600  14.020  16.740
  197BOLB   C3D 4727  21.550  14.420  16.860
  197BOLB   C4D 4728  21.240  14.830  17.020
  198BOLB   NC1 4729  16.330  18.160  19.880
  198BOLB   PO1 4730  16.670  18.180  20.190
  198BOLB   GL1 4731  17.030  18.240  20.600
  198BOLB   GL2 4732  16.930  18.050  20.790
  198BOLB   C1A 4733  17.310  18.450  20.840
  198BOLB   C2A 4734  17.570  18.340  21.200
  198BOLB   C3A 4735  17.960  18.140  21.280
  198BOLB   C4A 4736  18.420  18.120  21.600
  198BOLB   C1B 4737  17.180  17.940  21.090
  198BOLB   C2B 4738  17.520  17.930  21.520
  198BOLB   C3B 4739  17.980  17.860  21.730
  198BOLB   C4B 4740  18.180  17.590  21.940
  198BOLB   NC2 4741  19.290  17.040  24.090
  198BOLB   PO2 4742  19.260  17.160  23.700
  198BOLB   GL3 4743  18.840  17.200  23.380
  198BOLB   GL4 4744  19.020  17.110  23.190
  198BOLB   C1C 4745  18.550  17.340  23.010
  198BOLB   C2C 4746  18.650  17.480  22.590
  198BOLB   C3C 4747  18.550  17.830  22.350
  198BOLB   C4C 4748  18.450  18.090  22.020
  198BOLB   C1D 4749  18.700  16.810  23.000
  198BOLB   C2D 4750  18.460  16.830  22.740
  198BOLB   C3D 4751  18.550  16.600  22.360
  198BOLB   C4D 4752  18.600  16.550  21.910
  199BOLB   NC1 4753  11.200   6.450  14.600
  199BOLB   PO1 4754  11.280   6.460  15.000
  199BOLB   GL1 4755  11.530   6.660  15.040
  199BOLB   GL2 4756  11.440   6.770  15.380
  199BOLB   C1A 4757  11.660   7.070  14.770
  199BOLB   C2A 4758  12.020   7.290  14.590
  199BOLB   C3A 4759  11.990   7.670  14.310
  199BOLB   C4A 4760  11.730   8.040  14.390
  199BOLB   C1B 4761  11.260   7.210  15.060
  199BOLB   C2B 4762  11.100   7.520  15.100
  199BOLB   C3B 4763  11.040   7.930  15.110
  199BOLB   C4B 4764  10.790   8.270  15.090
  199BOLB   NC2 4765  10.310   6.810  14.140
  199BOLB   PO2 4766  10.180   6.580  14.520
  199BOLB   GL3 4767  10.490   6.990  14.630
  199BOLB   GL4 4768  10.310   7.240  14.850
  199BOLB   C1C 4769  10.800   7.400  14.760
  199BOLB   C2C 4770  10.740   7.920  14.740
  199BOLB   C3C 4771  11.090   8.140  14.710
  199BOLB   C4C 4772  11.390   8.280  14.550
  199BOLB   C1D 4773  10.380   7.540  14.590
  199BOLB   C2D 4774  10.410   7.740  14.220
  199BOLB   C3D 4775  10.160   7.990  13.930
  199BOLB   C4D 4776  10.250   8.320  13.810
  200BOLB   NC1 4777  12.020  16.760  21.930
  200BOLB   PO1 4778  12.380  16.730  21.970
  200BOLB   GL1 4779  12.380  16.650  22.420
  200BOLB   GL2 4780  12.410  16.840  22.720
  200BOLB   C1A 4781  12.370  16.330  22.630
  200BOLB   C2A 4782  12.580  16.370  23.040
  200BOLB   C3A 4783  12.730  16.410  23.560
  200BOLB   C4A 4784  12.830  16.620  23.930
  200BOLB   C1B 4785  12.440  16.810  23.220
  200BOLB   C2B 4786  12.380  16.710  23.700
  200BOLB   C3B 4787  12.370  16.940  24.020
  200BOLB   C4B 4788  12.770  17.230  24.170
  200BOLB   NC2 4789  13.320  14.500  25.460
  200BOLB   PO2 4790  13.130  14.930  25.440
  200BOLB   GL3 4791  12.700  15.230  25.300
  200BOLB   GL4 4792  12.430  14.980  25.410
  200BOLB   C1C 4793  12.560  15.570  25.010
  200BOLB   C2C 4794  12.500  16.010  24.900
  200BOLB   C3C 4795  12.620  16.230  24.560
  200BOLB   C4C 4796  12.600  16.570  24.290
  200BOLB   C1D 4797  12.450  15.060  24.940
  200BOLB   C2D 4798  12.620  14.760  24.700
  200BOLB   C3D 4799  12.760  14.450  24.460
  200BOLB   C4D 4800  12.710  14.210  24.020
  201BOLB   NC1 4801  16.570  19.430  20.600
  201BOLB   PO1 4802  16.910  19.230  20.430
  201BOLB   GL1 4803  16.980  19.280  20.860
  201BOLB   GL2 4804  16.730  19.150  21.040
  201BOLB   C1A 4805  17.330  19.330  21.080
  201BOLB   C2A 4806  17.680  19.390  21.190
  201BOLB   C3A 4807  17.980  19.360  21.520
  201BOLB   C4A 4808  18.470  19.520  21.480
  201BOLB   C1B 4809  17.010  19.180  21.400
  201BOLB   C2B 4810  17.210  19.460  21.670
  201BOLB   C3B 4811  17.600  19.460  21.900
  201BOLB   C4B 4812  17.990  19.460  22.190
  201BOLB   NC2 4813  20.300  18.490  23.070
  201BOLB   PO2 4814  20.580  18.750  22.730
  201BOLB   GL3 4815  20.220  18.840  22.640
  201BOLB   GL4 4816  19.910  18.880  22.870
  201BOLB   C1C 4817  19.830  18.740  22.270
  201BOLB   C2C 4818  19.600  18.780  21.880
  201BOLB   C3C 4819  19.170  18.930  21.720
  201BOLB   C4C 4820  18.820  19.280  21.740
  201BOLB   C1D 4821  19.480  18.980  22.760
  201BOLB   C2D 4822  19.220  19.300  22.620
  201BOLB   C3D 4823  18.920  19.490  22.310
  201BOLB   C4D 4824  18.550  19.580  22.070
  202BOLB   NC1 4825   1.400  20.140  16.520
  202BOLB   PO1 4826   1.350  19.800  16.120
  202BOLB   GL1 4827   1.150  19.670  16.470
  202BOLB   GL2 4828   0.930  19.550  16.230
  202BOLB   C1A 4829   0.870  19.650  16.710
  202BOLB   C2A 4830   0.740  19.410  17.020
  202BOLB   C3A 4831   0.440  19.190  17.310
  202BOLB   C4A 4832  36.300  19.050  17.280
  202BOLB   C1B 4833   0.510  19.430  16.160
  202BOLB   C2B 4834   0.110  19.250  16.120
  202BOLB   C3B 4835   0.150  18.880  16.390
  202BOLB   C4B 4836  36.300  19.080  16.790
  202BOLB   NC2 4837  34.360  19.550  18.490
  202BOLB   PO2 4838  34.300  19.710  18.050
  202BOLB   GL3 4839  34.600  19.800  17.930
  202BOLB   GL4 4840  34.850  19.580  17.960
  202BOLB   C1C 4841  34.990  19.900  17.630
  202BOLB   C2C 4842  35.420  19.800  17.410
  202BOLB   C3C 4843  35.730  19.540  17.370
  202BOLB   C4C 4844  35.860  19.160  17.220
  202BOLB   C1D 4845  35.010  19.980  18.090
  202BOLB   C2D 4846  35.450  20.130  18.280
  202BOLB   C3D 4847  35.590  20.490  18.220
  202BOLB   C4D 4848  35.580  20.780  18.570
  203BOLB   NC1 4849   4.710  13.580  15.640
  203BOLB   PO1 4850   5.140  13.430  15.430
  203BOLB   GL1 4851   4.850  13.100  15.530
  203BOLB   GL2 4852   4.550  13.110  15.780
  203BOLB   C1A 4853   4.570  12.730  15.330
  203BOLB   C2A 4854   4.260  12.650  15.670
  203BOLB   C3A 4855   3.960  12.360  15.820
  203BOLB   C4A 4856   3.980  12.000  16.130
  203BOLB   C1B 4857   4.330  12.990  16.100
  203BOLB   C2B 4858   4.310  12.590  16.270
  203BOLB   C3B 4859   4.490  12.370  16.600
  203BOLB   C4B 4860   4.440  12.030  16.960
  203BOLB   NC2 4861   3.480   9.360  15.950
  203BOLB   PO2 4862   3.740   9.660  16.130
  203BOLB   GL3 4863   3.880  10.080  16.120
  203BOLB   GL4 4864   3.930  10.120  15.810
  203BOLB   C1C 4865   3.780  10.470  16.350
  203BOLB   C2C 4866   3.660  10.840  16.450
  203BOLB   C3C 4867   3.870  11.290  16.510
  203BOLB   C4C 4868   4.070  11.690  16.360
  203BOLB   C1D 4869   4.120  10.510  15.970
  203BOLB   C2D 4870   4.100  10.870  16.240
  203BOLB   C3D 4871   4.260  10.870  16.630
  203BOLB   C4D 4872   4.240  10.720  17.080
  204BOLB   NC1 4873  16.810  14.100  17.450
  204BOLB   PO1 4874  17.010  13.730  17.540
  204BOLB   GL1 4875  17.240  13.480  17.680
  204BOLB   GL2 4876  17.310  13.330  17.460
  204BOLB   C1A 4877  17.500  13.240  17.880
  204BOLB   C2A 4878  17.700  13.270  18.270
  204BOLB   C3A 4879  17.730  13.060  18.630
  204BOLB   C4A 4880  17.860  12.790  18.960
  204BOLB   C1B 4881  17.680  13.080  17.400
  204BOLB   C2B 4882  17.990  12.740  17.560
  204BOLB   C3B 4883  18.380  12.470  17.400
  204BOLB   C4B 4884  18.620  12.330  17.040
  204BOLB   NC2 4885  19.280  11.630  20.230
  204BOLB   PO2 4886  18.850  11.350  20.010
  204BOLB   GL3 4887  18.530  11.410  19.730
  204BOLB   GL4 4888  18.490  11.740  19.780
  204BOLB   C1C 4889  18.100  11.450  19.590
  204BOLB   C2C 4890  17.840  11.740  19.490
  204BOLB   C3C 4891  17.820  12.110  19.280
  204BOLB   C4C 4892  17.710  12.550  19.270
  204BOLB   C1D 4893  18.230  12.040  19.590
  204BOLB   C2D 4894  18.230  12.480  19.310
  204BOLB   C3D 4895  18.280  12.890  19.350
  204BOLB   C4D 4896  18.460  13.230  19.460
  205BOLB   NC1 4897  14.230  17.080  21.140
  205BOLB   PO1 4898  14.000  16.850  21.430
  205BOLB   GL1 4899  14.380  16.750  21.840
  205BOLB   GL2 4900  14.650  16.900  21.990
  205BOLB   C1A 4901  14.510  16.430  22.110
  205BOLB   C2A 4902  14.730  16.340  22.460
  205BOLB   C3A 4903  14.860  16.520  22.840
  205BOLB   C4A 4904  15.170  16.360  23.100
  205BOLB   C1B 4905  14.840  17.030  22.390
  205BOLB   C2B 4906  15.020  17.050  22.770
  205BOLB   C3B 4907  15.280  17.210  23.190
  205BOLB   C4B 4908  15.450  17.300  23.550
  205BOLB   NC2 4909  16.970  15.980  24.690
  205BOLB   PO2 4910  16.590  15.950  24.870
  205BOLB   GL3 4911  16.240  16.040  24.540
  205BOLB   GL4 4912  15.920  16.210  24.670
  205BOLB   C1C 4913  16.150  16.160  24.180
  205BOLB   C2C 4914  16.090  16.390  23.870
  205BOLB   C3C 4915  15.710  16.340  23.630
  205BOLB   C4C 4916  15.550  16.370  23.270
  205BOLB   C1D 4917  15.730  16.350  24.270
  205BOLB   C2D 4918  15.540  16.710  24.050
  205BOLB   C3D 4919  15.170  17.020  24.050
  205BOLB   C4D 4920  14.900  17.090  23.710
  206BOLB   NC1 4921  15.880   7.330  16.580
  206BOLB   PO1 4922  16.110   7.450  16.140
  206BOLB   GL1 4923  16.110   7.760  16.370
  206BOLB   GL2 4924  16.390   7.940  16.650
  206BOLB   C1A 4925  15.850   8.110  16.420
  206BOLB   C2A 4926  15.720   8.500  16.590
  206BOLB   C3A 4927  15.780   8.950  16.550
  206BOLB   C4A 4928  15.740   9.470  16.710
  206BOLB   C1B 4929  16.130   8.260  16.800
  206BOLB   C2B 4930  16.080   8.710  17.030
  206BOLB   C3B 4931  16.220   8.890  17.380
  206BOLB   C4B 4932  16.430   8.940  17.810
  206BOLB   NC2 4933  15.710   7.690  17.800
  206BOLB   PO2 4934  15.970   7.660  17.430
  206BOLB   GL3 4935  15.940   8.090  17.500
  206BOLB   GL4 4936  15.840   8.220  17.210
  206BOLB   C1C 4937  15.810   8.480  17.620
  206BOLB   C2C 4938  15.780   8.950  17.600
  206BOLB   C3C 4939  15.550   9.330  17.410
  206BOLB   C4C 4940  15.460   9.550  17.040
  206BOLB   C1D 4941  15.550   8.050  16.960
  206BOLB   C2D 4942  15.050   7.980  16.780
  206BOLB   C3D 4943  14.790   8.310  16.710
  206BOLB   C4D 4944  14.580   8.730  16.630
  207BOLB   NC1 4945   6.950  12.250  12.370
  207BOLB   PO1 4946   6.980  11.980  12.700
  207BOLB   GL1 4947   6.820  11.570  12.470
  207BOLB   GL2 4948   6.530  11.450  12.580
  207BOLB   C1A 4949   6.930  11.230  12.330
  207BOLB   C2A 4950   6.820  10.930  12.080
  207BOLB   C3A 4951   6.840  10.520  12.050
  207BOLB   C4A 4952   6.740  10.080  12.080
  207BOLB   C1B 4953   6.370  11.110  12.280
  207BOLB   C2B 4954   6.210  10.870  12.010
  207BOLB   C3B 4955   6.160  10.590  11.590
  207BOLB   C4B 4956   6.220  10.570  11.230
  207BOLB   NC2 4957   4.630   8.320  10.890
  207BOLB   PO2 4958   4.740   8.680  11.330
  207BOLB   GL3 4959   5.200   8.810  11.380
  207BOLB   GL4 4960   5.450   8.990  11.100
  207BOLB   C1C 4961   5.460   8.910  11.770
  207BOLB   C2C 4962   5.780   9.260  11.860
  207BOLB   C3C 4963   6.130   9.520  11.670
  207BOLB   C4C 4964   6.430   9.850  11.870
  207BOLB   C1D 4965   5.790   9.140  10.960
  207BOLB   C2D 4966   6.070   9.440  10.680
  207BOLB   C3D 4967   6.430   9.630  10.770
  207BOLB   C4D 4968   6.780   9.790  10.980
  208BOLB   NC1 4969  18.510  21.430  17.580
  208BOLB   PO1 4970  18.630  21.150  17.750
  208BOLB   GL1 4971  18.770  21.510  17.980
  208BOLB   GL2 4972  18.900  21.330  18.260
  208BOLB   C1A 4973  19.110  21.860  17.990
  208BOLB   C2A 4974  19.350  21.980  18.290
  208BOLB   C3A 4975  19.280  22.150  18.700
  208BOLB   C4A 4976  19.380  22.490  18.960
  208BOLB   C1B 4977  19.090  21.640  18.560
  208BOLB   C2B 4978  19.230  21.720  19.000
  208BOLB   C3B 4979  19.430  21.830  19.380
  208BOLB   C4B 4980  19.590  22.170  19.490
  208BOLB   NC2 4981  21.450  23.870  20.300
  208BOLB   PO2 4982  21.160  23.550  20.280
  208BOLB   GL3 4983  21.020  23.220  20.040
  208BOLB   GL4 4984  20.650  23.210  20.080
  208BOLB   C1C 4985  20.980  22.940  19.680
  208BOLB   C2C 4986  20.580  22.890  19.350
  208BOLB   C3C 4987  20.140  22.820  19.200
  208BOLB   C4C 4988  19.700  22.750  19.020
  208BOLB   C1D 4989  20.610  23.380  19.710
  208BOLB   C2D 4990  20.240  23.270  19.410
  208BOLB   C3D 4991  19.930  23.250  19.060
  208BOLB   C4D 4992  19.520  23.250  18.960
  209BOLB   NC1 4993   6.970  19.610  22.000
  209BOLB   PO1 4994   7.040  19.580  22.430
  209BOLB   GL1 4995   7.080  19.390  22.870
  209BOLB   GL2 4996   6.960  19.020  22.810
  209BOLB   C1A 4997   7.040  19.440  23.350
  209BOLB   C2A 4998   6.860  19.140  23.780
  209BOLB   C3A 4999   6.850  18.920  24.100
  209BOLB   C4A 5000   7.030  18.640  24.480
  209BOLB   C1B 5001   7.010  18.940  23.280
  209BOLB   C2B 5002   7.160  18.750  23.670
  209BOLB   C3B 5003   7.210  18.530  24.010
  209BOLB   C4B 5004   7.390  18.290  24.300
  209BOLB   NC2 5005   7.130  17.790  26.030
  209BOLB   PO2 5006   7.260  18.000  26.370
  209BOLB   GL3 5007   7.530  18.030  26.060
  209BOLB   GL4 5008   7.740  18.290  26.050
  209BOLB   C1C 5009   7.620  18.000  25.670
  209BOLB   C2C 5010   7.490  18.240  25.370
  209BOLB   C3C 5011   7.150  18.510  25.310
  209BOLB   C4C 5012   7.130  18.750  24.930
  209BOLB   C1D 5013   8.170  18.350  25.880
  209BOLB   C2D 5014   8.200  18.350  25.470
  209BOLB   C3D 5015   8.250  18.420  25.000
  209BOLB   C4D 5016   8.130  18.620  24.620
  210BOLB   NC1 5017  10.980  17.290  21.650
  210BOLB   PO1 5018  11.270  17.100  21.960
  210BOLB   GL1 5019  11.100  16.930  22.390
  210BOLB   GL2 5020  11.380  16.960  22.510
  210BOLB   C1A 5021  11.110  16.570  22.730
  210BOLB   C2A 5022  11.140  16.520  23.160
  210BOLB   C3A 5023  11.230  16.380  23.580
  210BOLB   C4A 5024  11.320  15.960  23.790
  210BOLB   C1B 5025  11.490  16.910  22.850
  210BOLB   C2B 5026  11.570  16.730  23.240
  210BOLB   C3B 5027  11.700  16.630  23.670
  210BOLB   C4B 5028  11.970  16.620  24.010
  210BOLB   NC2 5029  11.060  14.000  25.850
  210BOLB   PO2 5030  10.900  14.180  25.520
  210BOLB   GL3 5031  10.910  14.330  25.060
  210BOLB   GL4 5032  10.780  14.120  24.780
  210BOLB   C1C 5033  11.110  14.630  24.800
  210BOLB   C2C 5034  11.320  15.000  24.580
  210BOLB   C3C 5035  11.540  15.310  24.300
  210BOLB   C4C 5036  11.530  15.700  24.040
  210BOLB   C1D 5037  10.900  14.220  24.370
  210BOLB   C2D 5038  10.830  14.330  23.970
  210BOLB   C3D 5039  10.980  14.490  23.650
  210BOLB   C4D 5040  10.860  14.690  23.240
  211BOLB   NC1 5041  10.230  18.270  22.180
  211BOLB   PO1 5042  10.610  18.310  22.460
  211BOLB   GL1 5043  10.590  18.130  22.970
  211BOLB   GL2 5044  10.800  18.070  23.020
  211BOLB   C1A 5045  10.440  18.080  23.410
  211BOLB   C2A 5046  10.210  17.840  23.750
  211BOLB   C3A 5047  10.180  18.000  24.170
  211BOLB   C4A 5048  10.030  18.030  24.600
  211BOLB   C1B 5049  10.820  17.610  23.100
  211BOLB   C2B 5050  10.970  17.270  23.540
  211BOLB   C3B 5051  11.080  17.250  23.910
  211BOLB   C4B 5052  10.940  17.500  24.150
  211BOLB   NC2 5053  10.520  17.250  26.620
  211BOLB   PO2 5054  10.490  17.560  27.030
  211BOLB   GL3 5055  10.610  17.730  26.640
  211BOLB   GL4 5056  10.940  17.920  26.650
  211BOLB   C1C 5057  10.400  17.840  26.220
  211BOLB   C2C 5058  10.250  18.010  25.780
  211BOLB   C3C 5059  10.350  17.940  25.290
  211BOLB   C4C 5060  10.090  18.150  25.000
  211BOLB   C1D 5061  10.820  18.050  26.260
  211BOLB   C2D 5062  10.560  18.430  26.110
  211BOLB   C3D 5063  10.150  18.560  26.220
  211BOLB   C4D 5064   9.890  18.850  26.140
  212BOLB   NC1 5065  17.290  21.690  19.130
  212BOLB   PO1 5066  17.630  21.960  18.930
  212BOLB   GL1 5067  17.960  22.130  19.090
  212BOLB   GL2 5068  17.950  22.290  19.240
  212BOLB   C1A 5069  18.340  22.050  19.270
  212BOLB   C2A 5070  18.580  22.140  19.580
  212BOLB   C3A 5071  18.650  22.400  19.810
  212BOLB   C4A 5072  18.930  22.630  20.200
  212BOLB   C1B 5073  18.100  22.340  19.690
  212BOLB   C2B 5074  18.180  22.240  20.130
  212BOLB   C3B 5075  18.590  22.250  20.390
  212BOLB   C4B 5076  18.690  22.360  20.800
  212BOLB   NC2 5077  20.380  23.270  21.830
  212BOLB   PO2 5078  20.420  22.780  22.060
  212BOLB   GL3 5079  20.180  22.650  21.720
  212BOLB   GL4 5080  20.070  22.400  21.810
  212BOLB   C1C 5081  19.820  22.830  21.640
  212BOLB   C2C 5082  19.480  22.700  21.420
  212BOLB   C3C 5083  19.250  22.640  21.040
  212BOLB   C4C 5084  19.080  22.470  20.560
  212BOLB   C1D 5085  19.790  22.340  21.440
  212BOLB   C2D 5086  19.400  22.200  21.270
  212BOLB   C3D 5087  19.190  22.130  20.910
  212BOLB   C4D 5088  18.910  21.920  20.510
  213BOLB   NC1 5089  17.050  15.300  19.290
  213BOLB   PO1 5090  16.760  15.090  19.480
  213BOLB   GL1 5091  16.810  14.790  19.840
  213BOLB   GL2 5092  16.700  14.590  19.870
  213BOLB   C1A 5093  16.880  14.680  20.270
  213BOLB   C2A 5094  16.720  14.220  20.500
  213BOLB   C3A 5095  16.490  13.950  20.840
  213BOLB   C4A 5096  16.340  13.770  21.150
  213BOLB   C1B 5097  16.900  14.270  20.000
  213BOLB   C2B 5098  17.210  14.230  20.400
  213BOLB   C3B 5099  17.350  14.130  20.730
  213BOLB   C4B 5100  17.770  14.230  20.920
  213BOLB   NC2 5101  17.290  12.330  23.320
  213BOLB   PO2 5102  17.120  12.770  23.450
  213BOLB   GL3 5103  16.950  13.020  23.080
  213BOLB   GL4 5104  17.160  13.250  23.050
  213BOLB   C1C 5105  16.660  13.060  22.760
  213BOLB   C2C 5106  16.390  13.150  22.280
  213BOLB   C3C 5107  16.260  13.470  22.020
  213BOLB   C4C 5108  16.290  13.570  21.630
  213BOLB   C1D 5109  16.900  13.480  22.760
  213BOLB   C2D 5110  16.440  13.610  22.500
  213BOLB   C3D 5111  16.330  13.940  22.210
  213BOLB   C4D 5112  16.140  14.210  21.930
  214BOLB   NC1 5113  12.780  20.780  22.220
  214BOLB   PO1 5114  13.150  20.530  22.280
  214BOLB   GL1 5115  13.160  20.560  22.810
  214BOLB   GL2 5116  13.400  20.320  22.840
  214BOLB   C1A 5117  13.180  20.760  23.190
  214BOLB   C2A 5118  13.370  20.740  23.600
  214BOLB   C3A 5119  13.540  20.850  24.020
  214BOLB   C4A 5120  13.680  20.830  24.370
  214BOLB   C1B 5121  13.560  20.310  23.320
  214BOLB   C2B 5122  13.560  20.260  23.760
  214BOLB   C3B 5123  13.660  20.390  24.210
  214BOLB   C4B 5124  13.700  20.180  24.560
  214BOLB   NC2 5125  14.600  20.990  26.150
  214BOLB   PO2 5126  14.610  21.440  26.290
  214BOLB   GL3 5127  14.460  21.420  25.900
  214BOLB   GL4 5128  14.780  21.180  25.760
  214BOLB   C1C 5129  14.310  21.340  25.510
  214BOLB   C2C 5130  14.040  21.150  25.290
  214BOLB   C3C 5131  13.730  20.900  25.240
  214BOLB   C4C 5132  13.710  20.720  24.880
  214BOLB   C1D 5133  14.490  20.880  25.460
  214BOLB   C2D 5134  14.220  20.690  25.150
  214BOLB   C3D 5135  14.050  20.360  24.870
  214BOLB   C4D 5136  14.100  20.450  24.490
  215BOLB   NC1 5137   1.700  18.230  13.560
  215BOLB   PO1 5138   1.910  18.020  13.150
  215BOLB   GL1 5139   1.560  17.750  12.990
  215BOLB   GL2 5140   1.330  17.830  12.720
  215BOLB   C1A 5141   1.250  17.380  12.880
  215BOLB   C2A 5142   1.080  17.090  13.170
  215BOLB   C3A 5143   0.760  16.940  13.170
  215BOLB   C4A 5144   0.320  16.710  13.310
  215BOLB   C1B 5145   1.010  17.670  12.490
  215BOLB   C2B 5146   0.570  17.800  12.540
  215BOLB   C3B 5147   0.130  17.710  12.710
  215BOLB   C4B 5148  36.230  17.490  12.940
  215BOLB   NC2 5149  34.440  16.880  12.930
  215BOLB   PO2 5150  34.170  17.020  13.380
  215BOLB   GL3 5151  34.600  17.120  13.340
  215BOLB   GL4 5152  34.630  17.370  13.490
  215BOLB   C1C 5153  34.960  17.020  13.440
  215BOLB   C2C 5154  35.350  16.870  13.530
  215BOLB   C3C 5155  35.800  16.820  13.390
  215BOLB   C4C 5156  36.250  16.730  13.390
  215BOLB   C1D 5157  35.090  17.500  13.470
  215BOLB   C2D 5158  35.300  17.510  13.200
  215BOLB   C3D 5159  35.470  17.380  12.760
  215BOLB   C4D 5160  35.770  17.550  12.670
  216BOLB   NC1 5161   8.680  17.490  22.730
  216BOLB   PO1 5162   8.580  17.120  22.660
  216BOLB   GL1 5163   8.670  16.820  22.810
  216BOLB   GL2 5164   8.600  16.750  23.130
  216BOLB   C1A 5165   8.590  16.330  22.880
  216BOLB   C2A 5166   8.350  16.250  23.210
  216BOLB   C3A 5167   8.180  16.410  23.600
  216BOLB   C4A 5168   8.150  16.570  24.040
  216BOLB   C1B 5169   8.450  16.840  23.510
  216BOLB   C2B 5170   8.440  17.000  23.980
  216BOLB   C3B 5171   8.290  17.320  24.220
  216BOLB   C4B 5172   8.450  17.650  24.630
  216BOLB   NC2 5173   9.270  15.630  25.950
  216BOLB   PO2 5174   8.930  15.930  25.960
  216BOLB   GL3 5175   9.040  15.860  25.500
  216BOLB   GL4 5176   9.390  15.870  25.500
  216BOLB   C1C 5177   9.210  16.220  25.270
  216BOLB   C2C 5178   9.120  16.460  24.890
  216BOLB   C3C 5179   8.850  16.780  24.640
  216BOLB   C4C 5180   8.350  16.710  24.410
  216BOLB   C1D 5181   9.780  16.150  25.380
  216BOLB   C2D 5182   9.610  16.490  25.180
  216BOLB   C3D 5183   9.500  16.700  24.760
  216BOLB   C4D 5184   9.340  16.890  24.400
  217BOLB   NC1 5185  12.150  11.650  17.750
  217BOLB   PO1 5186  11.800  11.410  17.540
  217BOLB   GL1 5187  12.010  11.120  17.900
  217BOLB   GL2 5188  11.920  10.800  17.750
  217BOLB   C1A 5189  11.930  10.900  18.300
  217BOLB   C2A 5190  11.860  10.550  18.370
  217BOLB   C3A 5191  11.720  10.140  18.500
  217BOLB   C4A 5192  11.670   9.740  18.530
  217BOLB   C1B 5193  11.990  10.450  17.850
  217BOLB   C2B 5194  11.860  10.060  17.990
  217BOLB   C3B 5195  11.380   9.940  18.150
  217BOLB   C4B 5196  11.080   9.590  17.990
  217BOLB   NC2 5197  11.320   6.930  18.540
  217BOLB   PO2 5198  10.960   7.210  18.650
  217BOLB   GL3 5199  11.230   7.680  18.620
  217BOLB   GL4 5200  11.590   7.690  18.540
  217BOLB   C1C 5201  11.530   8.110  18.690
  217BOLB   C2C 5202  11.760   8.610  18.810
  217BOLB   C3C 5203  11.680   9.010  18.780
  217BOLB   C4C 5204  11.570   9.440  18.720
  217BOLB   C1D 5205  11.430   7.900  18.210
  217BOLB   C2D 5206  11.530   8.070  17.820
  217BOLB   C3D 5207  11.510   8.370  17.420
  217BOLB   C4D 5208  11.630   8.790  17.410
  218BOLB   NC1 5209  16.050  12.110  14.670
  218BOLB   PO1 5210  16.280  12.210  14.370
  218BOLB   GL1 5211  16.570  11.830  14.250
  218BOLB   GL2 5212  16.940  11.910  14.360
  218BOLB   C1A 5213  16.700  11.530  14.020
  218BOLB   C2A 5214  16.850  11.060  14.050
  218BOLB   C3A 5215  17.160  10.800  13.870
  218BOLB   C4A 5216  17.390  10.600  13.900
  218BOLB   C1B 5217  17.400  11.720  14.340
  218BOLB   C2B 5218  17.660  11.480  14.360
  218BOLB   C3B 5219  17.860  11.150  14.380
  218BOLB   C4B 5220  18.030  10.780  14.420
  218BOLB   NC2 5221  19.540   9.070  13.830
  218BOLB   PO2 5222  19.350   9.520  13.870
  218BOLB   GL3 5223  19.050   9.710  13.920
  218BOLB   GL4 5224  19.080  10.020  13.960
  218BOLB   C1C 5225  18.610   9.730  13.950
  218BOLB   C2C 5226  18.200   9.920  13.980
  218BOLB   C3C 5227  17.950  10.210  14.240
  218BOLB   C4C 5228  17.670  10.570  14.200
  218BOLB   C1D 5229  18.930  10.360  14.110
  218BOLB   C2D 5230  18.780  10.520  14.410
  218BOLB   C3D 5231  18.450  10.710  14.610
  218BOLB   C4D 5232  18.230  11.090  14.740
  219BOLB   NC1 5233  11.490  24.180  21.680
  219BOLB   PO1 5234  11.670  23.990  21.960
  219BOLB   GL1 5235  11.720  24.140  22.330
  219BOLB   GL2 5236  12.050  24.160  22.310
  219BOLB   C1A 5237  11.510  24.390  22.660
  219BOLB   C2A 5238  11.290  24.670  22.960
  219BOLB   C3A 5239  11.170  25.110  23.110
  219BOLB   C4A 5240  11.380  25.470  23.060
  219BOLB   C1B 5241  12.070  24.380  22.780
  219BOLB   C2B 5242  11.860  24.540  23.090
  219BOLB   C3B 5243  11.580  24.570  23.350
  219BOLB   C4B 5244  11.310  24.810  23.520
  219BOLB   NC2 5245  11.620  27.480  24.740
  219BOLB   PO2 5246  11.970  27.190  24.520
  219BOLB   GL3 5247  11.980  26.910  24.250
  219BOLB   GL4 5248  11.930  26.630  24.460
  219BOLB   C1C 5249  11.810  26.670  23.950
  219BOLB   C2C 5250  11.530  26.270  23.910
  219BOLB   C3C 5251  11.400  25.870  23.660
  219BOLB   C4C 5252  11.510  25.820  23.230
  219BOLB   C1D 5253  11.820  26.250  24.280
  219BOLB   C2D 5254  11.590  25.830  24.170
  219BOLB   C3D 5255  11.370  25.490  24.040
  219BOLB   C4D 5256  11.510  25.050  23.950
  220BOLB   NC1 5257  12.010  11.840  18.610
  220BOLB   PO1 5258  12.390  11.740  18.440
  220BOLB   GL1 5259  12.160  11.300  18.580
  220BOLB   GL2 5260  12.370  11.380  18.870
  220BOLB   C1A 5261  12.360  10.870  18.590
  220BOLB   C2A 5262  12.460  10.410  18.770
  220BOLB   C3A 5263  12.740  10.230  19.090
  220BOLB   C4A 5264  12.740   9.930  19.160
  220BOLB   C1B 5265  12.290  11.000  19.110
  220BOLB   C2B 5266  12.290  10.580  19.180
  220BOLB   C3B 5267  12.270  10.220  19.410
  220BOLB   C4B 5268  12.180   9.930  19.710
  220BOLB   NC2 5269  13.410   7.790  20.370
  220BOLB   PO2 5270  13.100   7.900  19.960
  220BOLB   GL3 5271  13.210   8.200  19.670
  220BOLB   GL4 5272  13.490   8.440  19.680
  220BOLB   C1C 5273  12.930   8.480  19.730
  220BOLB   C2C 5274  12.820   8.920  19.740
  220BOLB   C3C 5275  12.800   9.350  19.570
  220BOLB   C4C 5276  12.820   9.560  19.210
  220BOLB   C1D 5277  13.730   8.860  19.550
  220BOLB   C2D 5278  13.570   9.310  19.440
  220BOLB   C3D 5279  13.350   9.370  19.060
  220BOLB   C4D 5280  13.130   9.770  18.850
  221BOLB   NC1 5281  16.690  14.930   9.540
  221BOLB   PO1 5282  16.910  14.650   9.550
  221BOLB   GL1 5283  17.260  14.490   9.220
  221BOLB   GL2 5284  17.310  14.690   8.960
  221BOLB   C1A 5285  17.470  14.170   8.890
  221BOLB   C2A 5286  17.500  14.110   8.480
  221BOLB   C3A 5287  17.450  13.840   8.160
  221BOLB   C4A 5288  17.280  13.810   7.710
  221BOLB   C1B 5289  17.470  14.690   8.590
  221BOLB   C2B 5290  17.840  14.800   8.510
  221BOLB   C3B 5291  18.240  14.830   8.440
  221BOLB   C4B 5292  18.540  14.610   8.380
  221BOLB   NC2 5293  17.410  12.990   5.420
  221BOLB   PO2 5294  17.640  12.910   5.660
  221BOLB   GL3 5295  17.520  13.170   6.000
  221BOLB   GL4 5296  17.680  13.140   6.330
  221BOLB   C1C 5297  17.260  13.080   6.250
  221BOLB   C2C 5298  17.160  13.180   6.700
  221BOLB   C3C 5299  17.280  13.350   7.000
  221BOLB   C4C 5300  17.250  13.820   7.280
  221BOLB   C1D 5301  17.490  13.490   6.450
  221BOLB   C2D 5302  17.220  13.730   6.560
  221BOLB   C3D 5303  16.930  13.750   6.860
  221BOLB   C4D 5304  16.730  13.960   7.180
  222BOLB   NC1 5305  14.370  21.970  20.970
  222BOLB   PO1 5306  14.290  21.670  21.280
  222BOLB   GL1 5307  14.500  21.820  21.640
  222BOLB   GL2 5308  14.320  21.940  21.870
  222BOLB   C1A 5309  14.750  21.910  22.070
  222BOLB   C2A 5310  15.080  21.960  22.390
  222BOLB   C3A 5311  15.420  21.980  22.690
  222BOLB   C4A 5312  15.650  21.910  23.040
  222BOLB   C1B 5313  14.460  22.320  22.080
  222BOLB   C2B 5314  14.640  22.270  22.490
  222BOLB   C3B 5315  14.860  22.320  22.810
  222BOLB   C4B 5316  14.820  22.600  23.250
  222BOLB   NC2 5317  16.360  22.300  25.450
  222BOLB   PO2 5318  16.670  22.170  25.160
  222BOLB   GL3 5319  16.360  21.970  24.970
  222BOLB   GL4 5320  15.970  22.040  25.150
  222BOLB   C1C 5321  16.240  22.110  24.540
  222BOLB   C2C 5322  15.910  22.350  24.280
  222BOLB   C3C 5323  15.930  22.300  23.840
  222BOLB   C4C 5324  15.650  22.150  23.460
  222BOLB   C1D 5325  15.870  21.740  24.750
  222BOLB   C2D 5326  15.970  21.720  24.320
  222BOLB   C3D 5327  16.060  21.490  23.980
  222BOLB   C4D 5328  16.220  21.320  23.710
  223BOLB   NC1 5329   2.880  15.080  14.520
  223BOLB   PO1 5330   3.020  14.600  14.270
  223BOLB   GL1 5331   2.630  14.510  14.310
  223BOLB   GL2 5332   2.440  14.220  14.350
  223BOLB   C1A 5333   2.120  14.620  14.290
  223BOLB   C2A 5334   1.710  14.440  14.210
  223BOLB   C3A 5335   1.330  14.320  14.110
  223BOLB   C4A 5336   1.010  14.330  13.860
  223BOLB   C1B 5337   2.040  14.090  14.250
  223BOLB   C2B 5338   1.700  13.890  14.460
  223BOLB   C3B 5339   1.600  13.670  14.830
  223BOLB   C4B 5340   1.780  13.810  15.150
  223BOLB   NC2 5341  35.290  13.270  13.300
  223BOLB   PO2 5342  35.190  13.650  13.470
  223BOLB   GL3 5343  35.540  13.530  13.670
  223BOLB   GL4 5344  35.660  13.190  13.600
  223BOLB   C1C 5345  35.850  13.780  13.840
  223BOLB   C2C 5346  36.250  13.930  13.780
  223BOLB   C3C 5347   0.310  14.000  13.700
  223BOLB   C4C 5348   0.710  14.150  13.590
  223BOLB   C1D 5349  36.030  13.430  13.480
  223BOLB   C2D 5350   0.030  13.620  13.420
  223BOLB   C3D 5351   0.360  13.800  13.170
  223BOLB   C4D 5352   0.670  14.150  13.110
  224BOLB   NC1 5353   7.750  22.280  22.710
  224BOLB   PO1 5354   7.370  22.180  23.010
  224BOLB   GL1 5355   6.970  22.460  22.960
  224BOLB   GL2 5356   7.060  22.720  23.160
  224BOLB   C1A 5357   6.600  22.560  23.310
  224BOLB   C2A 5358   6.210  22.490  23.420
  224BOLB   C3A 5359   5.900  22.770  23.390
  224BOLB   C4A 5360   5.900  22.990  23.690
  224BOLB   C1B 5361   6.750  23.150  23.160
  224BOLB   C2B 5362   6.480  23.440  23.390
  224BOLB   C3B 5363   6.220  23.400  23.790
  224BOLB   C4B 5364   6.220  23.780  24.050
  224BOLB   NC2 5365   5.960  24.680  25.630
  224BOLB   PO2 5366   5.620  24.740  25.440
  224BOLB   GL3 5367   5.550  24.600  25.050
  224BOLB   GL4 5368   5.510  24.730  24.860
  224BOLB   C1C 5369   5.750  24.240  24.920
  224BOLB   C2C 5370   5.600  23.790  24.650
  224BOLB   C3C 5371   5.870  23.520  24.380
  224BOLB   C4C 5372   5.920  23.150  24.120
  224BOLB   C1D 5373   5.630  24.500  24.510
  224BOLB   C2D 5374   5.470  24.170  24.310
  224BOLB   C3D 5375   5.310  24.200  23.860
  224BOLB   C4D 5376   5.420  23.800  23.560
  225BOLB   NC1 5377   8.950  15.190  20.820
  225BOLB   PO1 5378   8.750  15.510  21.050
  225BOLB   GL1 5379   8.610  15.290  21.430
  225BOLB   GL2 5380   8.660  15.000  21.550
  225BOLB   C1A 5381   8.540  15.240  21.920
  225BOLB   C2A 5382   8.320  15.120  22.360
  225BOLB   C3A 5383   8.070  14.910  22.730
  225BOLB   C4A 5384   7.710  14.520  22.670
  225BOLB   C1B 5385   8.690  14.720  21.930
  225BOLB   C2B 5386   8.600  14.300  22.090
  225BOLB   C3B 5387   8.640  13.860  22.160
  225BOLB   C4B 5388   8.510  13.430  22.200
  225BOLB   NC2 5389   6.970  12.770  24.360
  225BOLB   PO2 5390   7.130  13.080  24.470
  225BOLB   GL3 5391   7.250  13.430  24.200
  225BOLB   GL4 5392   7.610  13.480  24.330
  225BOLB   C1C 5393   7.380  13.840  23.940
  225BOLB   C2C 5394   7.380  14.160  23.510
  225BOLB   C3C 5395   7.380  14.410  23.240
  225BOLB   C4C 5396   7.380  14.500  22.940
  225BOLB   C1D 5397   7.970  13.730  24.180
  225BOLB   C2D 5398   7.850  14.100  23.960
  225BOLB   C3D 5399   7.460  14.420  23.870
  225BOLB   C4D 5400   7.020  14.540  23.700
  226BOLB   NC1 5401   9.290  17.630  22.790
  226BOLB   PO1 5402   9.740  17.760  22.650
  226BOLB   GL1 5403   9.750  17.550  22.950
  226BOLB   GL2 5404  10.020  17.290  22.870
  226BOLB   C1A 5405   9.680  17.410  23.360
  226BOLB   C2A 5406   9.550  17.330  23.720
  226BOLB   C3A 5407   9.560  17.290  24.140
  226BOLB   C4A 5408   9.490  17.440  24.520
  226BOLB   C1B 5409   9.980  17.050  23.270
  226BOLB   C2B 5410   9.850  16.890  23.630
  226BOLB   C3B 5411   9.440  16.740  23.810
  226BOLB   C4B 5412   9.180  16.400  23.840
  226BOLB   NC2 5413   9.930  17.620  27.000
  226BOLB   PO2 5414   9.730  17.920  26.850
  226BOLB   GL3 5415   9.700  17.940  26.410
  226BOLB   GL4 5416  10.020  18.050  26.300
  226BOLB   C1C 5417   9.400  17.970  26.100
  226BOLB   C2C 5418   9.320  17.940  25.700
  226BOLB   C3C 5419   9.190  17.770  25.400
  226BOLB   C4C 5420   9.350  17.650  24.960
  226BOLB   C1D 5421   9.850  18.250  25.920
  226BOLB   C2D 5422   9.900  18.580  25.630
  226BOLB   C3D 5423   9.680  18.700  25.110
  226BOLB   C4D 5424   9.220  18.600  25.110
  227BOLB   NC1 5425  13.890  16.230  21.200
  227BOLB   PO1 5426  13.640  16.370  21.560
  227BOLB   GL1 5427  13.720  16.340  21.940
  227BOLB   GL2 5428  13.940  16.650  22.010
  227BOLB   C1A 5429  14.070  16.190  22.160
  227BOLB   C2A 5430  14.250  16.260  22.630
  227BOLB   C3A 5431  14.510  16.090  22.850
  227BOLB   C4A 5432  14.860  16.010  22.930
  227BOLB   C1B 5433  13.870  16.560  22.420
  227BOLB   C2B 5434  13.800  16.330  22.880
  227BOLB   C3B 5435  14.070  16.070  23.230
  227BOLB   C4B 5436  14.100  15.760  23.500
  227BOLB   NC2 5437  16.370  15.560  25.350
  227BOLB   PO2 5438  16.090  15.860  25.150
  227BOLB   GL3 5439  15.940  15.610  24.650
  227BOLB   GL4 5440  16.190  15.490  24.350
  227BOLB   C1C 5441  15.700  15.800  24.310
  227BOLB   C2C 5442  15.760  15.910  23.870
  227BOLB   C3C 5443  15.600  15.820  23.420
  227BOLB   C4C 5444  15.290  15.830  23.190
  227BOLB   C1D 5445  16.070  15.370  23.970
  227BOLB   C2D 5446  15.900  15.510  23.630
  227BOLB   C3D 5447  15.860  15.450  23.190
  227BOLB   C4D 5448  15.770  15.370  22.690
  228BOLB   NC1 5449   4.180  25.760  16.880
  228BOLB   PO1 5450   4.580  25.800  17.080
  228BOLB   GL1 5451   4.400  26.180  17.170
  228BOLB   GL2 5452   4.190  26.280  16.880
  228BOLB   C1A 5453   4.050  26.340  17.330
  228BOLB   C2A 5454   3.900  26.640  17.540
  228BOLB   C3A 5455   3.900  26.990  17.820
  228BOLB   C4A 5456   3.880  27.440  17.880
  228BOLB   C1B 5457   3.790  26.550  16.930
  228BOLB   C2B 5458   3.780  26.910  17.080
  228BOLB   C3B 5459   3.700  27.240  17.300
  228BOLB   C4B 5460   3.450  27.470  17.700
  228BOLB   NC2 5461   1.950  29.430  18.180
  228BOLB   PO2 5462   2.240  29.340  18.470
  228BOLB   GL3 5463   2.590  29.150  18.280
  228BOLB   GL4 5464   2.470  28.790  18.140
  228BOLB   C1C 5465   3.030  28.720  18.290
  228BOLB   C2C 5466   3.290  28.410  18.000
  228BOLB   C3C 5467   3.550  28.150  17.700
  228BOLB   C4C 5468   3.940  27.830  17.720
  228BOLB   C1D 5469   2.810  28.560  17.850
  228BOLB   C2D 5470   3.010  28.160  17.660
  228BOLB   C3D 5471   3.300  27.790  17.410
  228BOLB   C4D 5472   3.490  27.730  17.160
  229BOLB   NC1 5473   6.380  13.880  18.550
  229BOLB   PO1 5474   6.130  14.110  18.750
  229BOLB   GL1 5475   6.350  13.800  19.040
  229BOLB   GL2 5476   6.060  13.590  18.960
  229BOLB   C1A 5477   6.420  13.440  19.380
  229BOLB   C2A 5478   6.290  13.090  19.660
  229BOLB   C3A 5479   6.220  12.780  19.990
  229BOLB   C4A 5480   6.050  12.530  20.400
  229BOLB   C1B 5481   5.830  13.220  18.860
  229BOLB   C2B 5482   5.320  13.130  18.850
  229BOLB   C3B 5483   5.260  12.730  19.150
  229BOLB   C4B 5484   4.990  12.500  19.490
  229BOLB   NC2 5485   5.260  10.730  22.050
  229BOLB   PO2 5486   5.590  10.420  21.800
  229BOLB   GL3 5487   5.560  10.710  21.410
  229BOLB   GL4 5488   5.760  10.820  21.240
  229BOLB   C1C 5489   5.440  11.230  21.300
  229BOLB   C2C 5490   5.740  11.570  21.230
  229BOLB   C3C 5491   6.030  11.970  21.080
  229BOLB   C4C 5492   6.120  12.150  20.690
  229BOLB   C1D 5493   5.540  11.130  20.850
  229BOLB   C2D 5494   5.480  11.590  20.780
  229BOLB   C3D 5495   5.510  11.980  20.970
  229BOLB   C4D 5496   5.690  12.330  21.000
  230BOLB   NC1 5497  19.750  19.480  14.610
  230BOLB   PO1 5498  19.590  19.000  14.510
  230BOLB   GL1 5499  20.070  19.100  14.540
  230BOLB   GL2 5500  20.220  18.980  14.770
  230BOLB   C1A 5501  20.520  19.230  14.460
  230BOLB   C2A 5502  20.970  19.310  14.400
  230BOLB   C3A 5503  21.360  19.470  14.510
  230BOLB   C4A 5504  21.680  19.290  14.670
  230BOLB   C1B 5505  20.700  18.920  14.840
  230BOLB   C2B 5506  21.110  19.040  14.800
  230BOLB   C3B 5507  21.480  18.880  14.910
  230BOLB   C4B 5508  21.740  18.620  14.920
  230BOLB   NC2 5509  23.690  18.690  15.030
  230BOLB   PO2 5510  23.630  18.870  15.450
  230BOLB   GL3 5511  23.210  18.720  15.670
  230BOLB   GL4 5512  22.910  18.960  15.880
  230BOLB   C1C 5513  22.830  18.520  15.600
  230BOLB   C2C 5514  22.420  18.680  15.430
  230BOLB   C3C 5515  22.230  18.780  15.110
  230BOLB   C4C 5516  22.000  19.060  14.870
  230BOLB   C1D 5517  22.450  18.910  15.850
  230BOLB   C2D 5518  22.160  19.090  15.600
  230BOLB   C3D 5519  22.070  19.490  15.380
  230BOLB   C4D 5520  22.290  19.550  14.980
  231BOLB   NC1 5521   9.040  27.260  17.320
  231BOLB   PO1 5522   8.670  27.040  17.290
  231BOLB   GL1 5523   8.550  27.550  17.360
  231BOLB   GL2 5524   8.900  27.780  17.480
  231BOLB   C1A 5525   8.430  27.950  17.260
  231BOLB   C2A 5526   8.350  28.260  17.060
  231BOLB   C3A 5527   8.560  28.570  16.940
  231BOLB   C4A 5528   8.960  28.790  17.010
  231BOLB   C1B 5529   9.030  28.160  17.860
  231BOLB   C2B 5530   9.130  28.500  18.080
  231BOLB   C3B 5531   9.250  28.770  18.110
  231BOLB   C4B 5532   9.430  29.180  18.230
  231BOLB   NC2 5533   9.940  30.960  18.040
  231BOLB   PO2 5534   9.910  31.030  17.670
  231BOLB   GL3 5535   9.630  30.690  17.690
  231BOLB   GL4 5536   9.340  30.760  17.670
  231BOLB   C1C 5537   9.510  30.270  17.570
  231BOLB   C2C 5538   9.430  29.810  17.550
  231BOLB   C3C 5539   9.430  29.390  17.330
  231BOLB   C4C 5540   9.250  28.900  17.260
  231BOLB   C1D 5541   9.300  30.680  17.320
  231BOLB   C2D 5542   9.600  30.330  17.040
  231BOLB   C3D 5543   9.870  30.000  16.870
  231BOLB   C4D 5544  10.020  29.700  16.710
  232BOLB   NC1 5545  12.410  16.250  21.560
  232BOLB   PO1 5546  11.950  16.320  21.740
  232BOLB   GL1 5547  12.050  16.160  22.120
  232BOLB   GL2 5548  12.300  16.240  22.080
  232BOLB   C1A 5549  11.910  16.200  22.470
  232BOLB   C2A 5550  12.020  16.060  22.930
  232BOLB   C3A 5551  12.060  15.870  23.260
  232BOLB   C4A 5552  12.250  15.680  23.570
  232BOLB   C1B 5553  12.560  15.940  22.350
  232BOLB   C2B 5554  12.440  15.780  22.830
  232BOLB   C3B 5555  12.410  15.380  23.090
  232BOLB   C4B 5556  12.220  15.200  23.380
  232BOLB   NC2 5557  11.830  14.020  25.360
  232BOLB   PO2 5558  11.520  14.130  25.680
  232BOLB   GL3 5559  11.580  14.390  25.180
  232BOLB   GL4 5560  11.520  14.210  24.900
  232BOLB   C1C 5561  11.700  14.650  24.830
  232BOLB   C2C 5562  11.760  14.810  24.320
  232BOLB   C3C 5563  11.940  15.060  24.040
  232BOLB   C4C 5564  12.040  15.470  23.900
  232BOLB   C1D 5565  11.410  14.360  24.450
  232BOLB   C2D 5566  11.400  14.370  24.000
  232BOLB   C3D 5567  11.420  14.180  23.550
  232BOLB   C4D 5568  11.410  13.840  23.340
  233BOLB   NC1 5569   5.320  22.570  21.070
  233BOLB   PO1 5570   5.480  22.930  21.340
  233BOLB   GL1 5571   5.220  22.890  21.710
  233BOLB   GL2 5572   5.310  22.820  21.990
  233BOLB   C1A 5573   5.050  23.300  22.000
  233BOLB   C2A 5574   5.160  23.620  22.320
  233BOLB   C3A 5575   5.360  23.850  22.540
  233BOLB   C4A 5576   5.150  24.240  22.770
  233BOLB   C1B 5577   5.080  22.710  22.310
  233BOLB   C2B 5578   4.860  22.800  22.880
  233BOLB   C3B 5579   4.670  22.970  23.220
  233BOLB   C4B 5580   4.280  23.090  23.250
  233BOLB   NC2 5581   4.010  25.790  24.300
  233BOLB   PO2 5582   3.980  26.190  24.090
  233BOLB   GL3 5583   4.260  25.910  23.870
  233BOLB   GL4 5584   4.490  25.800  23.970
  233BOLB   C1C 5585   4.380  25.670  23.500
  233BOLB   C2C 5586   4.520  25.340  23.250
  233BOLB   C3C 5587   4.660  24.890  23.040
  233BOLB   C4C 5588   5.040  24.610  23.050
  233BOLB   C1D 5589   4.720  25.340  23.760
  233BOLB   C2D 5590   4.610  24.910  23.500
  233BOLB   C3D 5591   4.600  24.490  23.420
  233BOLB   C4D 5592   4.650  24.210  23.160
  234BOLB   NC1 5593  19.560  17.990  14.080
  234BOLB   PO1 5594  19.920  17.710  13.970
  234BOLB   GL1 5595  20.360  17.800  14.020
  234BOLB   GL2 5596  20.480  17.570  14.220
  234BOLB   C1A 5597  20.860  17.870  13.950
  234BOLB   C2A 5598  21.290  17.960  14.120
  234BOLB   C3A 5599  21.540  17.950  14.560
  234BOLB   C4A 5600  21.700  17.660  14.850
  234BOLB   C1B 5601  20.840  17.460  14.170
  234BOLB   C2B 5602  21.240  17.250  14.230
  234BOLB   C3B 5603  21.620  17.520  14.250
  234BOLB   C4B 5604  21.820  17.820  14.080
  234BOLB   NC2 5605  23.970  17.870  15.060
  234BOLB   PO2 5606  23.780  18.180  14.970
  234BOLB   GL3 5607  23.440  18.100  14.880
  234BOLB   GL4 5608  23.360  17.830  14.720
  234BOLB   C1C 5609  23.060  18.260  14.620
  234BOLB   C2C 5610  22.800  17.940  14.670
  234BOLB   C3C 5611  22.460  17.780  15.010
  234BOLB   C4C 5612  22.110  17.620  14.920
  234BOLB   C1D 5613  23.070  17.730  15.050
  234BOLB   C2D 5614  22.910  18.140  15.280
  234BOLB   C3D 5615  22.920  18.500  15.090
  234BOLB   C4D 5616  22.970  18.960  15.080
  235BOLB   NC1 5617  18.350  14.950  16.750
  235BOLB   PO1 5618  18.330  15.080  17.190
  235BOLB   GL1 5619  18.660  14.870  17.340
  235BOLB   GL2 5620  18.850  15.100  17.540
  235BOLB   C1A 5621  18.950  14.500  17.260
  235BOLB   C2A 5622  19.080  14.200  16.880
  235BOLB   C3A 5623  19.310  13.720  16.870
  235BOLB   C4A 5624  19.530  13.400  17.160
  235BOLB   C1B 5625  19.060  14.730  17.740
  235BOLB   C2B 5626  19.250  14.320  17.710
  235BOLB   C3B 5627  19.460  13.950  17.670
  235BOLB   C4B 5628  19.760  13.590  17.640
  235BOLB   NC2 5629  21.560  11.960  18.320
  235BOLB   PO2 5630  21.490  12.010  17.820
  235BOLB   GL3 5631  21.130  12.180  17.860
  235BOLB   GL4 5632  20.930  12.050  17.690
  235BOLB   C1C 5633  20.930  12.540  17.960
  235BOLB   C2C 5634  20.510  12.660  17.970
  235BOLB   C3C 5635  20.070  12.850  17.780
  235BOLB   C4C 5636  19.880  13.140  17.380
  235BOLB   C1D 5637  20.510  12.140  17.760
  235BOLB   C2D 5638  20.260  12.360  17.490
  235BOLB   C3D 5639  20.290  12.740  17.340
  235BOLB   C4D 5640  20.260  12.720  16.840
  236BOLB   NC1 5641  15.800  11.170  22.750
  236BOLB   PO1 5642  15.350  11.090  22.520
  236BOLB   GL1 5643  14.970  11.230  22.210
  236BOLB   GL2 5644  14.740  10.990  22.090
  236BOLB   C1A 5645  14.690  11.440  21.930
  236BOLB   C2A 5646  14.360  11.730  21.780
  236BOLB   C3A 5647  14.280  11.920  21.430
  236BOLB   C4A 5648  14.470  11.870  21.010
  236BOLB   C1B 5649  14.490  10.820  21.760
  236BOLB   C2B 5650  14.250  11.100  21.590
  236BOLB   C3B 5651  14.050  11.460  21.440
  236BOLB   C4B 5652  13.820  11.760  21.250
  236BOLB   NC2 5653  15.050  10.150  22.160
  236BOLB   PO2 5654  15.410  10.450  22.010
  236BOLB   GL3 5655  15.390  10.750  21.640
  236BOLB   GL4 5656  15.140  11.040  21.740
  236BOLB   C1C 5657  15.340  10.950  21.230
  236BOLB   C2C 5658  15.200  11.180  20.900
  236BOLB   C3C 5659  15.010  11.430  20.530
  236BOLB   C4C 5660  14.730  11.660  20.710
  236BOLB   C1D 5661  14.800  11.150  21.550
  236BOLB   C2D 5662  14.630  11.440  21.390
  236BOLB   C3D 5663  14.800  11.830  21.560
  236BOLB   C4D 5664  15.090  12.040  21.780
  237BOLB   NC1 5665   7.250  21.140  22.820
  237BOLB   PO1 5666   7.480  21.620  22.990
  237BOLB   GL1 5667   7.690  21.550  23.370
  237BOLB   GL2 5668   7.570  21.280  23.510
  237BOLB   C1A 5669   7.570  21.800  23.730
  237BOLB   C2A 5670   7.270  22.010  23.970
  237BOLB   C3A 5671   7.190  22.280  24.010
  237BOLB   C4A 5672   7.110  22.570  24.240
  237BOLB   C1B 5673   7.430  21.210  24.000
  237BOLB   C2B 5674   7.560  21.230  24.420
  237BOLB   C3B 5675   7.460  20.990  24.730
  237BOLB   C4B 5676   7.120  20.650  24.710
  237BOLB   NC2 5677   7.550  24.670  25.800
  237BOLB   PO2 5678   7.140  24.370  25.910
  237BOLB   GL3 5679   7.330  24.100  25.610
  237BOLB   GL4 5680   7.510  24.260  25.520
  237BOLB   C1C 5681   7.250  23.800  25.420
  237BOLB   C2C 5682   7.460  23.540  25.000
  237BOLB   C3C 5683   7.210  23.110  24.880
  237BOLB   C4C 5684   7.130  22.660  24.660
  237BOLB   C1D 5685   7.140  24.460  25.290
  237BOLB   C2D 5686   7.080  24.520  24.900
  237BOLB   C3D 5687   6.860  24.480  24.420
  237BOLB   C4D 5688   6.790  24.720  24.000
  238BOLB   NC1 5689  10.490  17.450  22.230
  238BOLB   PO1 5690  10.300  17.220  22.020
  238BOLB   GL1 5691  10.400  16.910  22.360
  238BOLB   GL2 5692  10.250  17.010  22.560
  238BOLB   C1A 5693  10.720  16.920  22.770
  238BOLB   C2A 5694  10.670  16.750  23.190
  238BOLB   C3A 5695  10.770  16.690  23.630
  238BOLB   C4A 5696  10.990  16.610  24.000
  238BOLB   C1B 5697  10.220  16.730  22.960
  238BOLB   C2B 5698  10.230  16.590  23.470
  238BOLB   C3B 5699  10.140  16.400  23.900
  238BOLB   C4B 5700   9.670  16.260  23.940
  238BOLB   NC2 5701  12.020  15.490  26.050
  238BOLB   PO2 5702  11.900  15.970  26.220
  238BOLB   GL3 5703  11.860  16.080  25.710
  238BOLB   GL4 5704  11.850  15.780  25.610
  238BOLB   C1C 5705  11.780  16.290  25.380
  238BOLB   C2C 5706  11.510  16.450  25.130
  238BOLB   C3C 5707  11.340  16.530  24.810
  238BOLB   C4C 5708  10.990  16.600  24.480
  238BOLB   C1D 5709  12.130  15.930  25.280
  238BOLB   C2D 5710  12.510  15.940  25.420
  238BOLB   C3D 5711  12.710  16.350  25.130
  238BOLB   C4D 5712  12.760  16.780  24.740
  239BOLB   NC1 5713  15.660  25.490  18.560
  239BOLB   PO1 5714  15.440  25.740  18.840
  239BOLB   GL1 5715  15.610  26.070  19.090
  239BOLB   GL2 5716  15.440  25.890  19.300
  239BOLB   C1A 5717  16.000  26.260  19.170
  239BOLB   C2A 5718  16.350  26.340  19.320
  239BOLB   C3A 5719  16.740  26.530  19.600
  239BOLB   C4A 5720  17.180  26.470  19.660
  239BOLB   C1B 5721  15.820  25.920  19.540
  239BOLB   C2B 5722  15.820  26.140  19.890
  239BOLB   C3B 5723  15.760  26.510  20.070
  239BOLB   C4B 5724  15.770  26.760  20.470
  239BOLB   NC2 5725  18.200  28.530  20.490
  239BOLB   PO2 5726  18.140  28.560  20.080
  239BOLB   GL3 5727  17.960  28.270  19.920
  239BOLB   GL4 5728  17.920  28.160  20.230
  239BOLB   C1C 5729  17.990  27.810  19.850
  239BOLB   C2C 5730  17.990  27.330  19.810
  239BOLB   C3C 5731  17.670  27.070  19.950
  239BOLB   C4C 5732  17.570  26.610  19.800
  239BOLB   C1D 5733  17.550  28.010  20.190
  239BOLB   C2D 5734  17.100  27.740  20.030
  239BOLB   C3D 5735  16.710  27.600  19.960
  239BOLB   C4D 5736  16.580  27.270  19.940
  240BOLB   NC1 5737  13.370  14.670   7.700
  240BOLB   PO1 5738  13.660  14.320   7.800
  240BOLB   GL1 5739  13.720  13.990   7.650
  240BOLB   GL2 5740  13.760  14.080   7.330
  240BOLB   C1A 5741  13.690  13.580   7.540
  240BOLB   C2A 5742  14.090  13.310   7.480
  240BOLB   C3A 5743  14.240  12.910   7.580
  240BOLB   C4A 5744  14.440  12.600   7.510
  240BOLB   C1B 5745  13.940  13.750   7.080
  240BOLB   C2B 5746  14.240  13.400   7.040
  240BOLB   C3B 5747  14.560  13.110   7.250
  240BOLB   C4B 5748  14.740  12.980   7.600
  240BOLB   NC2 5749  15.910  10.370   7.500
  240BOLB   PO2 5750  15.700  10.550   7.200
  240BOLB   GL3 5751  15.550  10.970   7.290
  240BOLB   GL4 5752  15.690  11.110   7.100
  240BOLB   C1C 5753  15.220  11.260   7.500
  240BOLB   C2C 5754  15.100  11.580   7.280
  240BOLB   C3C 5755  14.990  11.910   7.540
  240BOLB   C4C 5756  14.540  12.090   7.530
  240BOLB   C1D 5757  15.180  11.100   7.020
  240BOLB   C2D 5758  14.750  11.220   7.130
  240BOLB   C3D 5759  14.360  11.540   7.330
  240BOLB   C4D 5760  13.990  11.750   7.170
  241BOLB   NC1 5761  12.910  12.580  18.950
  241BOLB   PO1 5762  12.510  12.640  19.020
  241BOLB   GL1 5763  12.240  12.500  19.380
  241BOLB   GL2 5764  12.340  12.780  19.590
  241BOLB   C1A 5765  12.060  12.170  19.740
  241BOLB   C2A 5766  12.120  12.010  20.150
  241BOLB   C3A 5767  12.350  11.920  20.490
  241BOLB   C4A 5768  12.230  11.640  20.820
  241BOLB   C1B 5769  12.310  12.520  19.860
  241BOLB   C2B 5770  12.020  12.500  20.130
  241BOLB   C3B 5771  11.970  12.390  20.500
  241BOLB   C4B 5772  12.360  12.410  20.800
  241BOLB   NC2 5773  12.020  10.600  22.880
  241BOLB   PO2 5774  11.640  10.360  22.770
  241BOLB   GL3 5775  11.620  10.380  22.250
  241BOLB   GL4 5776  11.360  10.440  22.030
  241BOLB   C1C 5777  11.840  10.640  21.940
  241BOLB   C2C 5778  11.940  10.720  21.530
  241BOLB   C3C 5779  12.180  11.090  21.300
  241BOLB   C4C 5780  12.120  11.320  21.000
  241BOLB   C1D 5781  11.320  10.770  21.680
  241BOLB   C2D 5782  11.220  11.230  21.690
  241BOLB   C3D 5783  11.290  11.500  21.230
  241BOLB   C4D 5784  11.510  11.900  21.280
  242BOLB   NC1 5785  16.860  13.020  16.410
  242BOLB   PO1 5786  16.880  12.560  16.240
  242BOLB   GL1 5787  17.080  12.270  16.410
  242BOLB   GL2 5788  17.110  12.090  16.110
  242BOLB   C1A 5789  17.410  12.260  16.500
  242BOLB   C2A 5790  17.640  12.220  16.910
  242BOLB   C3A 5791  18.050  12.160  17.030
  242BOLB   C4A 5792  18.240  11.870  17.320
  242BOLB   C1B 5793  17.320  11.630  16.300
  242BOLB   C2B 5794  17.030  11.240  16.250
  242BOLB   C3B 5795  17.150  10.840  16.320
  242BOLB   C4B 5796  17.380  10.370  16.330
  242BOLB   NC2 5797  19.310   9.560  17.730
  242BOLB   PO2 5798  18.870   9.380  17.840
  242BOLB   GL3 5799  18.800   9.850  17.680
  242BOLB   GL4 5800  18.550  10.040  17.820
  242BOLB   C1C 5801  18.950  10.400  17.650
  242BOLB   C2C 5802  18.780  10.840  17.520
  242BOLB   C3C 5803  18.420  11.090  17.640
  242BOLB   C4C 5804  18.410  11.590  17.600
  242BOLB   C1D 5805  18.240  10.210  17.450
  242BOLB   C2D 5806  18.240  10.170  17.050
  242BOLB   C3D 5807  17.920  10.460  17.050
  242BOLB   C4D 5808  17.600  10.750  16.850
  243BOLB   NC1 5809   6.560  12.620  15.870
  243BOLB   PO1 5810   6.640  12.260  16.050
  243BOLB   GL1 5811   6.650  11.790  16.060
  243BOLB   GL2 5812   6.730  11.740  16.400
  243BOLB   C1A 5813   6.270  11.450  16.230
  243BOLB   C2A 5814   5.890  11.190  16.330
  243BOLB   C3A 5815   5.580  11.160  16.620
  243BOLB   C4A 5816   5.210  10.880  16.810
  243BOLB   C1B 5817   6.620  11.570  16.680
  243BOLB   C2B 5818   6.150  11.450  16.750
  243BOLB   C3B 5819   5.910  11.180  16.970
  243BOLB   C4B 5820   5.670  10.730  17.030
  243BOLB   NC2 5821   4.210   9.270  18.190
  243BOLB   PO2 5822   3.810   9.620  18.000
  243BOLB   GL3 5823   4.060   9.840  17.760
  243BOLB   GL4 5824   4.270   9.990  17.500
  243BOLB   C1C 5825   4.530  10.040  17.980
  243BOLB   C2C 5826   4.810  10.390  17.800
  243BOLB   C3C 5827   5.070  10.540  17.540
  243BOLB   C4C 5828   5.170  10.570  17.140
  243BOLB   C1D 5829   4.250  10.440  17.520
  243BOLB   C2D 5830   4.180  10.990  17.550
  243BOLB   C3D 5831   4.480  11.200  17.420
  243BOLB   C4D 5832   4.290  11.680  17.310
  244BOLB   NC1 5833  18.570  14.580  15.970
  244BOLB   PO1 5834  18.520  14.690  16.370
  244BOLB   GL1 5835  18.600  14.200  16.340
  244BOLB   GL2 5836  18.640  14.030  16.640
  244BOLB   C1A 5837  19.060  14.000  16.370
  244BOLB   C2A 5838  19.490  14.050  16.520
  244BOLB   C3A 5839  19.920  13.940  16.540
  244BOLB   C4A 5840  20.310  14.120  16.440
  244BOLB   C1B 5841  18.850  13.650  16.660
  244BOLB   C2B 5842  19.100  13.320  16.630
  244BOLB   C3B 5843  19.470  13.130  16.680
  244BOLB   C4B 5844  19.730  12.950  16.940
  244BOLB   NC2 5845  22.630  13.490  15.940
  244BOLB   PO2 5846  22.450  13.340  15.580
  244BOLB   GL3 5847  22.050  13.360  15.730
  244BOLB   GL4 5848  22.090  13.290  16.040
  244BOLB   C1C 5849  21.820  13.660  15.680
  244BOLB   C2C 5850  21.570  13.910  15.980
  244BOLB   C3C 5851  21.140  13.990  16.150
  244BOLB   C4C 5852  20.700  14.140  16.240
  244BOLB   C1D 5853  21.660  13.410  16.080
  244BOLB   C2D 5854  21.280  13.410  15.880
  244BOLB   C3D 5855  20.930  13.590  15.990
  244BOLB   C4D 5856  20.570  13.650  16.130
  245BOLB   NC1 5857   6.440  26.690  17.960
  245BOLB   PO1 5858   6.670  26.640  18.190
  245BOLB   GL1 5859   6.420  26.970  18.430
  245BOLB   GL2 5860   6.160  27.080  18.310
  245BOLB   C1A 5861   6.370  27.380  18.710
  245BOLB   C2A 5862   6.180  27.810  18.620
  245BOLB   C3A 5863   5.810  28.070  18.750
  245BOLB   C4A 5864   5.510  28.390  18.570
  245BOLB   C1B 5865   5.960  27.300  18.510
  245BOLB   C2B 5866   5.770  27.540  18.720
  245BOLB   C3B 5867   5.400  27.750  18.920
  245BOLB   C4B 5868   5.430  28.230  19.060
  245BOLB   NC2 5869   4.570  30.640  18.580
  245BOLB   PO2 5870   4.380  30.330  18.830
  245BOLB   GL3 5871   4.660  30.050  18.550
  245BOLB   GL4 5872   4.400  29.960  18.410
  245BOLB   C1C 5873   4.780  29.570  18.570
  245BOLB   C2C 5874   5.190  29.440  18.870
  245BOLB   C3C 5875   5.410  29.150  18.800
  245BOLB   C4C 5876   5.560  28.800  18.650
  245BOLB   C1D 5877   4.270  29.570  18.350
  245BOLB   C2D 5878   4.470  29.190  18.550
  245BOLB   C3D 5879   4.580  28.830  18.720
  245BOLB   C4D 5880   4.900  28.570  18.670
  246BOLB   NC1 5881  12.040  23.680  22.140
  246BOLB   PO1 5882  12.370  23.810  21.840
  246BOLB   GL1 5883  12.560  23.820  22.280
  246BOLB   GL2 5884  12.710  23.610  22.380
  246BOLB   C1A 5885  12.330  23.970  22.680
  246BOLB   C2A 5886  12.420  24.120  23.000
  246BOLB   C3A 5887  12.340  24.420  23.190
  246BOLB   C4A 5888  12.040  24.390  23.570
  246BOLB   C1B 5889  12.900  23.850  22.770
  246BOLB   C2B 5890  13.190  23.910  23.220
  246BOLB   C3B 5891  13.240  23.830  23.640
  246BOLB   C4B 5892  13.560  23.770  23.860
  246BOLB   NC2 5893  11.800  24.980  25.650
  246BOLB   PO2 5894  11.410  25.030  25.470
  246BOLB   GL3 5895  11.530  24.630  25.350
  246BOLB   GL4 5896  11.650  24.450  25.600
  246BOLB   C1C 5897  11.380  24.400  25.020
  246BOLB   C2C 5898  11.460  24.190  24.570
  246BOLB   C3C 5899  11.790  24.250  24.240
  246BOLB   C4C 5900  11.980  24.200  23.940
  246BOLB   C1D 5901  11.670  24.120  25.340
  246BOLB   C2D 5902  11.420  23.820  25.010
  246BOLB   C3D 5903  11.070  23.520  25.150
  246BOLB   C4D 5904  10.690  23.350  25.060
  247BOLB   NC1 5905   7.740  23.120  22.560
  247BOLB   PO1 5906   7.350  22.800  22.470
  247BOLB   GL1 5907   7.390  23.180  22.920
  247BOLB   GL2 5908   7.670  23.310  23.090
  247BOLB   C1A 5909   7.410  23.680  23.070
  247BOLB   C2A 5910   7.470  23.810  23.470
  247BOLB   C3A 5911   7.380  23.880  23.890
  247BOLB   C4A 5912   7.650  23.970  24.190
  247BOLB   C1B 5913   7.310  23.150  23.370
  247BOLB   C2B 5914   6.960  23.000  23.610
  247BOLB   C3B 5915   6.760  23.200  23.800
  247BOLB   C4B 5916   6.980  23.490  24.050
  247BOLB   NC2 5917   7.710  23.560  26.750
  247BOLB   PO2 5918   7.700  24.030  26.490
  247BOLB   GL3 5919   7.670  24.080  25.990
  247BOLB   GL4 5920   7.880  24.220  25.820
  247BOLB   C1C 5921   7.710  23.760  25.710
  247BOLB   C2C 5922   7.800  23.650  25.400
  247BOLB   C3C 5923   7.800  23.900  25.030
  247BOLB   C4C 5924   7.620  23.790  24.620
  247BOLB   C1D 5925   8.190  23.980  25.510
  247BOLB   C2D 5926   8.280  23.970  25.040
  247BOLB   C3D 5927   8.290  23.810  24.640
  247BOLB   C4D 5928   8.260  23.570  24.240
  248BOLB   NC1 5929   4.090  23.490  19.600
  248BOLB   PO1 5930   4.010  23.620  20.000
  248BOLB   GL1 5931   3.690  23.850  20.320
  248BOLB   GL2 5932   3.570  23.980  20.030
  248BOLB   C1A 5933   3.590  24.220  20.550
  248BOLB   C2A 5934   3.260  24.220  20.860
  248BOLB   C3A 5935   3.240  24.380  21.340
  248BOLB   C4A 5936   3.000  24.570  21.570
  248BOLB   C1B 5937   3.260  24.120  20.210
  248BOLB   C2B 5938   3.030  24.480  20.410
  248BOLB   C3B 5939   3.100  24.680  20.890
  248BOLB   C4B 5940   3.360  24.820  21.330
  248BOLB   NC2 5941   2.470  25.580  23.680
  248BOLB   PO2 5942   2.110  25.610  23.420
  248BOLB   GL3 5943   2.410  25.600  23.050
  248BOLB   GL4 5944   2.530  25.340  23.260
  248BOLB   C1C 5945   2.640  25.450  22.760
  248BOLB   C2C 5946   2.700  25.040  22.540
  248BOLB   C3C 5947   2.920  24.810  22.270
  248BOLB   C4C 5948   3.100  24.890  21.880
  248BOLB   C1D 5949   2.790  25.120  23.070
  248BOLB   C2D 5950   3.160  25.220  22.880
  248BOLB   C3D 5951   3.570  25.060  22.960
  248BOLB   C4D 5952   3.810  24.700  22.740
  249BOLB   NC1 5953   4.630  25.580  13.570
  249BOLB   PO1 5954   4.750  26.050  13.710
  249BOLB   GL1 5955   4.410  26.250  13.730
  249BOLB   GL2 5956   4.200  26.470  13.950
  249BOLB   C1A 5957   4.210  26.510  13.410
  249BOLB   C2A 5958   3.790  26.780  13.310
  249BOLB   C3A 5959   3.700  27.080  13.410
  249BOLB   C4A 5960   3.780  27.540  13.250
  249BOLB   C1B 5961   4.010  26.800  13.800
  249BOLB   C2B 5962   3.750  27.160  13.890
  249BOLB   C3B 5963   3.640  27.590  13.760
  249BOLB   C4B 5964   3.350  27.850  13.520
  249BOLB   NC2 5965   2.940  29.350  13.000
  249BOLB   PO2 5966   2.920  29.510  13.370
  249BOLB   GL3 5967   3.130  29.140  13.590
  249BOLB   GL4 5968   3.130  28.970  13.340
  249BOLB   C1C 5969   3.570  29.110  13.510
  249BOLB   C2C 5970   3.870  28.800  13.480
  249BOLB   C3C 5971   3.840  28.370  13.500
  249BOLB   C4C 5972   3.790  28.010  13.370
  249BOLB   C1D 5973   3.380  28.650  13.660
  249BOLB   C2D 5974   3.440  28.270  13.790
  249BOLB   C3D 5975   3.510  27.950  14.060
  249BOLB   C4D 5976   3.780  27.770  14.370
  250BOLB   NC1 5977  12.200  24.800  21.130
  250BOLB   PO1 5978  11.860  24.970  21.130
  250BOLB   GL1 5979  11.610  25.070  21.410
  250BOLB   GL2 5980  11.680  25.440  21.370
  250BOLB   C1A 5981  11.460  25.070  21.750
  250BOLB   C2A 5982  11.690  25.010  22.100
  250BOLB   C3A 5983  11.970  25.110  22.340
  250BOLB   C4A 5984  11.580  25.100  22.700
  250BOLB   C1B 5985  11.830  25.540  21.780
  250BOLB   C2B 5986  11.950  25.700  22.140
  250BOLB   C3B 5987  12.090  26.140  22.250
  250BOLB   C4B 5988  12.160  26.480  21.920
  250BOLB   NC2 5989  12.320  26.510  24.780
  250BOLB   PO2 5990  12.370  26.170  25.030
  250BOLB   GL3 5991  12.330  25.940  24.750
  250BOLB   GL4 5992  12.220  26.090  24.530
  250BOLB   C1C 5993  11.990  25.720  24.380
  250BOLB   C2C 5994  11.890  25.500  23.900
  250BOLB   C3C 5995  11.600  25.360  23.540
  250BOLB   C4C 5996  11.620  25.020  23.170
  250BOLB   C1D 5997  12.220  25.990  24.100
  250BOLB   C2D 5998  12.400  25.830  23.670
  250BOLB   C3D 5999  12.640  25.700  23.390
  250BOLB   C4D 6000  12.940  25.470  23.330
  251BOLB   NC1 6001  13.560  15.340  21.050
  251BOLB   PO1 6002  13.930  15.200  20.870
  251BOLB   GL1 6003  13.860  14.830  20.990
  251BOLB   GL2 6004  14.110  14.770  21.310
  251BOLB   C1A 6005  13.980  14.370  21.050
  251BOLB   C2A 6006  13.930  14.020  21.410
  251BOLB   C3A 6007  13.950  13.650  21.770
  251BOLB   C4A 6008  13.660  13.340  22.060
  251BOLB   C1B 6009  14.290  14.600  21.730
  251BOLB   C2B 6010  14.460  14.640  22.190
  251BOLB   C3B 6011  14.630  14.890  22.540
  251BOLB   C4B 6012  14.530  14.880  23.060
  251BOLB   NC2 6013  13.090  12.060  24.110
  251BOLB   PO2 6014  13.310  12.440  24.360
  251BOLB   GL3 6015  13.310  12.820  24.160
  251BOLB   GL4 6016  13.260  13.150  24.220
  251BOLB   C1C 6017  13.450  12.990  23.710
  251BOLB   C2C 6018  13.720  13.150  23.370
  251BOLB   C3C 6019  13.750  13.200  22.910
  251BOLB   C4C 6020  13.660  13.250  22.380
  251BOLB   C1D 6021  13.290  13.400  23.940
  251BOLB   C2D 6022  13.240  13.600  23.570
  251BOLB   C3D 6023  13.520  13.630  23.130
  251BOLB   C4D 6024  13.780  13.650  22.750
  252BOLB   NC1 6025   7.730  10.410   6.210
  252BOLB   PO1 6026   7.990  10.800   6.150
  252BOLB   GL1 6027   8.290  10.960   6.480
  252BOLB   GL2 6028   8.350  11.370   6.470
  252BOLB   C1A 6029   8.090  11.070   6.860
  252BOLB   C2A 6030   8.180  11.380   7.210
  252BOLB   C3A 6031   8.080  11.620   7.470
  252BOLB   C4A 6032   7.960  12.080   7.640
  252BOLB   C1B 6033   8.380  11.590   6.850
  252BOLB   C2B 6034   8.370  11.940   7.170
  252BOLB   C3B 6035   8.510  12.250   7.530
  252BOLB   C4B 6036   8.820  12.470   7.740
  252BOLB   NC2 6037   8.650  14.240   9.340
  252BOLB   PO2 6038   8.400  13.910   9.180
  252BOLB   GL3 6039   8.410  13.610   8.940
  252BOLB   GL4 6040   8.050  13.480   8.870
  252BOLB   C1C 6041   8.720  13.260   8.740
  252BOLB   C2C 6042   8.680  12.980   8.410
  252BOLB   C3C 6043   8.570  12.630   8.120
  252BOLB   C4C 6044   8.280  12.360   7.890
  252BOLB   C1D 6045   7.800  13.250   8.560
  252BOLB   C2D 6046   7.780  12.900   8.410
  252BOLB   C3D 6047   7.600  12.870   8.060
  252BOLB   C4D 6048   7.460  13.010   7.650
  253BOLB   NC1 6049   6.130  23.000  21.660
  253BOLB   PO1 6050   5.930  23.430  21.600
  253BOLB   GL1 6051   5.800  23.860  21.610
  253BOLB   GL2 6052   5.540  23.900  21.580
  253BOLB   C1A 6053   5.680  24.240  21.860
  253BOLB   C2A 6054   5.650  24.310  22.280
  253BOLB   C3A 6055   5.650  24.220  22.760
  253BOLB   C4A 6056   5.700  24.330  23.250
  253BOLB   C1B 6057   5.250  23.910  21.890
  253BOLB   C2B 6058   4.990  24.090  22.260
  253BOLB   C3B 6059   4.440  24.040  22.380
  253BOLB   C4B 6060   4.200  23.810  22.470
  253BOLB   NC2 6061   4.520  25.470  24.900
  253BOLB   PO2 6062   4.470  25.710  24.540
  253BOLB   GL3 6063   4.700  25.310  24.420
  253BOLB   GL4 6064   4.940  25.450  24.230
  253BOLB   C1C 6065   4.820  24.940  24.190
  253BOLB   C2C 6066   5.220  24.750  24.260
  253BOLB   C3C 6067   5.400  24.650  24.020
  253BOLB   C4C 6068   5.690  24.610  23.590
  253BOLB   C1D 6069   5.210  25.250  23.980
  253BOLB   C2D 6070   5.110  24.870  23.740
  253BOLB   C3D 6071   5.160  24.520  23.500
  253BOLB   C4D 6072   5.180  24.210  23.300
  254BOLB   NC1 6073   5.120  24.240  20.360
  254BOLB   PO1 6074   4.760  24.220  20.170
  254BOLB   GL1 6075   4.730  24.440  20.600
  254BOLB   GL2 6076   4.800  24.650  20.400
  254BOLB   C1A 6077   4.480  24.460  20.990
  254BOLB   C2A 6078   4.220  24.850  21.100
  254BOLB   C3A 6079   4.050  25.170  21.390
  254BOLB   C4A 6080   4.080  25.310  21.860
  254BOLB   C1B 6081   4.470  24.850  20.620
  254BOLB   C2B 6082   4.000  25.000  20.640
  254BOLB   C3B 6083   3.990  25.450  20.820
  254BOLB   C4B 6084   4.220  25.740  21.100
  254BOLB   NC2 6085   3.340  25.390  23.880
  254BOLB   PO2 6086   3.370  25.720  23.550
  254BOLB   GL3 6087   3.660  25.670  23.300
  254BOLB   GL4 6088   3.710  25.830  23.150
  254BOLB   C1C 6089   3.960  25.350  23.280
  254BOLB   C2C 6090   4.050  25.000  23.070
  254BOLB   C3C 6091   4.250  25.020  22.680
  254BOLB   C4C 6092   4.180  25.210  22.300
  254BOLB   C1D 6093   3.500  25.560  22.740
  254BOLB   C2D 6094   3.740  25.440  22.440
  254BOLB   C3D 6095   3.540  25.270  22.050
  254BOLB   C4D 6096   3.680  25.040  21.710
  255BOLB   NC1 6097   6.120  16.390  20.290
  255BOLB   PO1 6098   6.150  16.660  20.550
  255BOLB   GL1 6099   5.800  16.420  20.680
  255BOLB   GL2 6100   5.780  16.100  20.620
  255BOLB   C1A 6101   5.500  16.210  20.960
  255BOLB   C2A 6102   5.090  16.130  21.110
  255BOLB   C3A 6103   4.780  16.080  21.370
  255BOLB   C4A 6104   4.520  16.180  21.690
  255BOLB   C1B 6105   5.890  15.810  20.850
  255BOLB   C2B 6106   6.150  15.420  21.000
  255BOLB   C3B 6107   6.070  14.990  21.200
  255BOLB   C4B 6108   6.350  14.810  21.530
  255BOLB   NC2 6109   3.430  15.950  23.930
  255BOLB   PO2 6110   3.670  15.650  23.720
  255BOLB   GL3 6111   3.700  15.780  23.350
  255BOLB   GL4 6112   4.050  15.850  23.460
  255BOLB   C1C 6113   3.740  16.130  23.140
  255BOLB   C2C 6114   4.020  16.220  22.750
  255BOLB   C3C 6115   4.310  16.160  22.540
  255BOLB   C4C 6116   4.520  16.180  22.130
  255BOLB   C1D 6117   4.470  15.890  23.230
  255BOLB   C2D 6118   4.770  16.080  23.280
  255BOLB   C3D 6119   5.020  16.370  23.010
  255BOLB   C4D 6120   5.360  16.640  23.120
  256BOLB   NC1 6121   6.970  11.590  14.410
  256BOLB   PO1 6122   6.700  11.790  14.230
  256BOLB   GL1 6123   6.360  11.540  14.010
  256BOLB   GL2 6124   6.050  11.430  14.050
  256BOLB   C1A 6125   6.420  11.060  14.010
  256BOLB   C2A 6126   6.260  10.760  13.890
  256BOLB   C3A 6127   6.130  10.370  14.000
  256BOLB   C4A 6128   5.720  10.130  14.040
  256BOLB   C1B 6129   6.110  11.200  13.640
  256BOLB   C2B 6130   5.980  11.040  13.200
  256BOLB   C3B 6131   5.710  10.670  13.210
  256BOLB   C4B 6132   5.740  10.310  13.000
  256BOLB   NC2 6133   3.270   9.600  15.060
  256BOLB   PO2 6134   3.570   9.310  14.830
  256BOLB   GL3 6135   3.950   9.370  14.710
  256BOLB   GL4 6136   3.980   9.760  14.680
  256BOLB   C1C 6137   4.350   9.480  14.540
  256BOLB   C2C 6138   4.650   9.440  14.230
  256BOLB   C3C 6139   4.950   9.770  14.150
  256BOLB   C4C 6140   5.350   9.920  14.080
  256BOLB   C1D 6141   3.890   9.820  14.250
  256BOLB   C2D 6142   4.050  10.230  14.140
  256BOLB   C3D 6143   4.400  10.510  14.240
  256BOLB   C4D 6144   4.400  10.820  14.560
  257BOLB   NC1 6145   2.050  16.800  13.860
  257BOLB   PO1 6146   1.990  17.190  14.160
  257BOLB   GL1 6147   1.630  17.000  13.960
  257BOLB   GL2 6148   1.440  16.720  14.000
  257BOLB   C1A 6149   1.210  17.060  13.750
  257BOLB   C2A 6150   0.850  17.040  13.660
  257BOLB   C3A 6151   0.590  17.280  13.770
  257BOLB   C4A 6152   0.200  17.550  13.730
  257BOLB   C1B 6153   0.950  16.680  14.010
  257BOLB   C2B 6154   0.510  16.840  14.020
  257BOLB   C3B 6155   0.160  17.010  13.770
  257BOLB   C4B 6156  36.230  17.260  13.510
  257BOLB   NC2 6157  34.290  18.580  13.560
  257BOLB   PO2 6158  34.110  18.130  13.570
  257BOLB   GL3 6159  34.540  18.060  13.590
  257BOLB   GL4 6160  34.590  17.790  13.220
  257BOLB   C1C 6161  34.930  18.050  13.580
  257BOLB   C2C 6162  35.330  17.890  13.680
  257BOLB   C3C 6163  35.710  17.650  13.740
  257BOLB   C4C 6164  36.110  17.620  13.780
  257BOLB   C1D 6165  34.990  17.890  13.110
  257BOLB   C2D 6166  35.390  17.910  12.850
  257BOLB   C3D 6167  35.650  18.060  12.630
  257BOLB   C4D 6168  35.390  18.280  12.330
  258BOLB   NC1 6169  15.970  20.690  20.700
  258BOLB   PO1 6170  15.700  20.970  20.730
  258BOLB   GL1 6171  16.020  21.020  21.150
  258BOLB   GL2 6172  16.250  20.880  21.050
  258BOLB   C1A 6173  16.130  21.240  21.520
  258BOLB   C2A 6174  16.380  21.520  21.800
  258BOLB   C3A 6175  16.350  21.630  22.150
  258BOLB   C4A 6176  16.570  21.990  22.480
  258BOLB   C1B 6177  16.350  20.840  21.530
  258BOLB   C2B 6178  16.510  20.650  21.830
  258BOLB   C3B 6179  16.620  20.760  22.160
  258BOLB   C4B 6180  17.040  20.930  22.310
  258BOLB   NC2 6181  17.120  22.100  24.930
  258BOLB   PO2 6182  17.370  22.540  24.820
  258BOLB   GL3 6183  17.160  22.280  24.500
  258BOLB   GL4 6184  16.750  22.220  24.580
  258BOLB   C1C 6185  17.040  22.380  24.030
  258BOLB   C2C 6186  16.820  22.160  23.700
  258BOLB   C3C 6187  16.680  22.240  23.300
  258BOLB   C4C 6188  16.550  22.220  22.880
  258BOLB   C1D 6189  16.550  22.250  24.150
  258BOLB   C2D 6190  16.320  21.900  23.810
  258BOLB   C3D 6191  15.960  21.770  23.610
  258BOLB   C4D 6192  15.810  21.440  23.180
  259BOLB   NC1 6193  13.300  26.120  19.880
  259BOLB   PO1 6194  12.940  26.160  19.940
  259BOLB   GL1 6195  13.130  26.320  20.320
  259BOLB   GL2 6196  13.440  26.410  20.320
  259BOLB   C1A 6197  13.200  26.330  20.760
  259BOLB   C2A 6198  13.270  26.720  20.900
  259BOLB   C3A 6199  13.410  27.100  20.900
  259BOLB   C4A 6200  13.390  27.420  21.110
  259BOLB   C1B 6201  13.620  26.690  20.580
  259BOLB   C2B 6202  13.690  26.710  21.050
  259BOLB   C3B 6203  13.610  26.880  21.430
  259BOLB   C4B 6204  13.580  26.610  21.820
  259BOLB   NC2 6205  12.910  29.910  21.760
  259BOLB   PO2 6206  13.290  29.770  21.490
  259BOLB   GL3 6207  13.040  29.430  21.390
  259BOLB   GL4 6208  12.750  29.440  21.400
  259BOLB   C1C 6209  12.920  28.960  21.230
  259BOLB   C2C 6210  13.050  28.640  21.230
  259BOLB   C3C 6211  13.090  28.210  21.060
  259BOLB   C4C 6212  13.290  27.880  21.120
  259BOLB   C1D 6213  12.450  29.130  21.220
  259BOLB   C2D 6214  12.160  28.760  21.150
  259BOLB   C3D 6215  11.920  28.570  21.480
  259BOLB   C4D 6216  11.720  28.230  21.430
  260BOLB   NC1 6217  18.520  14.800  11.890
  260BOLB   PO1 6218  18.560  14.960  11.450
  260BOLB   GL1 6219  18.760  14.580  11.340
  260BOLB   GL2 6220  18.820  14.420  11.690
  260BOLB   C1A 6221  19.130  14.520  11.060
  260BOLB   C2A 6222  19.400  14.230  10.990
  260BOLB   C3A 6223  19.820  14.160  10.950
  260BOLB   C4A 6224  20.040  14.420  10.810
  260BOLB   C1B 6225  19.170  14.250  11.480
  260BOLB   C2B 6226  19.530  14.070  11.550
  260BOLB   C3B 6227  19.680  13.710  11.680
  260BOLB   C4B 6228  19.850  13.440  11.510
  260BOLB   NC2 6229  21.650  13.740   9.220
  260BOLB   PO2 6230  21.770  13.710   9.630
  260BOLB   GL3 6231  21.360  13.630   9.600
  260BOLB   GL4 6232  21.150  13.670   9.350
  260BOLB   C1C 6233  21.090  13.840   9.870
  260BOLB   C2C 6234  21.010  14.100  10.300
  260BOLB   C3C 6235  20.540  14.290  10.420
  260BOLB   C4C 6236  20.330  14.490  10.680
  260BOLB   C1D 6237  20.780  13.650   9.460
  260BOLB   C2D 6238  20.470  13.850   9.680
  260BOLB   C3D 6239  20.110  14.210   9.590
  260BOLB   C4D 6240  19.720  14.320   9.790
  261BOLB   NC1 6241  14.780  21.390  21.480
  261BOLB   PO1 6242  15.230  21.390  21.480
  261BOLB   GL1 6243  15.140  21.190  21.820
  261BOLB   GL2 6244  14.830  21.030  21.900
  261BOLB   C1A 6245  15.200  21.110  22.260
  261BOLB   C2A 6246  15.510  21.110  22.580
  261BOLB   C3A 6247  15.740  20.880  23.030
  261BOLB   C4A 6248  15.740  20.780  23.470
  261BOLB   C1B 6249  14.990  20.670  22.240
  261BOLB   C2B 6250  15.230  20.660  22.630
  261BOLB   C3B 6251  15.420  20.550  22.940
  261BOLB   C4B 6252  15.450  20.390  23.290
  261BOLB   NC2 6253  17.190  21.500  25.560
  261BOLB   PO2 6254  16.970  21.810  25.330
  261BOLB   GL3 6255  16.760  21.700  24.850
  261BOLB   GL4 6256  16.930  21.750  24.620
  261BOLB   C1C 6257  16.510  21.640  24.430
  261BOLB   C2C 6258  16.290  21.270  24.400
  261BOLB   C3C 6259  16.110  20.980  24.190
  261BOLB   C4C 6260  15.830  20.930  23.840
  261BOLB   C1D 6261  16.940  21.870  24.120
  261BOLB   C2D 6262  16.750  21.500  23.840
  261BOLB   C3D 6263  16.730  21.260  23.500
  261BOLB   C4D 6264  16.610  21.160  23.070
  262BOLB   NC1 6265  15.790  18.540  21.220
  262BOLB   PO1 6266  15.510  18.790  21.390
  262BOLB   GL1 6267  15.790  18.640  21.700
  262BOLB   GL2 6268  15.780  18.960  21.960
  262BOLB   C1A 6269  16.190  18.480  21.910
  262BOLB   C2A 6270  16.480  18.840  21.980
  262BOLB   C3A 6271  16.480  19.020  22.390
  262BOLB   C4A 6272  16.540  19.350  22.700
  262BOLB   C1B 6273  16.030  18.680  22.330
  262BOLB   C2B 6274  16.510  18.480  22.410
  262BOLB   C3B 6275  16.890  18.800  22.510
  262BOLB   C4B 6276  17.190  19.100  22.670
  262BOLB   NC2 6277  17.850  19.310  25.220
  262BOLB   PO2 6278  17.480  19.310  24.900
  262BOLB   GL3 6279  17.280  19.220  24.520
  262BOLB   GL4 6280  17.070  19.460  24.570
  262BOLB   C1C 6281  17.150  19.390  24.120
  262BOLB   C2C 6282  16.990  19.530  23.680
  262BOLB   C3C 6283  17.010  19.470  23.240
  262BOLB   C4C 6284  16.920  19.420  22.890
  262BOLB   C1D 6285  16.670  19.510  24.440
  262BOLB   C2D 6286  16.530  19.420  24.040
  262BOLB   C3D 6287  16.540  19.390  23.530
  262BOLB   C4D 6288  16.420  19.540  23.120
  263BOLB   NC1 6289   2.860  19.930  18.750
  263BOLB   PO1 6290   2.610  19.980  18.500
  263BOLB   GL1 6291   2.380  19.980  18.880
  263BOLB   GL2 6292   2.000  20.140  18.820
  263BOLB   C1A 6293   2.020  19.720  19.050
  263BOLB   C2A 6294   1.680  19.600  19.430
  263BOLB   C3A 6295   1.420  19.350  19.430
  263BOLB   C4A 6296   1.030  19.160  19.550
  263BOLB   C1B 6297   1.510  20.110  18.580
  263BOLB   C2B 6298   1.090  19.830  18.670
  263BOLB   C3B 6299   0.690  19.690  18.700
  263BOLB   C4B 6300   0.350  19.410  18.710
  263BOLB   NC2 6301  35.210  18.110  19.710
  263BOLB   PO2 6302  35.460  18.390  19.560
  263BOLB   GL3 6303  35.740  18.510  19.410
  263BOLB   GL4 6304  35.990  18.510  19.710
  263BOLB   C1C 6305  36.110  18.450  19.180
  263BOLB   C2C 6306   0.070  18.260  18.980
  263BOLB   C3C 6307   0.490  18.540  19.030
  263BOLB   C4C 6308   0.750  18.910  19.270
  263BOLB   C1D 6309  36.360  18.600  19.980
  263BOLB   C2D 6310   0.220  18.830  19.960
  263BOLB   C3D 6311   0.450  18.870  20.230
  263BOLB   C4D 6312   0.720  18.970  20.460
  264BOLB   NC1 6313  17.140  22.690  18.120
  264BOLB   PO1 6314  17.340  22.840  18.450
  264BOLB   GL1 6315  17.700  22.990  18.650
  264BOLB   GL2 6316  18.010  22.760  18.690
  264BOLB   C1A 6317  17.900  23.040  19.080
  264BOLB   C2A 6318  18.260  23.140  19.240
  264BOLB   C3A 6319  18.670  23.100  19.320
  264BOLB   C4A 6320  19.030  23.360  19.430
  264BOLB   C1B 6321  18.260  22.630  19.010
  264BOLB   C2B 6322  18.440  22.600  19.430
  264BOLB   C3B 6323  18.420  22.920  19.760
  264BOLB   C4B 6324  18.270  23.180  20.020
  264BOLB   NC2 6325  20.330  23.950  21.570
  264BOLB   PO2 6326  20.650  23.970  21.190
  264BOLB   GL3 6327  20.230  23.880  20.870
  264BOLB   GL4 6328  20.430  24.070  20.530
  264BOLB   C1C 6329  20.010  23.740  20.500
  264BOLB   C2C 6330  19.830  23.680  20.160
  264BOLB   C3C 6331  19.630  23.710  19.720
  264BOLB   C4C 6332  19.280  23.550  19.660
  264BOLB   C1D 6333  20.040  24.120  20.190
  264BOLB   C2D 6334  19.540  24.150  19.960
  264BOLB   C3D 6335  19.290  24.070  19.720
  264BOLB   C4D 6336  18.850  24.050  19.750
  265BOLB   NC1 6337  19.800  17.690  14.450
  265BOLB   PO1 6338  19.760  18.100  14.600
  265BOLB   GL1 6339  20.260  17.910  14.700
  265BOLB   GL2 6340  20.420  18.280  14.750
  265BOLB   C1A 6341  20.710  17.780  14.870
  265BOLB   C2A 6342  21.160  17.940  15.070
  265BOLB   C3A 6343  21.440  18.220  15.010
  265BOLB   C4A 6344  21.550  18.400  15.400
  265BOLB   C1B 6345  20.810  18.250  14.770
  265BOLB   C2B 6346  21.170  18.280  14.520
  265BOLB   C3B 6347  21.630  18.420  14.400
  265BOLB   C4B 6348  22.100  18.570  14.530
  265BOLB   NC2 6349  23.400  18.430  16.150
  265BOLB   PO2 6350  23.480  18.290  16.560
  265BOLB   GL3 6351  22.960  18.280  16.450
  265BOLB   GL4 6352  22.840  18.400  16.700
  265BOLB   C1C 6353  22.560  18.210  16.300
  265BOLB   C2C 6354  22.140  18.290  16.250
  265BOLB   C3C 6355  21.810  18.490  16.230
  265BOLB   C4C 6356  21.460  18.480  15.860
  265BOLB   C1D 6357  22.370  18.430  16.690
  265BOLB   C2D 6358  21.980  18.190  16.740
  265BOLB   C3D 6359  21.590  18.100  16.550
  265BOLB   C4D 6360  21.360  18.470  16.340
  266BOLB   NC1 6361  16.480  25.260  17.650
  266BOLB   PO1 6362  16.290  25.020  17.900
  266BOLB   GL1 6363  16.190  25.410  18.050
  266BOLB   GL2 6364  16.350  25.760  17.810
  266BOLB   C1A 6365  16.420  25.770  18.320
  266BOLB   C2A 6366  16.620  25.840  18.620
  266BOLB   C3A 6367  16.790  25.970  19.040
  266BOLB   C4A 6368  17.190  26.240  19.190
  266BOLB   C1B 6369  16.460  26.120  17.920
  266BOLB   C2B 6370  16.510  26.550  18.010
  266BOLB   C3B 6371  16.750  26.900  18.120
  266BOLB   C4B 6372  17.100  26.990  17.970
  266BOLB   NC2 6373  19.210  27.160  20.290
  266BOLB   PO2 6374  19.020  27.510  20.290
  266BOLB   GL3 6375  18.790  27.260  19.950
  266BOLB   GL4 6376  18.870  27.390  19.570
  266BOLB   C1C 6377  18.410  27.100  20.050
  266BOLB   C2C 6378  18.250  26.920  19.720
  266BOLB   C3C 6379  17.890  26.830  19.570
  266BOLB   C4C 6380  17.560  26.470  19.340
  266BOLB   C1D 6381  18.560  27.290  19.140
  266BOLB   C2D 6382  18.250  27.390  18.800
  266BOLB   C3D 6383  18.160  27.490  18.530
  266BOLB   C4D 6384  18.420  27.490  18.160
  267BOLB   NC1 6385  18.310  14.120  15.900
  267BOLB   PO1 6386  18.530  14.360  15.550
  267BOLB   GL1 6387  18.780  14.140  15.660
  267BOLB   GL2 6388  18.880  14.180  15.950
  267BOLB   C1A 6389  19.260  13.920  15.770
  267BOLB   C2A 6390  19.330  13.700  16.050
  267BOLB   C3A 6391  19.540  13.550  16.460
  267BOLB   C4A 6392  19.870  13.430  16.760
  267BOLB   C1B 6393  19.360  14.330  16.080
  267BOLB   C2B 6394  19.780  14.330  16.120
  267BOLB   C3B 6395  20.120  14.550  16.340
  267BOLB   C4B 6396  20.470  14.560  16.620
  267BOLB   NC2 6397  22.120  12.660  16.260
  267BOLB   PO2 6398  22.100  12.520  16.740
  267BOLB   GL3 6399  21.900  12.960  16.750
  267BOLB   GL4 6400  21.880  13.170  16.480
  267BOLB   C1C 6401  21.580  13.210  16.880
  267BOLB   C2C 6402  21.120  13.180  16.920
  267BOLB   C3C 6403  20.600  13.050  16.820
  267BOLB   C4C 6404  20.150  13.190  16.870
  267BOLB   C1D 6405  21.400  13.030  16.450
  267BOLB   C2D 6406  21.130  13.250  16.360
  267BOLB   C3D 6407  20.740  13.190  16.370
  267BOLB   C4D 6408  20.350  13.480  16.550
  268BOLB   NC1 6409  10.420  19.670  22.840
  268BOLB   PO1 6410  10.620  19.270  22.660
  268BOLB   GL1 6411  10.810  19.480  23.030
  268BOLB   GL2 6412  10.470  19.370  23.240
  268BOLB   C1A 6413  10.850  19.490  23.520
  268BOLB   C2A 6414  10.880  19.330  23.890
  268BOLB   C3A 6415  10.650  19.330  24.300
  268BOLB   C4A 6416  10.760  19.380  24.620
  268BOLB   C1B 6417  10.460  19.210  23.680
  268BOLB   C2B 6418  10.700  18.860  24.090
  268BOLB   C3B 6419  10.940  18.960  24.410
  268BOLB   C4B 6420  11.030  18.780  24.850
  268BOLB   NC2 6421   9.750  20.440  27.050
  268BOLB   PO2 6422   9.570  20.200  26.710
  268BOLB   GL3 6423   9.490  19.950  26.350
  268BOLB   GL4 6424   9.140  19.980  26.440
  268BOLB   C1C 6425   9.590  19.760  25.890
  268BOLB   C2C 6426   9.960  19.680  25.760
  268BOLB   C3C 6427  10.250  19.460  25.380
  268BOLB   C4C 6428  10.700  19.520  24.990
  268BOLB   C1D 6429   8.940  20.050  26.060
  268BOLB   C2D 6430   8.770  19.950  25.650
  268BOLB   C3D 6431   8.440  19.860  25.350
  268BOLB   C4D 6432   8.320  19.920  24.960
  269BOLB   NC1 6433  10.190  26.800  18.620
  269BOLB   PO1 6434  10.180  26.900  19.080
  269BOLB   GL1 6435  10.340  27.060  19.340
  269BOLB   GL2 6436  10.050  27.080  19.570
  269BOLB   C1A 6437  10.450  27.440  19.670
  269BOLB   C2A 6438  10.220  27.740  19.960
  269BOLB   C3A 6439  10.140  28.090  20.100
  269BOLB   C4A 6440   9.810  28.300  20.390
  269BOLB   C1B 6441  10.080  27.250  19.990
  269BOLB   C2B 6442  10.320  27.420  20.360
  269BOLB   C3B 6443  10.500  27.700  20.640
  269BOLB   C4B 6444  10.430  28.020  20.980
  269BOLB   NC2 6445   9.380  29.970  22.100
  269BOLB   PO2 6446   9.230  29.490  22.310
  269BOLB   GL3 6447   9.440  29.140  22.260
  269BOLB   GL4 6448   9.610  29.010  22.550
  269BOLB   C1C 6449   9.450  29.010  21.890
  269BOLB   C2C 6450   9.410  28.940  21.450
  269BOLB   C3C 6451   9.450  28.580  21.180
  269BOLB   C4C 6452   9.650  28.430  20.800
  269BOLB   C1D 6453   9.610  28.680  22.330
  269BOLB   C2D 6454   9.700  28.300  22.160
  269BOLB   C3D 6455   9.500  27.950  22.000
  269BOLB   C4D 6456   9.140  27.990  21.680
  270BOLB   NC1 6457  17.390  13.630  11.820
  270BOLB   PO1 6458  17.050  13.690  11.520
  270BOLB   GL1 6459  17.290  13.450  11.310
  270BOLB   GL2 6460  17.430  13.490  11.010
  270BOLB   C1A 6461  17.540  13.150  11.310
  270BOLB   C2A 6462  17.900  13.040  11.270
  270BOLB   C3A 6463  18.250  12.880  11.040
  270BOLB   C4A 6464  18.630  12.560  11.040
  270BOLB   C1B 6465  17.650  13.160  10.830
  270BOLB   C2B 6466  17.820  12.810  10.720
  270BOLB   C3B 6467  17.670  12.390  10.760
  270BOLB   C4B 6468  17.290  12.170  10.820
  270BOLB   NC2 6469  20.150  10.420  12.200
  270BOLB   PO2 6470  19.880  10.360  11.700
  270BOLB   GL3 6471  19.540  10.730  11.560
  270BOLB   GL4 6472  19.270  10.660  11.740
  270BOLB   C1C 6473  19.450  11.130  11.430
  270BOLB   C2C 6474  19.260  11.610  11.270
  270BOLB   C3C 6475  19.020  11.970  11.360
  270BOLB   C4C 6476  18.850  12.320  11.140
  270BOLB   C1D 6477  19.190  11.070  11.880
  270BOLB   C2D 6478  18.940  11.430  12.050
  270BOLB   C3D 6479  18.760  11.630  12.400
  270BOLB   C4D 6480  18.730  11.950  12.630
  271BOLB   NC1 6481   1.730  20.950  17.050
  271BOLB   PO1 6482   1.960  20.860  17.460
  271BOLB   GL1 6483   1.600  21.180  17.460
  271BOLB   GL2 6484   1.320  21.030  17.520
  271BOLB   C1A 6485   1.260  21.570  17.580
  271BOLB   C2A 6486   1.230  21.870  17.880
  271BOLB   C3A 6487   0.940  22.250  18.130
  271BOLB   C4A 6488   0.520  22.430  18.280
  271BOLB   C1B 6489   0.930  20.750  17.430
  271BOLB   C2B 6490   0.570  20.420  17.600
  271BOLB   C3B 6491   0.200  20.580  17.820
  271BOLB   C4B 6492  36.170  20.680  17.710
  271BOLB   NC2 6493  34.950  22.360  18.820
  271BOLB   PO2 6494  34.720  22.030  18.960
  271BOLB   GL3 6495  35.040  21.870  18.650
  271BOLB   GL4 6496  35.070  22.020  18.270
  271BOLB   C1C 6497  35.450  21.640  18.630
  271BOLB   C2C 6498  35.860  21.640  18.500
  271BOLB   C3C 6499  36.150  21.980  18.470
  271BOLB   C4C 6500   0.050  22.260  18.340
  271BOLB   C1D 6501  35.290  22.200  17.930
  271BOLB   C2D 6502  35.550  22.300  17.600
  271BOLB   C3D 6503  35.930  22.250  17.280
  271BOLB   C4D 6504  36.290  22.270  16.980
  272BOLB   NC1 6505  12.490  21.250  22.750
  272BOLB   PO1 6506  12.370  20.850  22.480
  272BOLB   GL1 6507  12.460  20.750  22.940
  272BOLB   GL2 6508  12.290  20.820  23.170
  272BOLB   C1A 6509  12.740  20.790  23.280
  272BOLB   C2A 6510  12.930  20.900  23.670
  272BOLB   C3A 6511  13.240  21.210  23.730
  272BOLB   C4A 6512  13.520  21.440  23.870
  272BOLB   C1B 6513  12.420  20.950  23.640
  272BOLB   C2B 6514  12.030  21.130  23.950
  272BOLB   C3B 6515  11.790  21.170  24.270
  272BOLB   C4B 6516  11.880  21.390  24.620
  272BOLB   NC2 6517  13.680  22.570  26.430
  272BOLB   PO2 6518  13.500  22.400  25.990
  272BOLB   GL3 6519  13.240  22.220  25.780
  272BOLB   GL4 6520  13.530  22.430  25.490
  272BOLB   C1C 6521  13.100  21.930  25.510
  272BOLB   C2C 6522  13.100  21.660  25.100
  272BOLB   C3C 6523  13.200  21.550  24.610
  272BOLB   C4C 6524  13.350  21.650  24.190
  272BOLB   C1D 6525  13.250  22.480  25.120
  272BOLB   C2D 6526  13.380  22.500  24.700
  272BOLB   C3D 6527  13.330  22.610  24.310
  272BOLB   C4D 6528  13.290  22.580  23.860
  273BOLB   NC1 6529   8.400  15.050  21.050
  273BOLB   PO1 6530   8.860  14.830  21.160
  273BOLB   GL1 6531   9.110  14.830  21.570
  273BOLB   GL2 6532   9.480  14.950  21.610
  273BOLB   C1A 6533   9.130  14.490  21.930
  273BOLB   C2A 6534   9.090  14.500  22.400
  273BOLB   C3A 6535   9.040  14.160  22.690
  273BOLB   C4A 6536   9.200  14.120  23.030
  273BOLB   C1B 6537   9.390  14.900  22.090
  273BOLB   C2B 6538   9.290  15.010  22.620
  273BOLB   C3B 6539   9.160  14.700  22.890
  273BOLB   C4B 6540   8.840  14.640  23.090
  273BOLB   NC2 6541  10.110  13.190  24.940
  273BOLB   PO2 6542   9.850  12.930  24.650
  273BOLB   GL3 6543   9.930  12.850  24.270
  273BOLB   GL4 6544  10.290  12.720  24.310
  273BOLB   C1C 6545   9.720  13.100  23.890
  273BOLB   C2C 6546   9.290  13.110  23.810
  273BOLB   C3C 6547   9.210  13.500  23.530
  273BOLB   C4C 6548   9.260  13.840  23.290
  273BOLB   C1D 6549  10.220  12.880  23.870
  273BOLB   C2D 6550  10.070  13.040  23.450
  273BOLB   C3D 6551  10.060  13.350  23.180
  273BOLB   C4D 6552   9.870  13.740  23.200
  274BOLB   NC1 6553   7.560  16.480  21.800
  274BOLB   PO1 6554   7.170  16.500  21.520
  274BOLB   GL1 6555   7.060  16.250  21.830
  274BOLB   GL2 6556   6.720  16.100  21.790
  274BOLB   C1A 6557   7.050  16.250  22.240
  274BOLB   C2A 6558   7.130  16.200  22.630
  274BOLB   C3A 6559   7.270  16.160  23.100
  274BOLB   C4A 6560   7.170  16.510  23.470
  274BOLB   C1B 6561   6.210  16.110  21.760
  274BOLB   C2B 6562   5.690  16.030  21.830
  274BOLB   C3B 6563   5.320  15.890  22.060
  274BOLB   C4B 6564   4.940  15.890  22.260
  274BOLB   NC2 6565   5.740  16.130  25.360
  274BOLB   PO2 6566   5.780  16.540  25.410
  274BOLB   GL3 6567   6.210  16.760  25.210
  274BOLB   GL4 6568   6.430  16.880  25.400
  274BOLB   C1C 6569   6.450  16.820  24.830
  274BOLB   C2C 6570   6.610  16.990  24.450
  274BOLB   C3C 6571   6.810  16.840  24.090
  274BOLB   C4C 6572   6.730  16.660  23.700
  274BOLB   C1D 6573   6.830  16.820  25.160
  274BOLB   C2D 6574   6.980  17.000  24.840
  274BOLB   C3D 6575   7.000  17.250  24.520
  274BOLB   C4D 6576   7.230  17.750  24.610
  275BOLB   NC1 6577   8.920  15.770  21.450
  275BOLB   PO1 6578   8.430  15.820  21.370
  275BOLB   GL1 6579   8.190  15.550  21.660
  275BOLB   GL2 6580   8.110  15.370  21.510
  275BOLB   C1A 6581   8.060  15.280  22.010
  275BOLB   C2A 6582   7.810  15.040  22.270
  275BOLB   C3A 6583   7.420  14.940  22.540
  275BOLB   C4A 6584   6.970  14.760  22.730
  275BOLB   C1B 6585   8.160  14.940  21.650
  275BOLB   C2B 6586   8.190  14.800  22.000
  275BOLB   C3B 6587   8.240  14.470  22.410
  275BOLB   C4B 6588   8.510  14.090  22.590
  275BOLB   NC2 6589   6.290  13.120  24.100
  275BOLB   PO2 6590   6.620  12.880  24.030
  275BOLB   GL3 6591   6.880  13.120  24.020
  275BOLB   GL4 6592   7.180  13.210  23.730
  275BOLB   C1C 6593   6.900  13.580  23.840
  275BOLB   C2C 6594   7.090  13.750  23.510
  275BOLB   C3C 6595   7.030  14.110  23.170
  275BOLB   C4C 6596   6.920  14.320  22.860
  275BOLB   C1D 6597   7.500  13.170  23.530
  275BOLB   C2D 6598   7.800  13.230  23.310
  275BOLB   C3D 6599   8.000  13.520  23.220
  275BOLB   C4D 6600   8.290  13.790  23.130
  276BOLB   NC1 6601   1.250  18.560  15.200
  276BOLB   PO1 6602   1.470  18.270  14.880
  276BOLB   GL1 6603   1.080  18.040  14.910
  276BOLB   GL2 6604   0.880  18.150  14.640
  276BOLB   C1A 6605   0.790  17.720  15.020
  276BOLB   C2A 6606   0.330  17.660  15.150
  276BOLB   C3A 6607   0.060  17.310  15.180
  276BOLB   C4A 6608  36.150  17.040  15.060
  276BOLB   C1B 6609   0.770  18.560  14.640
  276BOLB   C2B 6610   0.290  18.670  14.860
  276BOLB   C3B 6611   0.150  19.060  14.970
  276BOLB   C4B 6612   0.360  19.360  15.220
  276BOLB   NC2 6613  34.360  16.770  13.880
  276BOLB   PO2 6614  34.410  16.210  13.790
  276BOLB   GL3 6615  34.710  16.100  13.950
  276BOLB   GL4 6616  34.810  15.870  13.710
  276BOLB   C1C 6617  35.040  16.190  14.350
  276BOLB   C2C 6618  35.200  16.410  14.580
  276BOLB   C3C 6619  35.360  16.670  14.690
  276BOLB   C4C 6620  35.760  16.750  14.860
  276BOLB   C1D 6621  35.180  15.890  13.940
  276BOLB   C2D 6622  35.550  15.950  13.810
  276BOLB   C3D 6623  35.900  15.870  13.580
  276BOLB   C4D 6624  36.150  16.260  13.460
  277BOLB   NC1 6625  11.730  12.290  18.520
  277BOLB   PO1 6626  11.800  12.270  18.940
  277BOLB   GL1 6627  11.840  11.900  19.250
  277BOLB   GL2 6628  11.690  11.670  18.990
  277BOLB   C1A 6629  11.860  11.700  19.590
  277BOLB   C2A 6630  11.880  11.260  19.660
  277BOLB   C3A 6631  11.920  10.890  19.750
  277BOLB   C4A 6632  11.720  10.650  19.940
  277BOLB   C1B 6633  11.820  11.310  19.100
  277BOLB   C2B 6634  11.770  10.840  19.260
  277BOLB   C3B 6635  11.810  10.470  19.490
  277BOLB   C4B 6636  11.750  10.080  19.690
  277BOLB   NC2 6637  10.810   8.460  21.380
  277BOLB   PO2 6638  10.760   8.910  21.410
  277BOLB   GL3 6639  10.790   9.380  21.360
  277BOLB   GL4 6640  10.480   9.510  21.270
  277BOLB   C1C 6641  11.040   9.700  21.200
  277BOLB   C2C 6642  11.250   9.960  20.980
  277BOLB   C3C 6643  11.420  10.010  20.530
  277BOLB   C4C 6644  11.500  10.260  20.120
  277BOLB   C1D 6645  10.540   9.770  20.900
  277BOLB   C2D 6646  10.420  10.030  20.510
  277BOLB   C3D 6647  10.400  10.310  20.380
  277BOLB   C4D 6648  10.260  10.580  20.140
  278BOLB   NC1 6649  18.630  14.640  15.140
  278BOLB   PO1 6650  18.970  14.970  15.170
  278BOLB   GL1 6651  19.350  14.880  15.020
  278BOLB   GL2 6652  19.630  15.100  14.800
  278BOLB   C1A 6653  19.550  14.540  15.060
  278BOLB   C2A 6654  19.800  14.220  15.110
  278BOLB   C3A 6655  20.190  14.280  15.330
  278BOLB   C4A 6656  20.490  13.970  15.190
  278BOLB   C1B 6657  19.960  14.770  14.850
  278BOLB   C2B 6658  20.180  14.440  14.850
  278BOLB   C3B 6659  20.300  14.120  14.680
  278BOLB   C4B 6660  20.670  13.810  14.670
  278BOLB   NC2 6661  23.150  14.530  15.580
  278BOLB   PO2 6662  22.920  14.310  15.200
  278BOLB   GL3 6663  22.570  14.490  15.330
  278BOLB   GL4 6664  22.440  14.180  15.340
  278BOLB   C1C 6665  22.110  14.640  15.300
  278BOLB   C2C 6666  21.720  14.490  15.180
  278BOLB   C3C 6667  21.300  14.320  14.990
  278BOLB   C4C 6668  20.940  14.010  15.130
  278BOLB   C1D 6669  22.100  14.140  15.040
  278BOLB   C2D 6670  21.710  13.930  15.060
  278BOLB   C3D 6671  21.420  13.560  14.970
  278BOLB   C4D 6672  20.990  13.480  14.970
  279BOLB   NC1 6673  11.250  10.610  14.440
  279BOLB   PO1 6674  10.790  10.650  14.530
  279BOLB   GL1 6675  10.790  10.200  14.420
  279BOLB   GL2 6676  10.940  10.170  14.760
  279BOLB   C1A 6677  10.690   9.700  14.440
  279BOLB   C2A 6678  10.790   9.360  14.220
  279BOLB   C3A 6679  11.140   9.020  14.290
  279BOLB   C4A 6680  11.220   8.590  14.190
  279BOLB   C1B 6681  11.180   9.760  14.640
  279BOLB   C2B 6682  11.430   9.410  14.400
  279BOLB   C3B 6683  11.640   9.120  14.230
  279BOLB   C4B 6684  11.550   8.950  13.840
  279BOLB   NC2 6685  10.860   6.270  12.920
  279BOLB   PO2 6686  10.550   6.570  12.930
  279BOLB   GL3 6687  10.680   6.880  13.310
  279BOLB   GL4 6688  10.490   7.140  13.140
  279BOLB   C1C 6689  10.890   7.290  13.510
  279BOLB   C2C 6690  11.180   7.460  13.710
  279BOLB   C3C 6691  11.270   7.850  13.840
  279BOLB   C4C 6692  11.150   8.190  14.120
  279BOLB   C1D 6693  10.690   7.660  13.170
  279BOLB   C2D 6694  10.940   8.010  13.440
  279BOLB   C3D 6695  11.080   8.380  13.590
  279BOLB   C4D 6696  11.350   8.550  13.690
  280BOLB   NC1 6697   8.000  21.650  23.020
  280BOLB   PO1 6698   7.790  22.050  23.190
  280BOLB   GL1 6699   7.480  22.200  23.500
  280BOLB   GL2 6700   7.470  22.570  23.410
  280BOLB   C1A 6701   7.040  22.350  23.500
  280BOLB   C2A 6702   6.720  22.510  23.750
  280BOLB   C3A 6703   6.600  22.470  24.240
  280BOLB   C4A 6704   6.560  22.710  24.520
  280BOLB   C1B 6705   7.410  22.910  23.780
  280BOLB   C2B 6706   7.200  23.050  24.010
  280BOLB   C3B 6707   6.890  23.080  24.360
  280BOLB   C4B 6708   6.730  23.150  24.750
  280BOLB   NC2 6709   6.520  21.660  26.800
  280BOLB   PO2 6710   6.400  22.050  26.960
  280BOLB   GL3 6711   6.560  22.230  26.550
  280BOLB   GL4 6712   6.560  21.960  26.360
  280BOLB   C1C 6713   6.470  22.460  26.280
  280BOLB   C2C 6714   6.590  22.470  25.750
  280BOLB   C3C 6715   6.500  22.650  25.340
  280BOLB   C4C 6716   6.460  22.760  24.880
  280BOLB   C1D 6717   6.550  22.030  25.980
  280BOLB   C2D 6718   6.540  22.070  25.440
  280BOLB   C3D 6719   6.610  21.950  24.840
  280BOLB   C4D 6720   6.460  22.140  24.560
  281BOLB   NC1 6721  14.380  24.880  20.440
  281BOLB   PO1 6722  14.270  25.300  20.220
  281BOLB   GL1 6723  14.670  25.430  20.310
  281BOLB   GL2 6724  14.690  25.280  20.660
  281BOLB   C1A 6725  14.760  25.950  20.500
  281BOLB   C2A 6726  14.800  26.210  21.030
  281BOLB   C3A 6727  14.550  26.440  21.140
  281BOLB   C4A 6728  14.390  26.390  21.590
  281BOLB   C1B 6729  14.940  25.340  21.000
  281BOLB   C2B 6730  15.090  25.640  21.300
  281BOLB   C3B 6731  15.340  25.760  21.500
  281BOLB   C4B 6732  15.630  26.110  21.690
  281BOLB   NC2 6733  14.880  26.900  23.960
  281BOLB   PO2 6734  15.200  26.810  23.910
  281BOLB   GL3 6735  15.220  26.620  23.550
  281BOLB   GL4 6736  15.230  26.320  23.590
  281BOLB   C1C 6737  15.110  26.760  23.050
  281BOLB   C2C 6738  14.830  26.610  22.750
  281BOLB   C3C 6739  14.960  26.490  22.350
  281BOLB   C4C 6740  14.660  26.420  22.030
  281BOLB   C1D 6741  15.170  25.850  23.670
  281BOLB   C2D 6742  15.120  25.490  23.450
  281BOLB   C3D 6743  15.370  25.240  23.210
  281BOLB   C4D 6744  15.760  25.110  23.370
  282BOLB   NC1 6745  18.900  16.060  16.650
  282BOLB   PO1 6746  18.710  15.810  17.000
  282BOLB   GL1 6747  19.070  15.780  17.320
  282BOLB   GL2 6748  19.310  15.940  17.120
  282BOLB   C1A 6749  19.150  15.420  17.620
  282BOLB   C2A 6750  19.420  15.100  17.890
  282BOLB   C3A 6751  19.690  14.890  17.870
  282BOLB   C4A 6752  20.030  14.600  18.140
  282BOLB   C1B 6753  19.570  15.640  17.430
  282BOLB   C2B 6754  19.730  15.540  17.760
  282BOLB   C3B 6755  19.850  15.310  18.120
  282BOLB   C4B 6756  20.110  15.080  18.270
  282BOLB   NC2 6757  21.810  15.690  19.960
  282BOLB   PO2 6758  21.680  15.370  19.590
  282BOLB   GL3 6759  21.320  15.320  19.500
  282BOLB   GL4 6760  21.120  15.630  19.520
  282BOLB   C1C 6761  21.310  15.140  19.070
  282BOLB   C2C 6762  20.980  15.130  18.640
  282BOLB   C3C 6763  20.640  15.000  18.470
  282BOLB   C4C 6764  20.470  14.640  18.200
  282BOLB   C1D 6765  20.850  15.440  19.170
  282BOLB   C2D 6766  20.540  15.390  18.790
  282BOLB   C3D 6767  20.520  15.500  18.340
  282BOLB   C4D 6768  20.760  15.750  18.160
  283BOLB   NC1 6769   6.160  12.170  13.440
  283BOLB   PO1 6770   6.190  12.000  13.940
  283BOLB   GL1 6771   5.970  11.750  13.630
  283BOLB   GL2 6772   5.910  11.610  13.340
  283BOLB   C1A 6773   5.620  11.480  13.720
  283BOLB   C2A 6774   5.600  11.120  13.470
  283BOLB   C3A 6775   5.170  10.880  13.270
  283BOLB   C4A 6776   5.280  10.430  13.180
  283BOLB   C1B 6777   5.640  11.430  13.040
  283BOLB   C2B 6778   5.600  11.060  12.830
  283BOLB   C3B 6779   5.410  10.690  12.510
  283BOLB   C4B 6780   5.360  10.180  12.670
  283BOLB   NC2 6781   4.720   8.530  13.810
  283BOLB   PO2 6782   4.870   8.450  13.460
  283BOLB   GL3 6783   5.310   8.600  13.270
  283BOLB   GL4 6784   5.230   8.650  12.980
  283BOLB   C1C 6785   5.590   8.970  13.250
  283BOLB   C2C 6786   5.630   9.310  12.980
  283BOLB   C3C 6787   5.570   9.710  13.030
  283BOLB   C4C 6788   5.180  10.050  13.150
  283BOLB   C1D 6789   5.070   9.150  13.150
  283BOLB   C2D 6790   5.230   9.490  13.280
  283BOLB   C3D 6791   5.370   9.810  13.550
  283BOLB   C4D 6792   5.380  10.230  13.680
  284BOLB   NC1 6793   8.720  10.820  15.200
  284BOLB   PO1 6794   8.410  10.660  15.060
  284BOLB   GL1 6795   8.240  10.280  15.160
  284BOLB   GL2 6796   8.230  10.170  14.810
  284BOLB   C1A 6797   8.430   9.840  15.280
  284BOLB   C2A 6798   8.290   9.630  15.650
  284BOLB   C3A 6799   7.990   9.600  15.900
  284BOLB   C4A 6800   7.880   9.360  16.200
  284BOLB   C1B 6801   8.140   9.710  14.860
  284BOLB   C2B 6802   7.760   9.540  14.760
  284BOLB   C3B 6803   7.300   9.500  14.640
  284BOLB   C4B 6804   6.890   9.550  14.570
  284BOLB   NC2 6805   8.230   7.110  16.640
  284BOLB   PO2 6806   8.370   7.080  16.310
  284BOLB   GL3 6807   8.420   7.460  16.200
  284BOLB   GL4 6808   8.830   7.500  16.170
  284BOLB   C1C 6809   8.380   7.910  16.330
  284BOLB   C2C 6810   8.330   8.370  16.130
  284BOLB   C3C 6811   8.050   8.770  16.160
  284BOLB   C4C 6812   7.930   9.020  16.340
  284BOLB   C1D 6813   9.200   7.750  16.340
  284BOLB   C2D 6814   9.350   8.110  16.140
  284BOLB   C3D 6815   9.590   8.460  16.130
  284BOLB   C4D 6816   9.890   8.840  16.140
  285BOLB   NC1 6817  15.790  16.840  21.050
  285BOLB   PO1 6818  15.410  16.690  21.320
  285BOLB   GL1 6819  15.690  16.960  21.530
  285BOLB   GL2 6820  15.930  16.880  21.510
  285BOLB   C1A 6821  15.820  17.160  21.940
  285BOLB   C2A 6822  16.060  17.030  22.260
  285BOLB   C3A 6823  16.410  17.090  22.580
  285BOLB   C4A 6824  16.620  17.350  22.910
  285BOLB   C1B 6825  16.170  16.710  21.880
  285BOLB   C2B 6826  16.500  16.800  22.150
  285BOLB   C3B 6827  16.570  16.550  22.470
  285BOLB   C4B 6828  16.800  16.320  22.600
  285BOLB   NC2 6829  17.300  17.440  24.830
  285BOLB   PO2 6830  17.760  17.330  24.840
  285BOLB   GL3 6831  17.660  17.500  24.400
  285BOLB   GL4 6832  17.400  17.350  24.330
  285BOLB   C1C 6833  17.620  17.610  23.930
  285BOLB   C2C 6834  17.320  17.590  23.570
  285BOLB   C3C 6835  17.130  17.490  23.280
  285BOLB   C4C 6836  16.990  17.370  22.950
  285BOLB   C1D 6837  17.210  17.120  24.000
  285BOLB   C2D 6838  17.150  16.970  23.640
  285BOLB   C3D 6839  16.830  17.080  23.350
  285BOLB   C4D 6840  16.600  16.880  23.030
  286BOLB   NC1 6841  16.620  20.250  20.560
  286BOLB   PO1 6842  16.330  19.860  20.500
  286BOLB   GL1 6843  16.540  19.880  20.910
  286BOLB   GL2 6844  16.570  19.590  21.100
  286BOLB   C1A 6845  16.900  20.050  21.090
  286BOLB   C2A 6846  17.170  19.920  21.440
  286BOLB   C3A 6847  17.540  19.770  21.530
  286BOLB   C4A 6848  17.840  19.950  21.850
  286BOLB   C1B 6849  16.770  19.700  21.450
  286BOLB   C2B 6850  16.960  19.820  21.900
  286BOLB   C3B 6851  17.350  19.960  22.170
  286BOLB   C4B 6852  17.720  19.870  22.460
  286BOLB   NC2 6853  19.780  20.420  23.800
  286BOLB   PO2 6854  19.390  20.460  23.560
  286BOLB   GL3 6855  19.350  20.400  23.140
  286BOLB   GL4 6856  19.570  20.620  22.980
  286BOLB   C1C 6857  19.260  20.270  22.690
  286BOLB   C2C 6858  19.150  20.010  22.520
  286BOLB   C3C 6859  18.640  20.030  22.340
  286BOLB   C4C 6860  18.210  19.890  22.130
  286BOLB   C1D 6861  19.530  20.620  22.480
  286BOLB   C2D 6862  19.550  20.960  22.140
  286BOLB   C3D 6863  19.230  21.320  22.010
  286BOLB   C4D 6864  18.950  21.290  21.720
  287BOLB   NC1 6865  14.240  16.400  21.530
  287BOLB   PO1 6866  14.510  16.740  21.350
  287BOLB   GL1 6867  14.770  16.380  21.680
  287BOLB   GL2 6868  14.770  16.170  21.440
  287BOLB   C1A 6869  14.900  16.060  22.010
  287BOLB   C2A 6870  15.280  16.190  22.210
  287BOLB   C3A 6871  15.610  16.160  22.350
  287BOLB   C4A 6872  15.680  16.350  22.800
  287BOLB   C1B 6873  14.900  15.750  21.600
  287BOLB   C2B 6874  14.910  15.510  21.960
  287BOLB   C3B 6875  15.050  15.360  22.380
  287BOLB   C4B 6876  15.170  15.040  22.650
  287BOLB   NC2 6877  17.660  15.780  24.270
  287BOLB   PO2 6878  17.290  15.590  24.460
  287BOLB   GL3 6879  17.060  15.730  24.080
  287BOLB   GL4 6880  17.310  15.990  23.980
  287BOLB   C1C 6881  16.700  15.640  23.850
  287BOLB   C2C 6882  16.290  15.820  23.790
  287BOLB   C3C 6883  16.110  16.030  23.490
  287BOLB   C4C 6884  15.930  16.130  23.180
  287BOLB   C1D 6885  17.170  16.020  23.590
  287BOLB   C2D 6886  17.030  16.200  23.230
  287BOLB   C3D 6887  16.680  16.380  23.070
  287BOLB   C4D 6888  16.360  16.280  22.930
  288BOLB   NC1 6889   2.920  15.600  16.310
  288BOLB   PO1 6890   3.010  15.840  16.580
  288BOLB   GL1 6891   2.630  15.780  16.760
  288BOLB   GL2 6892   2.680  15.460  16.820
  288BOLB   C1A 6893   2.270  15.930  17.230
  288BOLB   C2A 6894   1.940  15.900  17.520
  288BOLB   C3A 6895   1.470  15.850  17.460
  288BOLB   C4A 6896   1.040  15.700  17.350
  288BOLB   C1B 6897   2.360  15.410  17.130
  288BOLB   C2B 6898   2.190  15.360  17.400
  288BOLB   C3B 6899   1.750  15.390  17.390
  288BOLB   C4B 6900   1.250  15.160  17.370
  288BOLB   NC2 6901  35.240  14.630  17.350
  288BOLB   PO2 6902  35.510  14.250  17.160
  288BOLB   GL3 6903  35.880  14.480  17.440
  288BOLB   GL4 6904  35.760  14.840  17.390
  288BOLB   C1C 6905  36.220  14.480  17.660
  288BOLB   C2C 6906   0.190  14.820  17.810
  288BOLB   C3C 6907   0.410  15.070  17.480
  288BOLB   C4C 6908   0.770  15.270  17.280
  288BOLB   C1D 6909  36.000  15.050  17.060
  288BOLB   C2D 6910  36.280  15.360  16.800
  288BOLB   C3D 6911  36.170  15.640  16.450
  288BOLB   C4D 6912  36.150  15.920  16.120
  289BOLB   NC1 6913  18.740  14.990  14.270
  289BOLB   PO1 6914  18.850  15.030  14.680
  289BOLB   GL1 6915  19.090  14.650  14.600
  289BOLB   GL2 6916  19.030  14.490  14.870
  289BOLB   C1A 6917  19.520  14.680  14.510
  289BOLB   C2A 6918  19.950  14.520  14.410
  289BOLB   C3A 6919  20.350  14.410  14.240
  289BOLB   C4A 6920  20.680  14.140  14.210
  289BOLB   C1B 6921  19.170  14.300  15.290
  289BOLB   C2B 6922  19.460  14.000  15.320
  289BOLB   C3B 6923  19.620  13.580  15.550
  289BOLB   C4B 6924  19.780  13.140  15.400
  289BOLB   NC2 6925  22.640  13.190  13.260
  289BOLB   PO2 6926  22.460  12.920  13.500
  289BOLB   GL3 6927  22.050  13.130  13.560
  289BOLB   GL4 6928  22.240  13.440  13.670
  289BOLB   C1C 6929  21.680  13.380  13.800
  289BOLB   C2C 6930  21.430  13.670  13.810
  289BOLB   C3C 6931  21.410  14.020  14.060
  289BOLB   C4C 6932  21.070  14.170  14.030
  289BOLB   C1D 6933  21.980  13.770  13.760
  289BOLB   C2D 6934  21.670  14.060  13.610
  289BOLB   C3D 6935  21.350  14.320  13.610
  289BOLB   C4D 6936  21.110  14.640  13.860
  290BOLB   NC1 6937   6.000  18.290  22.060
  290BOLB   PO1 6938   6.080  18.680  22.090
  290BOLB   GL1 6939   5.680  18.740  22.330
  290BOLB   GL2 6940   5.660  18.420  22.450
  290BOLB   C1A 6941   5.340  18.710  22.690
  290BOLB   C2A 6942   4.920  18.910  22.840
  290BOLB   C3A 6943   4.680  18.680  23.120
  290BOLB   C4A 6944   4.850  18.540  23.530
  290BOLB   C1B 6945   5.490  18.250  22.840
  290BOLB   C2B 6946   5.250  17.950  22.950
  290BOLB   C3B 6947   5.160  17.690  23.320
  290BOLB   C4B 6948   5.190  17.270  23.310
  290BOLB   NC2 6949   3.820  19.050  25.720
  290BOLB   PO2 6950   4.090  19.300  25.810
  290BOLB   GL3 6951   4.390  19.250  25.460
  290BOLB   GL4 6952   4.700  19.350  25.420
  290BOLB   C1C 6953   4.270  19.000  25.130
  290BOLB   C2C 6954   4.450  18.700  24.820
  290BOLB   C3C 6955   4.680  18.700  24.420
  290BOLB   C4C 6956   4.870  18.620  24.030
  290BOLB   C1D 6957   4.680  19.160  24.990
  290BOLB   C2D 6958   4.650  19.170  24.660
  290BOLB   C3D 6959   5.050  19.080  24.410
  290BOLB   C4D 6960   5.260  18.810  24.290
  291BOLB   NC1 6961   2.780  14.980  13.440
  291BOLB   PO1 6962   2.640  14.600  13.450
  291BOLB   GL1 6963   2.200  14.350  13.340
  291BOLB   GL2 6964   1.900  14.530  13.360
  291BOLB   C1A 6965   2.100  14.010  13.040
  291BOLB   C2A 6966   1.980  13.600  12.970
  291BOLB   C3A 6967   2.040  13.320  12.790
  291BOLB   C4A 6968   2.340  13.030  12.710
  291BOLB   C1B 6969   1.690  14.380  13.030
  291BOLB   C2B 6970   1.320  14.330  13.100
  291BOLB   C3B 6971   1.040  14.470  13.380
  291BOLB   C4B 6972   0.700  14.640  13.110
  291BOLB   NC2 6973   1.350  11.220  11.890
  291BOLB   PO2 6974   1.580  11.370  11.470
  291BOLB   GL3 6975   1.760  11.530  11.780
  291BOLB   GL4 6976   1.560  11.610  12.020
  291BOLB   C1C 6977   2.050  11.710  12.010
  291BOLB   C2C 6978   2.340  12.020  12.130
  291BOLB   C3C 6979   2.480  12.450  12.100
  291BOLB   C4C 6980   2.460  12.870  12.250
  291BOLB   C1D 6981   1.730  11.860  12.450
  291BOLB   C2D 6982   2.140  12.010  12.670
  291BOLB   C3D 6983   2.450  12.180  12.980
  291BOLB   C4D 6984   2.330  12.470  13.220
  292BOLB   NC1 6985  16.700  12.930  15.250
  292BOLB   PO1 6986  17.140  13.000  15.180
  292BOLB   GL1 6987  17.360  12.690  15.390
  292BOLB   GL2 6988  17.430  12.400  15.190
  292BOLB   C1A 6989  17.730  12.540  15.630
  292BOLB   C2A 6990  18.030  12.570  15.970
  292BOLB   C3A 6991  18.330  12.430  16.120
  292BOLB   C4A 6992  18.760  12.320  15.960
  292BOLB   C1B 6993  17.620  12.040  15.250
  292BOLB   C2B 6994  17.760  11.740  15.520
  292BOLB   C3B 6995  18.060  11.470  15.850
  292BOLB   C4B 6996  17.920  11.530  16.240
  292BOLB   NC2 6997  20.730  10.020  16.670
  292BOLB   PO2 6998  20.700  10.460  16.520
  292BOLB   GL3 6999  20.140  10.610  16.440
  292BOLB   GL4 7000  19.870  10.440  16.170
  292BOLB   C1C 7001  19.800  10.940  16.310
  292BOLB   C2C 7002  19.510  11.290  16.320
  292BOLB   C3C 7003  19.170  11.520  16.310
  292BOLB   C4C 7004  18.930  11.970  16.160
  292BOLB   C1D 7005  19.590  10.620  15.930
  292BOLB   C2D 7006  19.400  11.030  15.930
  292BOLB   C3D 7007  19.390  11.430  15.840
  292BOLB   C4D 7008  19.120  11.830  15.660
  293BOLB   NC1 7009  16.110  12.980  16.920
  293BOLB   PO1 7010  16.340  12.740  17.160
  293BOLB   GL1 7011  16.640  12.460  17.000
  293BOLB   GL2 7012  16.910  12.590  16.760
  293BOLB   C1A 7013  16.920  12.090  16.900
  293BOLB   C2A 7014  17.280  11.730  16.920
  293BOLB   C3A 7015  17.750  11.580  16.750
  293BOLB   C4A 7016  18.070  11.320  16.660
  293BOLB   C1B 7017  17.320  12.570  16.920
  293BOLB   C2B 7018  17.560  12.560  17.270
  293BOLB   C3B 7019  17.850  12.280  17.470
  293BOLB   C4B 7020  18.090  12.300  17.890
  293BOLB   NC2 7021  19.860   9.320  17.720
  293BOLB   PO2 7022  19.750   9.740  17.820
  293BOLB   GL3 7023  19.620  10.110  17.510
  293BOLB   GL4 7024  19.320  10.010  17.470
  293BOLB   C1C 7025  19.400  10.540  17.440
  293BOLB   C2C 7026  19.130  10.740  17.110
  293BOLB   C3C 7027  18.690  10.890  17.010
  293BOLB   C4C 7028  18.490  11.140  16.710
  293BOLB   C1D 7029  18.860  10.060  17.190
  293BOLB   C2D 7030  18.700  10.450  17.170
  293BOLB   C3D 7031  18.330  10.660  17.310
  293BOLB   C4D 7032  18.150  10.910  17.110
  294BOLB   NC1 7033  11.370  13.830  20.580
  294BOLB   PO1 7034  11.540  14.220  20.830
  294BOLB   GL1 7035  11.370  13.910  21.100
  294BOLB   GL2 7036  11.360  14.080  21.380
  294BOLB   C1A 7037  11.610  13.600  21.270
  294BOLB   C2A 7038  11.790  13.330  21.560
  294BOLB   C3A 7039  11.890  12.890  21.700
  294BOLB   C4A 7040  11.940  12.810  22.120
  294BOLB   C1B 7041  11.080  13.780  21.600
  294BOLB   C2B 7042  11.050  13.580  21.900
  294BOLB   C3B 7043  10.750  13.390  22.160
  294BOLB   C4B 7044  10.790  13.180  22.470
  294BOLB   NC2 7045  11.480  12.040  24.270
  294BOLB   PO2 7046  11.760  11.960  24.110
  294BOLB   GL3 7047  11.740  12.390  23.890
  294BOLB   GL4 7048  11.530  12.540  24.000
  294BOLB   C1C 7049  11.900  12.560  23.520
  294BOLB   C2C 7050  11.980  12.660  23.170
  294BOLB   C3C 7051  12.080  12.710  22.770
  294BOLB   C4C 7052  12.020  12.610  22.370
  294BOLB   C1D 7053  11.870  12.850  23.900
  294BOLB   C2D 7054  12.280  12.830  23.570
  294BOLB   C3D 7055  12.630  12.540  23.450
  294BOLB   C4D 7056  12.890  12.230  23.420
  295BOLB   NC1 7057   2.620  21.100  18.920
  295BOLB   PO1 7058   2.820  21.580  18.970
  295BOLB   GL1 7059   2.470  21.550  19.230
  295BOLB   GL2 7060   2.210  21.570  19.050
  295BOLB   C1A 7061   2.350  21.850  19.520
  295BOLB   C2A 7062   2.060  21.960  19.770
  295BOLB   C3A 7063   1.820  22.320  19.970
  295BOLB   C4A 7064   1.650  22.550  20.350
  295BOLB   C1B 7065   1.970  21.580  19.390
  295BOLB   C2B 7066   1.710  21.520  19.700
  295BOLB   C3B 7067   1.580  21.810  19.960
  295BOLB   C4B 7068   1.470  22.090  20.290
  295BOLB   NC2 7069   0.590  23.340  22.240
  295BOLB   PO2 7070   0.950  23.370  22.400
  295BOLB   GL3 7071   1.120  23.230  22.050
  295BOLB   GL4 7072   1.020  22.920  21.970
  295BOLB   C1C 7073   1.350  23.210  21.660
  295BOLB   C2C 7074   1.640  23.280  21.240
  295BOLB   C3C 7075   1.600  23.140  20.820
  295BOLB   C4C 7076   1.430  22.820  20.590
  295BOLB   C1D 7077   0.910  23.020  21.550
  295BOLB   C2D 7078   1.160  22.890  21.230
  295BOLB   C3D 7079   0.960  23.020  20.790
  295BOLB   C4D 7080   0.880  22.820  20.380
  296BOLB   NC1 7081   2.360  21.100  16.470
  296BOLB   PO1 7082   2.050  21.310  16.900
  296BOLB   GL1 7083   1.580  21.420  16.990
  296BOLB   GL2 7084   1.380  21.660  16.830
  296BOLB   C1A 7085   1.150  21.370  17.170
  296BOLB   C2A 7086   0.750  21.390  17.400
  296BOLB   C3A 7087   0.480  21.040  17.490
  296BOLB   C4A 7088   0.060  20.960  17.330
  296BOLB   C1B 7089   1.070  21.980  16.870
  296BOLB   C2B 7090   0.690  21.980  16.610
  296BOLB   C3B 7091   0.460  22.290  16.570
  296BOLB   C4B 7092   0.030  22.570  16.570
  296BOLB   NC2 7093  34.450  20.610  18.440
  296BOLB   PO2 7094  34.430  20.790  18.080
  296BOLB   GL3 7095  34.670  20.710  17.870
  296BOLB   GL4 7096  34.800  20.400  18.010
  296BOLB   C1C 7097  35.010  20.890  17.650
  296BOLB   C2C 7098  35.350  20.950  17.360
  296BOLB   C3C 7099  35.670  20.680  17.220
  296BOLB   C4C 7100  36.090  20.710  17.210
  296BOLB   C1D 7101  35.200  20.350  17.890
  296BOLB   C2D 7102  35.500  20.150  17.790
  296BOLB   C3D 7103  35.840  20.260  17.570
  296BOLB   C4D 7104  36.110  20.180  17.320
  297BOLB   NC1 7105   8.110  18.710  22.740
  297BOLB   PO1 7106   8.540  18.760  22.700
  297BOLB   GL1 7107   8.510  18.560  23.100
  297BOLB   GL2 7108   8.690  18.340  23.220
  297BOLB   C1A 7109   8.320  18.600  23.460
  297BOLB   C2A 7110   8.080  18.840  23.770
  297BOLB   C3A 7111   7.820  18.700  24.170
  297BOLB   C4A 7112   7.580  18.780  24.510
  297BOLB   C1B 7113   8.430  18.080  23.430
  297BOLB   C2B 7114   8.370  17.710  23.650
  297BOLB   C3B 7115   8.170  17.370  23.720
  297BOLB   C4B 7116   7.980  16.910  23.680
  297BOLB   NC2 7117   7.060  18.650  26.840
  297BOLB   PO2 7118   7.210  18.960  26.630
  297BOLB   GL3 7119   7.380  19.180  26.380
  297BOLB   GL4 7120   7.170  19.390  26.340
  297BOLB   C1C 7121   7.530  19.300  25.940
  297BOLB   C2C 7122   7.740  19.150  25.580
  297BOLB   C3C 7123   7.690  19.170  25.190
  297BOLB   C4C 7124   7.470  19.190  24.810
  297BOLB   C1D 7125   7.300  19.730  26.060
  297BOLB   C2D 7126   7.610  19.890  25.850
  297BOLB   C3D 7127   7.890  19.740  25.480
  297BOLB   C4D 7128   8.130  19.450  25.250
  298BOLB   NC1 7129   3.350  16.200  16.700
  298BOLB   PO1 7130   3.630  15.820  16.580
  298BOLB   GL1 7131   3.280  15.470  16.760
  298BOLB   GL2 7132   3.540  15.200  16.720
  298BOLB   C1A 7133   2.930  15.040  16.790
  298BOLB   C2A 7134   2.450  14.850  16.710
  298BOLB   C3A 7135   2.230  14.970  17.030
  298BOLB   C4A 7136   1.760  14.950  17.220
  298BOLB   C1B 7137   3.390  14.840  16.860
  298BOLB   C2B 7138   3.060  14.570  16.890
  298BOLB   C3B 7139   2.580  14.600  17.060
  298BOLB   C4B 7140   2.300  14.350  16.990
  298BOLB   NC2 7141  35.950  13.620  18.380
  298BOLB   PO2 7142  36.100  14.030  18.340
  298BOLB   GL3 7143  36.350  14.300  18.170
  298BOLB   GL4 7144   0.190  14.090  17.950
  298BOLB   C1C 7145   0.420  14.450  18.130
  298BOLB   C2C 7146   0.690  14.760  17.890
  298BOLB   C3C 7147   1.050  14.860  17.710
  298BOLB   C4C 7148   1.570  15.000  17.690
  298BOLB   C1D 7149   0.480  14.360  17.610
  298BOLB   C2D 7150   0.650  14.650  17.410
  298BOLB   C3D 7151   0.980  14.790  17.110
  298BOLB   C4D 7152   1.200  14.520  17.120
  299BOLB   NC1 7153   9.260  14.200  19.500
  299BOLB   PO1 7154   9.280  13.710  19.450
  299BOLB   GL1 7155   9.070  13.440  19.760
  299BOLB   GL2 7156   9.290  13.080  19.790
  299BOLB   C1A 7157   8.940  13.160  20.050
  299BOLB   C2A 7158   9.000  12.790  20.180
  299BOLB   C3A 7159   9.260  12.430  20.340
  299BOLB   C4A 7160   9.370  12.160  20.630
  299BOLB   C1B 7161   9.400  13.020  20.120
  299BOLB   C2B 7162   9.400  12.880  20.490
  299BOLB   C3B 7163   9.350  12.630  20.760
  299BOLB   C4B 7164   9.460  12.790  21.130
  299BOLB   NC2 7165   8.950   9.870  21.770
  299BOLB   PO2 7166   9.020  10.320  21.800
  299BOLB   GL3 7167   9.010  10.290  21.370
  299BOLB   GL4 7168   8.670  10.260  21.250
  299BOLB   C1C 7169   9.000  10.580  21.030
  299BOLB   C2C 7170   8.820  11.010  20.860
  299BOLB   C3C 7171   8.760  11.390  20.830
  299BOLB   C4C 7172   9.030  11.820  20.650
  299BOLB   C1D 7173   8.650  10.210  20.840
  299BOLB   C2D 7174   8.750   9.970  20.440
  299BOLB   C3D 7175   8.910  10.140  20.110
  299BOLB   C4D 7176   9.080  10.540  19.980
  300BOLB   NC1 7177   2.390  18.470  18.240
  300BOLB   PO1 7178   2.360  18.170  17.930
  300BOLB   GL1 7179   2.030  18.100  18.070
  300BOLB   GL2 7180   1.790  18.360  18.310
  300BOLB   C1A 7181   1.630  17.850  18.230
  300BOLB   C2A 7182   1.300  17.730  18.380
  300BOLB   C3A 7183   1.140  17.330  18.500
  300BOLB   C4A 7184   1.050  16.950  18.430
  300BOLB   C1B 7185   1.380  18.200  18.480
  300BOLB   C2B 7186   1.330  18.380  18.980
  300BOLB   C3B 7187   1.190  18.510  19.330
  300BOLB   C4B 7188   1.210  18.610  19.800
  300BOLB   NC2 7189  35.470  15.840  19.030
  300BOLB   PO2 7190  35.420  15.550  18.630
  300BOLB   GL3 7191  35.860  15.740  18.550
  300BOLB   GL4 7192  36.170  15.610  18.620
  300BOLB   C1C 7193  36.210  16.080  18.510
  300BOLB   C2C 7194   0.290  16.190  18.360
  300BOLB   C3C 7195   0.700  16.340  18.270
  300BOLB   C4C 7196   1.070  16.560  18.370
  300BOLB   C1D 7197   0.050  15.380  18.470
  300BOLB   C2D 7198   0.630  15.340  18.520
  300BOLB   C3D 7199   1.070  15.340  18.680
  300BOLB   C4D 7200   1.380  14.960  18.580
  301BOLB   NC1 7201  10.680  23.270  21.200
  301BOLB   PO1 7202  10.570  23.680  21.660
  301BOLB   GL1 7203  10.630  24.000  22.030
  301BOLB   GL2 7204  10.850  23.870  22.300
  301BOLB   C1A 7205  10.500  24.300  22.230
  301BOLB   C2A 7206  10.350  24.530  22.520
  301BOLB   C3A 7207  10.300  24.870  22.860
  301BOLB   C4A 7208  10.190  25.180  23.150
  301BOLB   C1B 7209  11.000  23.600  22.750
  301BOLB   C2B 7210  10.950  23.340  23.090
  301BOLB   C3B 7211  11.120  23.290  23.520
  301BOLB   C4B 7212  11.180  23.350  24.000
  301BOLB   NC2 7213   9.950  26.080  25.280
  301BOLB   PO2 7214   9.790  25.670  25.380
  301BOLB   GL3 7215   9.800  25.690  24.940
  301BOLB   GL4 7216  10.070  25.670  24.880
  301BOLB   C1C 7217   9.550  25.650  24.560
  301BOLB   C2C 7218   9.580  25.440  24.130
  301BOLB   C3C 7219   9.720  25.280  23.800
  301BOLB   C4C 7220   9.870  25.120  23.410
  301BOLB   C1D 7221  10.140  25.370  24.610
  301BOLB   C2D 7222  10.020  25.180  24.220
  301BOLB   C3D 7223  10.100  24.960  23.860
  301BOLB   C4D 7224  10.370  24.810  23.510
  302BOLB   NC1 7225   1.410  16.750  15.430
  302BOLB   PO1 7226   1.370  16.460  15.130
  302BOLB   GL1 7227   1.210  16.240  15.470
  302BOLB   GL2 7228   1.340  16.260  15.840
  302BOLB   C1A 7229   0.850  16.040  15.650
  302BOLB   C2A 7230   0.530  16.040  16.080
  302BOLB   C3A 7231   0.300  15.820  16.470
  302BOLB   C4A 7232   0.050  15.810  16.860
  302BOLB   C1B 7233   1.230  15.890  16.100
  302BOLB   C2B 7234   1.140  15.440  16.220
  302BOLB   C3B 7235   0.960  15.200  16.600
  302BOLB   C4B 7236   0.550  15.010  16.810
  302BOLB   NC2 7237  34.340  15.380  16.160
  302BOLB   PO2 7238  34.230  15.770  15.980
  302BOLB   GL3 7239  34.600  15.890  16.160
  302BOLB   GL4 7240  34.740  15.660  16.010
  302BOLB   C1C 7241  34.920  15.690  16.460
  302BOLB   C2C 7242  35.260  15.510  16.700
  302BOLB   C3C 7243  35.640  15.810  16.930
  302BOLB   C4C 7244  36.010  15.770  16.990
  302BOLB   C1D 7245  35.220  15.590  16.070
  302BOLB   C2D 7246  35.680  15.790  15.920
  302BOLB   C3D 7247  35.900  16.210  15.760
  302BOLB   C4D 7248  35.900  16.560  15.850
  303BOLB   NC1 7249  18.270  16.690  18.860
  303BOLB   PO1 7250  17.880  16.570  19.070
  303BOLB   GL1 7251  18.180  16.540  19.350
  303BOLB   GL2 7252  18.140  16.200  19.280
  303BOLB   C1A 7253  18.590  16.610  19.520
  303BOLB   C2A 7254  18.980  16.440  19.780
  303BOLB   C3A 7255  19.250  16.050  20.060
  303BOLB   C4A 7256  19.340  15.760  20.270
  303BOLB   C1B 7257  18.270  16.190  19.690
  303BOLB   C2B 7258  18.570  16.190  19.970
  303BOLB   C3B 7259  18.780  16.240  20.270
  303BOLB   C4B 7260  18.990  16.320  20.680
  303BOLB   NC2 7261  21.140  13.940  20.160
  303BOLB   PO2 7262  20.940  14.120  20.500
  303BOLB   GL3 7263  20.580  14.430  20.530
  303BOLB   GL4 7264  20.500  14.680  20.250
  303BOLB   C1C 7265  20.280  14.690  20.680
  303BOLB   C2C 7266  20.250  15.150  20.870
  303BOLB   C3C 7267  19.890  15.450  20.960
  303BOLB   C4C 7268  19.660  15.620  20.690
  303BOLB   C1D 7269  20.080  14.810  20.110
  303BOLB   C2D 7270  19.820  15.120  19.860
  303BOLB   C3D 7271  19.460  15.160  19.480
  303BOLB   C4D 7272  19.150  15.100  19.120
  304BOLB   NC1 7273  17.310  15.250  18.410
  304BOLB   PO1 7274  17.220  14.990  18.700
  304BOLB   GL1 7275  17.260  14.900  19.120
  304BOLB   GL2 7276  17.250  14.960  19.530
  304BOLB   C1A 7277  17.450  14.540  19.230
  304BOLB   C2A 7278  17.590  14.150  19.460
  304BOLB   C3A 7279  17.840  13.830  19.690
  304BOLB   C4A 7280  18.060  13.950  20.040
  304BOLB   C1B 7281  17.680  14.760  19.700
  304BOLB   C2B 7282  18.020  14.770  19.920
  304BOLB   C3B 7283  18.230  14.910  20.250
  304BOLB   C4B 7284  18.540  15.120  20.520
  304BOLB   NC2 7285  18.720  13.120  22.280
  304BOLB   PO2 7286  19.010  12.880  22.190
  304BOLB   GL3 7287  18.790  13.070  21.750
  304BOLB   GL4 7288  18.930  13.190  21.490
  304BOLB   C1C 7289  18.420  13.260  21.540
  304BOLB   C2C 7290  18.290  13.470  21.210
  304BOLB   C3C 7291  18.380  13.580  20.830
  304BOLB   C4C 7292  18.190  13.850  20.380
  304BOLB   C1D 7293  18.740  13.260  21.100
  304BOLB   C2D 7294  18.420  13.050  20.870
  304BOLB   C3D 7295  18.350  12.840  20.520
  304BOLB   C4D 7296  18.400  12.520  20.200
  305BOLB   NC1 7297  16.570  14.340  19.040
  305BOLB   PO1 7298  16.580  14.610  19.360
  305BOLB   GL1 7299  17.000  14.580  19.390
  305BOLB   GL2 7300  17.000  14.260  19.260
  305BOLB   C1A 7301  17.280  14.470  19.740
  305BOLB   C2A 7302  17.630  14.380  20.000
  305BOLB   C3A 7303  17.960  14.420  20.380
  305BOLB   C4A 7304  18.350  14.620  20.650
  305BOLB   C1B 7305  17.360  14.120  18.990
  305BOLB   C2B 7306  17.750  13.900  18.980
  305BOLB   C3B 7307  17.890  13.550  19.070
  305BOLB   C4B 7308  18.180  13.190  18.960
  305BOLB   NC2 7309  20.330  13.890  21.220
  305BOLB   PO2 7310  20.220  13.600  20.850
  305BOLB   GL3 7311  19.800  13.490  20.610
  305BOLB   GL4 7312  19.790  13.290  20.350
  305BOLB   C1C 7313  19.690  13.840  20.480
  305BOLB   C2C 7314  19.480  14.280  20.590
  305BOLB   C3C 7315  19.200  14.500  20.400
  305BOLB   C4C 7316  18.760  14.600  20.450
  305BOLB   C1D 7317  19.730  13.420  19.820
  305BOLB   C2D 7318  19.700  13.430  19.350
  305BOLB   C3D 7319  19.600  13.610  18.940
  305BOLB   C4D 7320  19.480  13.940  18.630
  306BOLB   NC1 7321  16.810  16.440  19.550
  306BOLB   PO1 7322  17.210  16.270  19.530
  306BOLB   GL1 7323  17.470  16.060  19.850
  306BOLB   GL2 7324  17.350  15.730  19.930
  306BOLB   C1A 7325  17.750  15.830  20.250
  306BOLB   C2A 7326  18.000  15.950  20.580
  306BOLB   C3A 7327  18.420  16.120  20.800
  306BOLB   C4A 7328  18.720  15.850  21.010
  306BOLB   C1B 7329  17.460  15.370  20.240
  306BOLB   C2B 7330  17.670  15.500  20.640
  306BOLB   C3B 7331  18.000  15.480  20.960
  306BOLB   C4B 7332  18.290  15.280  21.220
  306BOLB   NC2 7333  20.730  15.270  21.300
  306BOLB   PO2 7334  20.740  15.400  21.750
  306BOLB   GL3 7335  20.310  15.420  21.570
  306BOLB   GL4 7336  20.240  15.570  21.270
  306BOLB   C1C 7337  19.980  15.130  21.310
  306BOLB   C2C 7338  19.550  15.070  21.050
  306BOLB   C3C 7339  19.160  15.150  21.190
  306BOLB   C4C 7340  18.820  15.480  21.080
  306BOLB   C1D 7341  20.090  15.870  21.110
  306BOLB   C2D 7342  19.830  16.150  21.080
  306BOLB   C3D 7343  19.450  16.360  20.990
  306BOLB   C4D 7344  19.400  16.660  20.670
  307BOLB   NC1 7345   9.950  13.560  20.200
  307BOLB   PO1 7346  10.250  13.500  19.880
  307BOLB   GL1 7347  10.200  13.120  20.200
  307BOLB   GL2 7348  10.410  12.940  20.390
  307BOLB   C1A 7349   9.900  12.920  20.340
  307BOLB   C2A 7350  10.010  12.730  20.740
  307BOLB   C3A 7351   9.780  12.420  20.960
  307BOLB   C4A 7352   9.840  12.140  21.290
  307BOLB   C1B 7353  10.530  12.670  20.690
  307BOLB   C2B 7354  10.310  12.550  21.100
  307BOLB   C3B 7355  10.190  12.380  21.500
  307BOLB   C4B 7356   9.960  12.170  21.830
  307BOLB   NC2 7357   9.850  11.230  23.260
  307BOLB   PO2 7358  10.250  11.090  23.180
  307BOLB   GL3 7359  10.170  11.490  22.960
  307BOLB   GL4 7360   9.950  11.720  23.200
  307BOLB   C1C 7361   9.920  11.690  22.670
  307BOLB   C2C 7362   9.810  12.040  22.280
  307BOLB   C3C 7363   9.470  12.070  21.980
  307BOLB   C4C 7364   9.600  11.970  21.530
  307BOLB   C1D 7365  10.140  12.000  22.960
  307BOLB   C2D 7366  10.500  12.260  22.950
  307BOLB   C3D 7367  10.720  12.540  22.880
  307BOLB   C4D 7368  10.680  12.990  22.920
  308BOLB   NC1 7369  34.500  23.150  11.870
  308BOLB   PO1 7370  34.550  23.510  11.500
  308BOLB   GL1 7371  34.920  23.500  11.730
  308BOLB   GL2 7372  34.960  23.340  12.120
  308BOLB   C1A 7373  35.380  23.370  11.790
  308BOLB   C2A 7374  35.720  23.350  12.070
  308BOLB   C3A 7375  36.020  23.260  12.550
  308BOLB   C4A 7376  36.130  23.290  12.960
  308BOLB   C1B 7377  35.260  23.530  12.370
  308BOLB   C2B 7378  35.660  23.680  12.480
  308BOLB   C3B 7379  35.880  23.790  12.870
  308BOLB   C4B 7380  35.870  24.110  13.240
  308BOLB   NC2 7381   1.980  22.910  13.850
  308BOLB   PO2 7382   1.770  22.920  14.280
  308BOLB   GL3 7383   1.440  23.140  14.220
  308BOLB   GL4 7384   1.400  23.240  14.550
  308BOLB   C1C 7385   1.170  23.220  13.870
  308BOLB   C2C 7386   0.740  23.230  13.780
  308BOLB   C3C 7387   0.320  23.220  13.660
  308BOLB   C4C 7388  36.310  23.160  13.280
  308BOLB   C1D 7389   0.960  23.160  14.430
  308BOLB   C2D 7390   0.590  23.380  14.530
  308BOLB   C3D 7391   0.200  23.420  14.640
  308BOLB   C4D 7392  36.330  23.590  14.930
  309BOLB   NC1 7393   7.500  15.710  19.890
  309BOLB   PO1 7394   6.950  15.620  19.810
  309BOLB   GL1 7395   6.890  15.150  20.190
  309BOLB   GL2 7396   6.670  15.090  20.090
  309BOLB   C1A 7397   6.940  14.670  20.310
  309BOLB   C2A 7398   6.700  14.670  20.750
  309BOLB   C3A 7399   6.570  14.350  21.090
  309BOLB   C4A 7400   6.320  14.280  21.450
  309BOLB   C1B 7401   6.440  14.790  20.270
  309BOLB   C2B 7402   6.430  14.390  20.480
  309BOLB   C3B 7403   6.190  14.140  20.800
  309BOLB   C4B 7404   5.900  14.130  21.140
  309BOLB   NC2 7405   5.280  12.540  22.500
  309BOLB   PO2 7406   5.480  12.410  22.900
  309BOLB   GL3 7407   5.630  12.790  22.760
  309BOLB   GL4 7408   5.920  12.680  22.570
  309BOLB   C1C 7409   5.870  13.170  22.630
  309BOLB   C2C 7410   5.990  13.570  22.450
  309BOLB   C3C 7411   6.000  13.840  22.080
  309BOLB   C4C 7412   6.000  14.100  21.690
  309BOLB   C1D 7413   6.170  13.040  22.290
  309BOLB   C2D 7414   6.270  13.410  22.020
  309BOLB   C3D 7415   6.250  13.680  21.660
  309BOLB   C4D 7416   6.300  13.790  21.320
  310BOLB   NC1 7417  19.870  17.200  15.740
  310BOLB   PO1 7418  19.920  17.450  16.060
  310BOLB   GL1 7419  20.330  17.360  15.840
  310BOLB   GL2 7420  20.330  17.180  15.530
  310BOLB   C1A 7421  20.650  17.500  16.080
  310BOLB   C2A 7422  20.830  17.390  16.520
  310BOLB   C3A 7423  21.100  17.380  16.760
  310BOLB   C4A 7424  21.280  17.090  16.970
  310BOLB   C1B 7425  20.750  17.010  15.540
  310BOLB   C2B 7426  21.210  17.160  15.650
  310BOLB   C3B 7427  21.560  17.120  15.930
  310BOLB   C4B 7428  21.860  16.810  16.090
  310BOLB   NC2 7429  23.220  16.280  17.520
  310BOLB   PO2 7430  23.190  15.870  17.330
  310BOLB   GL3 7431  22.850  16.090  17.220
  310BOLB   GL4 7432  22.660  16.220  17.460
  310BOLB   C1C 7433  22.590  16.040  16.970
  310BOLB   C2C 7434  22.220  16.190  16.750
  310BOLB   C3C 7435  21.810  16.320  16.980
  310BOLB   C4C 7436  21.430  16.640  16.940
  310BOLB   C1D 7437  22.270  16.260  17.280
  310BOLB   C2D 7438  21.970  16.450  17.480
  310BOLB   C3D 7439  21.800  16.770  17.270
  310BOLB   C4D 7440  21.840  17.200  17.250
  311BOLB   NC1 7441  18.530  22.070  14.170
  311BOLB   PO1 7442  18.970  22.330  14.100
  311BOLB   GL1 7443  19.430  22.460  14.010
  311BOLB   GL2 7444  19.450  22.800  14.050
  311BOLB   C1A 7445  19.800  22.490  13.880
  311BOLB   C2A 7446  20.280  22.460  13.780
  311BOLB   C3A 7447  20.560  22.650  14.100
  311BOLB   C4A 7448  20.800  22.910  14.430
  311BOLB   C1B 7449  19.820  23.100  13.840
  311BOLB   C2B 7450  20.290  23.030  13.850
  311BOLB   C3B 7451  20.730  23.040  13.880
  311BOLB   C4B 7452  20.960  22.670  13.710
  311BOLB   NC2 7453  22.960  22.970  15.620
  311BOLB   PO2 7454  22.600  23.150  15.470
  311BOLB   GL3 7455  22.350  23.170  15.180
  311BOLB   GL4 7456  22.460  23.090  14.900
  311BOLB   C1C 7457  21.910  23.010  15.190
  311BOLB   C2C 7458  21.530  23.110  15.190
  311BOLB   C3C 7459  21.110  23.220  14.980
  311BOLB   C4C 7460  21.020  23.080  14.600
  311BOLB   C1D 7461  22.250  22.740  14.760
  311BOLB   C2D 7462  22.080  22.580  14.390
  311BOLB   C3D 7463  21.860  22.830  14.180
  311BOLB   C4D 7464  21.980  22.890  13.760
  312BOLB   NC1 7465  11.180  25.600  20.120
  312BOLB   PO1 7466  10.830  25.630  20.310
  312BOLB   GL1 7467  10.690  25.820  20.580
  312BOLB   GL2 7468  10.330  25.870  20.560
  312BOLB   C1A 7469  10.820  26.090  20.850
  312BOLB   C2A 7470  11.160  26.160  21.110
  312BOLB   C3A 7471  11.450  26.320  21.480
  312BOLB   C4A 7472  11.600  26.490  21.850
  312BOLB   C1B 7473  10.040  26.230  20.690
  312BOLB   C2B 7474   9.920  26.570  20.660
  312BOLB   C3B 7475   9.920  26.950  21.000
  312BOLB   C4B 7476   9.650  27.150  21.330
  312BOLB   NC2 7477  11.240  28.490  23.470
  312BOLB   PO2 7478  11.140  28.090  23.370
  312BOLB   GL3 7479  11.490  27.910  23.110
  312BOLB   GL4 7480  11.470  28.140  22.830
  312BOLB   C1C 7481  11.700  27.710  22.860
  312BOLB   C2C 7482  11.760  27.510  22.520
  312BOLB   C3C 7483  11.860  27.090  22.310
  312BOLB   C4C 7484  11.680  26.730  22.180
  312BOLB   C1D 7485  11.330  27.850  22.500
  312BOLB   C2D 7486  11.340  27.420  22.300
  312BOLB   C3D 7487  11.230  26.930  22.200
  312BOLB   C4D 7488  11.220  26.510  22.130
  313BOLB   NC1 7489  19.140  22.330  12.400
  313BOLB   PO1 7490  19.500  22.100  12.620
  313BOLB   GL1 7491  19.950  21.840  12.620
  313BOLB   GL2 7492  19.920  21.750  12.340
  313BOLB   C1A 7493  20.380  21.800  12.300
  313BOLB   C2A 7494  20.770  21.730  12.030
  313BOLB   C3A 7495  21.150  21.770  11.730
  313BOLB   C4A 7496  21.400  21.640  12.020
  313BOLB   C1B 7497  20.050  22.170  12.260
  313BOLB   C2B 7498  20.170  22.550  12.110
  313BOLB   C3B 7499  20.010  22.970  11.980
  313BOLB   C4B 7500  19.610  23.280  11.930
  313BOLB   NC2 7501  23.310  22.840  11.850
  313BOLB   PO2 7502  23.260  22.860  12.260
  313BOLB   GL3 7503  22.880  22.680  12.090
  313BOLB   GL4 7504  22.730  22.480  11.840
  313BOLB   C1C 7505  22.470  22.480  12.250
  313BOLB   C2C 7506  22.320  22.110  12.430
  313BOLB   C3C 7507  21.990  21.870  12.430
  313BOLB   C4C 7508  21.750  21.640  12.250
  313BOLB   C1D 7509  22.340  22.620  11.730
  313BOLB   C2D 7510  22.060  22.660  12.040
  313BOLB   C3D 7511  21.880  22.420  12.270
  313BOLB   C4D 7512  21.580  22.100  12.260
  314BOLB   NC1 7513   5.540  13.190  15.240
  314BOLB   PO1 7514   5.270  12.910  15.290
  314BOLB   GL1 7515   5.070  12.620  15.060
  314BOLB   GL2 7516   4.950  12.460  15.340
  314BOLB   C1A 7517   4.670  12.550  14.860
  314BOLB   C2A 7518   4.430  12.330  14.620
  314BOLB   C3A 7519   4.190  12.030  14.390
  314BOLB   C4A 7520   4.020  11.590  14.400
  314BOLB   C1B 7521   4.550  12.170  15.160
  314BOLB   C2B 7522   4.210  11.920  15.390
  314BOLB   C3B 7523   3.960  11.700  15.730
  314BOLB   C4B 7524   3.940  11.340  16.030
  314BOLB   NC2 7525   3.420   9.950  15.840
  314BOLB   PO2 7526   3.180   9.860  15.530
  314BOLB   GL3 7527   3.490  10.030  15.340
  314BOLB   GL4 7528   3.410  10.120  15.180
  314BOLB   C1C 7529   3.570  10.090  14.740
  314BOLB   C2C 7530   3.560  10.380  14.350
  314BOLB   C3C 7531   3.550  10.810  14.230
  314BOLB   C4C 7532   3.710  11.300  14.300
  314BOLB   C1D 7533   3.620  10.500  15.390
  314BOLB   C2D 7534   3.520  10.910  15.250
  314BOLB   C3D 7535   3.600  11.120  14.860
  314BOLB   C4D 7536   3.450  11.590  14.830
  315BOLB   NC1 7537   7.840  14.960  20.310
  315BOLB   PO1 7538   7.890  14.570  20.100
  315BOLB   GL1 7539   7.910  14.460  20.420
  315BOLB   GL2 7540   7.980  14.360  20.770
  315BOLB   C1A 7541   7.580  14.140  20.570
  315BOLB   C2A 7542   7.280  13.750  20.640
  315BOLB   C3A 7543   6.940  13.500  20.820
  315BOLB   C4A 7544   6.590  13.400  21.100
  315BOLB   C1B 7545   7.860  14.090  21.070
  315BOLB   C2B 7546   7.680  14.150  21.440
  315BOLB   C3B 7547   7.350  14.210  21.680
  315BOLB   C4B 7548   7.150  14.060  22.060
  315BOLB   NC2 7549   4.740  12.000  22.470
  315BOLB   PO2 7550   5.010  12.240  22.240
  315BOLB   GL3 7551   5.320  12.300  22.030
  315BOLB   GL4 7552   5.130  12.090  21.730
  315BOLB   C1C 7553   5.750  12.470  21.920
  315BOLB   C2C 7554   5.940  12.750  21.800
  315BOLB   C3C 7555   6.120  13.160  21.650
  315BOLB   C4C 7556   6.320  13.290  21.350
  315BOLB   C1D 7557   5.400  11.780  21.490
  315BOLB   C2D 7558   5.120  11.650  21.150
  315BOLB   C3D 7559   5.010  11.390  20.700
  315BOLB   C4D 7560   5.210  11.330  20.270
  316BOLB   NC1 7561   8.760  11.790  16.810
  316BOLB   PO1 7562   8.760  11.340  16.690
  316BOLB   GL1 7563   8.960  10.880  16.910
  316BOLB   GL2 7564   9.190  10.500  17.000
  316BOLB   C1A 7565   8.740  10.650  17.190
  316BOLB   C2A 7566   8.590  10.350  17.310
  316BOLB   C3A 7567   8.730  10.050  17.580
  316BOLB   C4A 7568   8.850   9.640  17.750
  316BOLB   C1B 7569   9.010  10.140  17.150
  316BOLB   C2B 7570   8.880   9.800  17.160
  316BOLB   C3B 7571   8.460   9.610  17.120
  316BOLB   C4B 7572   8.230  10.020  17.310
  316BOLB   NC2 7573   8.440   8.360  20.220
  316BOLB   PO2 7574   8.280   8.560  19.840
  316BOLB   GL3 7575   8.540   8.510  19.460
  316BOLB   GL4 7576   8.930   8.410  19.490
  316BOLB   C1C 7577   8.630   8.500  19.010
  316BOLB   C2C 7578   8.730   8.810  18.640
  316BOLB   C3C 7579   8.970   9.060  18.370
  316BOLB   C4C 7580   9.000   9.220  18.010
  316BOLB   C1D 7581   9.260   8.690  19.270
  316BOLB   C2D 7582   9.710   8.820  19.450
  316BOLB   C3D 7583  10.050   9.000  19.460
  316BOLB   C4D 7584  10.510   9.060  19.460
  317BOLB   NC1 7585  17.880  14.770  14.600
  317BOLB   PO1 7586  17.930  14.370  14.370
  317BOLB   GL1 7587  18.370  14.240  14.300
  317BOLB   GL2 7588  18.460  13.960  14.350
  317BOLB   C1A 7589  18.780  14.330  14.340
  317BOLB   C2A 7590  19.240  14.190  14.460
  317BOLB   C3A 7591  19.590  14.240  14.650
  317BOLB   C4A 7592  19.860  13.770  14.720
  317BOLB   C1B 7593  18.790  13.760  14.410
  317BOLB   C2B 7594  19.180  13.710  14.450
  317BOLB   C3B 7595  19.550  13.810  14.310
  317BOLB   C4B 7596  19.840  13.730  14.020
  317BOLB   NC2 7597  21.950  12.250  14.850
  317BOLB   PO2 7598  21.650  12.240  15.220
  317BOLB   GL3 7599  21.360  12.500  15.280
  317BOLB   GL4 7600  21.440  12.700  15.520
  317BOLB   C1C 7601  21.130  12.690  15.010
  317BOLB   C2C 7602  20.860  12.950  14.860
  317BOLB   C3C 7603  20.530  13.250  14.640
  317BOLB   C4C 7604  20.270  13.580  14.810
  317BOLB   C1D 7605  21.110  13.060  15.400
  317BOLB   C2D 7606  20.710  13.220  15.470
  317BOLB   C3D 7607  20.250  13.370  15.310
  317BOLB   C4D 7608  20.040  13.750  15.320
  318BOLB   NC1 7609   9.630  16.010  20.830
  318BOLB   PO1 7610   9.610  15.840  21.330
  318BOLB   GL1 7611   9.410  15.570  21.670
  318BOLB   GL2 7612   9.470  15.780  21.960
  318BOLB   C1A 7613   9.050  15.290  21.910
  318BOLB   C2A 7614   8.930  15.020  22.270
  318BOLB   C3A 7615   8.680  14.940  22.700
  318BOLB   C4A 7616   8.370  14.690  23.070
  318BOLB   C1B 7617   9.420  15.440  22.290
  318BOLB   C2B 7618   9.770  15.280  22.650
  318BOLB   C3B 7619   9.820  15.320  23.140
  318BOLB   C4B 7620  10.010  15.610  23.420
  318BOLB   NC2 7621   7.800  12.740  24.380
  318BOLB   PO2 7622   7.410  12.710  24.210
  318BOLB   GL3 7623   7.660  13.110  24.020
  318BOLB   GL4 7624   7.970  12.860  23.960
  318BOLB   C1C 7625   7.770  13.460  23.820
  318BOLB   C2C 7626   7.700  13.760  23.480
  318BOLB   C3C 7627   7.750  13.960  23.140
  318BOLB   C4C 7628   8.100  14.240  23.020
  318BOLB   C1D 7629   8.290  12.970  23.780
  318BOLB   C2D 7630   8.520  12.780  23.510
  318BOLB   C3D 7631   8.620  12.760  23.070
  318BOLB   C4D 7632   8.980  12.930  22.900
  319BOLB   NC1 7633   5.950  15.200  19.110
  319BOLB   PO1 7634   6.120  15.190  19.560
  319BOLB   GL1 7635   6.110  14.740  19.730
  319BOLB   GL2 7636   6.050  14.430  19.610
  319BOLB   C1A 7637   6.010  14.590  20.120
  319BOLB   C2A 7638   5.930  14.470  20.530
  319BOLB   C3A 7639   5.670  14.110  20.650
  319BOLB   C4A 7640   5.520  13.810  20.940
  319BOLB   C1B 7641   5.690  14.090  19.850
  319BOLB   C2B 7642   5.660  13.650  19.840
  319BOLB   C3B 7643   5.650  13.300  20.130
  319BOLB   C4B 7644   5.680  12.790  20.180
  319BOLB   NC2 7645   3.470  13.080  22.410
  319BOLB   PO2 7646   3.870  13.180  22.450
  319BOLB   GL3 7647   4.180  13.270  22.190
  319BOLB   GL4 7648   4.090  13.130  21.940
  319BOLB   C1C 7649   4.470  13.510  21.930
  319BOLB   C2C 7650   4.520  13.580  21.580
  319BOLB   C3C 7651   4.830  13.640  21.300
  319BOLB   C4C 7652   5.200  13.680  21.200
  319BOLB   C1D 7653   4.470  13.050  21.660
  319BOLB   C2D 7654   4.740  13.170  21.350
  319BOLB   C3D 7655   5.130  13.220  21.330
  319BOLB   C4D 7656   5.430  13.290  21.020
  320BOLB   NC1 7657  16.270  23.400  19.120
  320BOLB   PO1 7658  16.610  23.660  19.180
  320BOLB   GL1 7659  16.900  23.730  19.530
  320BOLB   GL2 7660  16.810  24.000  19.610
  320BOLB   C1A 7661  17.060  23.540  20.050
  320BOLB   C2A 7662  17.340  23.450  20.400
  320BOLB   C3A 7663  17.620  23.420  20.770
  320BOLB   C4A 7664  17.780  23.530  21.240
  320BOLB   C1B 7665  17.270  24.120  19.570
  320BOLB   C2B 7666  17.580  24.340  19.800
  320BOLB   C3B 7667  17.760  24.630  19.960
  320BOLB   C4B 7668  18.040  24.800  20.290
  320BOLB   NC2 7669  19.130  23.820  22.800
  320BOLB   PO2 7670  19.140  23.320  22.870
  320BOLB   GL3 7671  19.220  23.220  22.410
  320BOLB   GL4 7672  19.470  23.200  22.150
  320BOLB   C1C 7673  18.780  23.190  22.180
  320BOLB   C2C 7674  18.340  23.330  22.140
  320BOLB   C3C 7675  18.010  23.670  22.080
  320BOLB   C4C 7676  17.830  23.640  21.670
  320BOLB   C1D 7677  19.420  23.150  21.730
  320BOLB   C2D 7678  19.540  23.250  21.230
  320BOLB   C3D 7679  19.340  23.050  20.740
  320BOLB   C4D 7680  19.350  22.870  20.350
  321BOLB   NC1 7681  10.770  27.790  15.440
  321BOLB   PO1 7682  11.180  27.840  15.580
  321BOLB   GL1 7683  11.370  28.240  15.510
  321BOLB   GL2 7684  11.030  28.320  15.470
  321BOLB   C1A 7685  11.470  28.700  15.660
  321BOLB   C2A 7686  11.560  29.190  15.780
  321BOLB   C3A 7687  11.920  29.490  15.820
  321BOLB   C4A 7688  12.330  29.490  15.970
  321BOLB   C1B 7689  10.760  28.700  15.370
  321BOLB   C2B 7690  10.530  28.970  15.640
  321BOLB   C3B 7691  10.240  29.280  15.670
  321BOLB   C4B 7692  10.000  29.660  15.560
  321BOLB   NC2 7693  12.320  31.800  16.360
  321BOLB   PO2 7694  12.550  31.790  16.760
  321BOLB   GL3 7695  12.540  31.270  16.760
  321BOLB   GL4 7696  12.730  31.340  16.950
  321BOLB   C1C 7697  12.410  30.860  16.880
  321BOLB   C2C 7698  12.540  30.580  16.580
  321BOLB   C3C 7699  12.570  30.160  16.460
  321BOLB   C4C 7700  12.510  29.750  16.220
  321BOLB   C1D 7701  12.930  31.060  17.290
  321BOLB   C2D 7702  13.210  30.850  17.590
  321BOLB   C3D 7703  13.380  30.370  17.530
  321BOLB   C4D 7704  13.520  30.080  17.520
  322BOLB   NC1 7705   7.930  15.930  21.470
  322BOLB   PO1 7706   8.070  16.110  21.760
  322BOLB   GL1 7707   7.860  15.980  22.020
  322BOLB   GL2 7708   8.010  15.780  22.170
  322BOLB   C1A 7709   7.520  15.960  22.280
  322BOLB   C2A 7710   7.110  15.700  22.440
  322BOLB   C3A 7711   6.870  15.320  22.340
  322BOLB   C4A 7712   6.600  15.100  22.510
  322BOLB   C1B 7713   7.840  15.560  22.430
  322BOLB   C2B 7714   7.720  15.300  22.710
  322BOLB   C3B 7715   7.740  15.140  23.180
  322BOLB   C4B 7716   7.760  15.300  23.590
  322BOLB   NC2 7717   5.200  13.970  24.500
  322BOLB   PO2 7718   5.000  13.840  24.110
  322BOLB   GL3 7719   5.290  14.110  23.800
  322BOLB   GL4 7720   5.370  14.560  23.780
  322BOLB   C1C 7721   5.710  14.260  23.550
  322BOLB   C2C 7722   5.990  14.650  23.460
  322BOLB   C3C 7723   6.240  14.940  23.220
  322BOLB   C4C 7724   6.280  14.990  22.830
  322BOLB   C1D 7725   5.520  15.100  23.860
  322BOLB   C2D 7726   5.910  15.260  23.550
  322BOLB   C3D 7727   6.150  15.480  23.260
  322BOLB   C4D 7728   6.370  15.470  22.930
  323BOLB   NC1 7729   8.410  12.090  11.100
  323BOLB   PO1 7730   7.970  11.930  10.830
  323BOLB   GL1 7731   7.770  11.650  10.570
  323BOLB   GL2 7732   7.560  11.590  10.830
  323BOLB   C1A 7733   7.610  11.250  10.280
  323BOLB   C2A 7734   7.730  10.880  10.190
  323BOLB   C3A 7735   8.090  10.730  10.160
  323BOLB   C4A 7736   8.040  10.470   9.880
  323BOLB   C1B 7737   7.790  11.190  10.810
  323BOLB   C2B 7738   7.560  10.890  10.740
  323BOLB   C3B 7739   7.530  10.480  10.730
  323BOLB   C4B 7740   7.620  10.070  11.030
  323BOLB   NC2 7741   7.820   8.370   8.530
  323BOLB   PO2 7742   7.970   8.320   8.970
  323BOLB   GL3 7743   8.100   8.760   8.990
  323BOLB   GL4 7744   8.000   9.130   8.930
  323BOLB   C1C 7745   8.400   9.080   9.210
  323BOLB   C2C 7746   8.590   9.560   9.320
  323BOLB   C3C 7747   8.500   9.850   9.600
  323BOLB   C4C 7748   8.190  10.100   9.800
  323BOLB   C1D 7749   7.910   9.560   9.220
  323BOLB   C2D 7750   7.620   9.890   9.240
  323BOLB   C3D 7751   7.490  10.390   9.310
  323BOLB   C4D 7752   7.180  10.760   9.360
  324BOLB   NC1 7753  18.950  15.450  14.000
  324BOLB   PO1 7754  19.230  15.760  13.750
  324BOLB   GL1 7755  19.560  15.540  13.560
  324BOLB   GL2 7756  19.470  15.170  13.450
  324BOLB   C1A 7757  19.940  15.520  13.700
  324BOLB   C2A 7758  20.030  15.190  13.950
  324BOLB   C3A 7759  20.420  14.910  13.980
  324BOLB   C4A 7760  20.600  14.560  13.840
  324BOLB   C1B 7761  19.890  15.050  13.440
  324BOLB   C2B 7762  20.290  15.160  13.450
  324BOLB   C3B 7763  20.660  15.230  13.640
  324BOLB   C4B 7764  20.980  15.580  13.800
  324BOLB   NC2 7765  22.700  13.790  12.820
  324BOLB   PO2 7766  22.670  13.720  13.260
  324BOLB   GL3 7767  22.300  13.710  13.160
  324BOLB   GL4 7768  22.270  13.920  12.850
  324BOLB   C1C 7769  21.960  13.610  13.300
  324BOLB   C2C 7770  21.540  13.610  13.290
  324BOLB   C3C 7771  21.150  13.870  13.480
  324BOLB   C4C 7772  20.780  14.130  13.650
  324BOLB   C1D 7773  21.800  13.900  12.880
  324BOLB   C2D 7774  21.470  14.130  12.980
  324BOLB   C3D 7775  21.160  14.240  13.140
  324BOLB   C4D 7776  20.870  14.490  13.310
  325BOLB   NC1 7777   5.370  15.830  19.260
  325BOLB   PO1 7778   5.510  15.950  19.640
  325BOLB   GL1 7779   5.160  15.830  19.700
  325BOLB   GL2 7780   5.330  15.520  19.670
  325BOLB   C1A 7781   4.930  15.430  19.890
  325BOLB   C2A 7782   4.910  15.210  20.220
  325BOLB   C3A 7783   4.900  15.360  20.650
  325BOLB   C4A 7784   4.630  15.240  20.920
  325BOLB   C1B 7785   5.410  15.330  20.060
  325BOLB   C2B 7786   5.290  15.130  20.500
  325BOLB   C3B 7787   4.980  14.840  20.700
  325BOLB   C4B 7788   4.870  14.580  21.050
  325BOLB   NC2 7789   3.900  13.720  22.410
  325BOLB   PO2 7790   3.700  13.480  21.990
  325BOLB   GL3 7791   3.990  13.650  21.810
  325BOLB   GL4 7792   4.060  13.500  21.550
  325BOLB   C1C 7793   4.270  13.940  21.870
  325BOLB   C2C 7794   4.560  14.120  21.550
  325BOLB   C3C 7795   4.420  14.540  21.420
  325BOLB   C4C 7796   4.460  14.840  21.090
  325BOLB   C1D 7797   3.880  13.520  21.180
  325BOLB   C2D 7798   4.000  13.720  20.750
  325BOLB   C3D 7799   4.090  13.730  20.350
  325BOLB   C4D 7800   4.140  13.590  20.030
  326BOLB   NC1 7801  19.120  15.960  14.220
  326BOLB   PO1 7802  19.330  15.660  14.370
  326BOLB   GL1 7803  19.700  15.420  14.400
  326BOLB   GL2 7804  19.750  15.080  14.350
  326BOLB   C1A 7805  20.030  15.390  14.730
  326BOLB   C2A 7806  20.210  15.200  15.000
  326BOLB   C3A 7807  20.500  15.250  15.330
  326BOLB   C4A 7808  20.860  15.400  15.400
  326BOLB   C1B 7809  20.160  14.930  14.440
  326BOLB   C2B 7810  20.450  14.810  14.600
  326BOLB   C3B 7811  20.560  14.820  15.040
  326BOLB   C4B 7812  20.800  14.490  15.300
  326BOLB   NC2 7813  22.450  14.420  17.280
  326BOLB   PO2 7814  22.570  14.490  16.870
  326BOLB   GL3 7815  22.380  14.730  16.640
  326BOLB   GL4 7816  22.500  15.030  16.740
  326BOLB   C1C 7817  22.050  14.890  16.220
  326BOLB   C2C 7818  21.720  14.890  16.170
  326BOLB   C3C 7819  21.360  14.980  16.090
  326BOLB   C4C 7820  21.250  15.250  15.590
  326BOLB   C1D 7821  22.100  15.160  16.590
  326BOLB   C2D 7822  21.820  15.360  16.390
  326BOLB   C3D 7823  21.570  15.640  16.350
  326BOLB   C4D 7824  21.210  15.660  16.430
  327BOLB   NC1 7825   7.940  20.540  22.470
  327BOLB   PO1 7826   8.040  20.340  22.830
  327BOLB   GL1 7827   7.960  20.560  23.320
  327BOLB   GL2 7828   8.000  20.820  23.300
  327BOLB   C1A 7829   7.850  20.340  23.690
  327BOLB   C2A 7830   7.740  20.330  24.070
  327BOLB   C3A 7831   7.340  20.380  24.310
  327BOLB   C4A 7832   6.960  20.200  24.660
  327BOLB   C1B 7833   8.140  20.730  23.740
  327BOLB   C2B 7834   8.140  20.610  24.210
  327BOLB   C3B 7835   8.260  20.770  24.630
  327BOLB   C4B 7836   8.180  20.690  25.080
  327BOLB   NC2 7837   5.850  18.230  26.100
  327BOLB   PO2 7838   6.000  18.600  26.060
  327BOLB   GL3 7839   6.310  18.700  25.790
  327BOLB   GL4 7840   6.430  18.370  25.790
  327BOLB   C1C 7841   6.550  19.120  25.750
  327BOLB   C2C 7842   6.720  19.360  25.380
  327BOLB   C3C 7843   6.650  19.560  25.100
  327BOLB   C4C 7844   6.720  19.840  24.790
  327BOLB   C1D 7845   6.590  18.420  25.410
  327BOLB   C2D 7846   6.290  18.490  25.060
  327BOLB   C3D 7847   6.430  18.440  24.600
  327BOLB   C4D 7848   6.370  18.840  24.290
  328BOLB   NC1 7849   4.800  18.930   9.360
  328BOLB   PO1 7850   4.460  18.740   9.230
  328BOLB   GL1 7851   3.960  18.800   9.170
  328BOLB   GL2 7852   4.000  18.860   8.820
  328BOLB   C1A 7853   3.550  18.920   8.920
  328BOLB   C2A 7854   3.390  18.940   8.520
  328BOLB   C3A 7855   3.100  18.990   8.260
  328BOLB   C4A 7856   2.760  18.900   8.050
  328BOLB   C1B 7857   4.020  18.790   8.380
  328BOLB   C2B 7858   3.730  18.400   8.390
  328BOLB   C3B 7859   3.260  18.460   8.370
  328BOLB   C4B 7860   2.850  18.450   8.150
  328BOLB   NC2 7861   1.190  17.280   7.240
  328BOLB   PO2 7862   1.360  17.410   6.930
  328BOLB   GL3 7863   1.470  17.860   6.960
  328BOLB   GL4 7864   1.260  18.160   6.970
  328BOLB   C1C 7865   1.730  18.080   7.090
  328BOLB   C2C 7866   2.000  18.340   7.300
  328BOLB   C3C 7867   2.330  18.440   7.420
  328BOLB   C4C 7868   2.550  18.550   7.670
  328BOLB   C1D 7869   1.460  18.240   7.410
  328BOLB   C2D 7870   1.710  18.060   7.660
  328BOLB   C3D 7871   1.640  17.670   7.900
  328BOLB   C4D 7872   1.860  17.290   8.050
  329BOLB   NC1 7873  18.810  16.710  17.410
  329BOLB   PO1 7874  19.090  16.380  17.310
  329BOLB   GL1 7875  19.370  16.160  17.550
  329BOLB   GL2 7876  19.360  16.190  17.810
  329BOLB   C1A 7877  19.830  16.030  17.660
  329BOLB   C2A 7878  20.050  16.060  18.000
  329BOLB   C3A 7879  20.160  16.210  18.400
  329BOLB   C4A 7880  20.390  16.450  18.710
  329BOLB   C1B 7881  19.430  16.260  18.250
  329BOLB   C2B 7882  19.440  16.320  18.760
  329BOLB   C3B 7883  19.410  16.000  19.040
  329BOLB   C4B 7884  19.590  15.730  19.340
  329BOLB   NC2 7885  21.780  16.950  20.520
  329BOLB   PO2 7886  22.000  17.290  20.350
  329BOLB   GL3 7887  21.600  17.250  20.080
  329BOLB   GL4 7888  21.360  17.230  20.330
  329BOLB   C1C 7889  21.450  16.990  19.790
  329BOLB   C2C 7890  21.270  16.620  19.570
  329BOLB   C3C 7891  20.900  16.670  19.320
  329BOLB   C4C 7892  20.690  16.650  18.940
  329BOLB   C1D 7893  21.130  17.330  19.990
  329BOLB   C2D 7894  20.990  17.630  19.700
  329BOLB   C3D 7895  20.660  17.600  19.280
  329BOLB   C4D 7896  20.730  17.820  18.870
  330BOLB   NC1 7897   8.880  10.290  14.190
  330BOLB   PO1 7898   9.360  10.410  14.190
  330BOLB   GL1 7899   9.290  10.040  14.320
  330BOLB   GL2 7900   9.110  10.110  14.620
  330BOLB   C1A 7901   8.950   9.630  14.410
  330BOLB   C2A 7902   8.710   9.200  14.270
  330BOLB   C3A 7903   8.880   8.800  14.230
  330BOLB   C4A 7904   8.940   8.430  14.200
  330BOLB   C1B 7905   9.210   9.740  14.810
  330BOLB   C2B 7906   9.290   9.300  14.740
  330BOLB   C3B 7907   9.660   9.020  14.660
  330BOLB   C4B 7908   9.820   8.810  14.350
  330BOLB   NC2 7909   7.110   7.040  13.560
  330BOLB   PO2 7910   7.570   7.170  13.760
  330BOLB   GL3 7911   7.550   7.590  13.490
  330BOLB   GL4 7912   7.270   7.720  13.330
  330BOLB   C1C 7913   7.860   7.840  13.200
  330BOLB   C2C 7914   8.310   7.960  13.300
  330BOLB   C3C 7915   8.670   7.940  13.450
  330BOLB   C4C 7916   8.960   8.130  13.780
  330BOLB   C1D 7917   7.430   8.140  13.310
  330BOLB   C2D 7918   7.790   8.350  13.250
  330BOLB   C3D 7919   8.230   8.390  13.220
  330BOLB   C4D 7920   8.240   8.730  13.000
  331BOLB   NC1 7921  11.510  25.090  20.220
  331BOLB   PO1 7922  11.280  25.260  20.530
  331BOLB   GL1 7923  11.060  25.530  20.860
  331BOLB   GL2 7924  11.370  25.710  21.050
  331BOLB   C1A 7925  10.900  25.730  21.300
  331BOLB   C2A 7926  10.600  25.920  21.620
  331BOLB   C3A 7927  10.490  26.140  21.970
  331BOLB   C4A 7928  10.570  26.400  22.380
  331BOLB   C1B 7929  11.380  25.870  21.510
  331BOLB   C2B 7930  11.360  26.050  21.880
  331BOLB   C3B 7931  11.410  25.880  22.320
  331BOLB   C4B 7932  11.210  25.820  22.700
  331BOLB   NC2 7933   9.310  27.260  24.760
  331BOLB   PO2 7934   9.310  27.340  24.370
  331BOLB   GL3 7935   9.560  27.300  23.980
  331BOLB   GL4 7936   9.390  27.420  23.750
  331BOLB   C1C 7937   9.900  27.370  23.710
  331BOLB   C2C 7938   9.930  27.210  23.310
  331BOLB   C3C 7939  10.100  26.980  22.950
  331BOLB   C4C 7940  10.320  26.800  22.610
  331BOLB   C1D 7941   9.460  27.270  23.330
  331BOLB   C2D 7942   9.600  27.340  22.880
  331BOLB   C3D 7943   9.510  27.120  22.510
  331BOLB   C4D 7944   9.690  26.870  22.210
  332BOLB   NC1 7945   3.830  19.060  19.960
  332BOLB   PO1 7946   3.830  18.620  19.850
  332BOLB   GL1 7947   3.550  18.450  20.090
  332BOLB   GL2 7948   3.490  18.800  20.250
  332BOLB   C1A 7949   3.240  18.350  20.440
  332BOLB   C2A 7950   3.070  18.060  20.460
  332BOLB   C3A 7951   2.910  17.790  20.670
  332BOLB   C4A 7952   2.530  17.510  20.660
  332BOLB   C1B 7953   3.200  18.770  20.730
  332BOLB   C2B 7954   2.790  18.880  20.870
  332BOLB   C3B 7955   2.380  18.820  21.060
  332BOLB   C4B 7956   2.170  19.070  21.350
  332BOLB   NC2 7957   0.410  16.630  21.290
  332BOLB   PO2 7958   0.020  16.900  21.260
  332BOLB   GL3 7959   0.480  16.960  20.950
  332BOLB   GL4 7960   0.630  16.660  20.870
  332BOLB   C1C 7961   1.030  16.990  20.850
  332BOLB   C2C 7962   1.380  17.120  20.790
  332BOLB   C3C 7963   1.770  17.170  20.680
  332BOLB   C4C 7964   2.050  17.480  20.610
  332BOLB   C1D 7965   0.920  16.520  20.490
  332BOLB   C2D 7966   0.980  16.340  20.140
  332BOLB   C3D 7967   1.290  16.350  19.870
  332BOLB   C4D 7968   1.460  16.570  19.550
  333BOLB   NC1 7969  35.210  17.320  19.320
  333BOLB   PO1 7970  35.330  17.560  19.710
  333BOLB   GL1 7971  35.680  17.850  19.840
  333BOLB   GL2 7972  35.820  18.050  19.610
  333BOLB   C1A 7973  36.010  17.800  19.980
  333BOLB   C2A 7974   0.070  18.070  19.750
  333BOLB   C3A 7975   0.180  18.410  19.450
  333BOLB   C4A 7976   0.320  18.790  19.460
  333BOLB   C1B 7977  36.050  17.770  19.420
  333BOLB   C2B 7978   0.120  17.830  19.340
  333BOLB   C3B 7979   0.500  18.040  19.380
  333BOLB   C4B 7980   0.740  18.460  19.470
  333BOLB   NC2 7981  35.270  19.980  20.310
  333BOLB   PO2 7982  35.240  20.050  19.780
  333BOLB   GL3 7983  35.540  19.940  19.580
  333BOLB   GL4 7984  35.610  20.110  19.280
  333BOLB   C1C 7985  36.030  20.070  19.760
  333BOLB   C2C 7986   0.120  19.920  19.720
  333BOLB   C3C 7987   0.250  19.560  19.640
  333BOLB   C4C 7988   0.460  19.190  19.670
  333BOLB   C1D 7989  35.970  20.040  18.960
  333BOLB   C2D 7990  35.940  20.130  18.490
  333BOLB   C3D 7991  35.920  20.230  18.020
  333BOLB   C4D 7992  35.850  19.790  17.770
  334BOLB   NC1 7993  20.110  18.460  11.250
  334BOLB   PO1 7994  19.820  18.430  10.870
  334BOLB   GL1 7995  20.270  18.340  10.820
  334BOLB   GL2 7996  20.250  18.330  10.560
  334BOLB   C1A 7997  20.650  18.560  10.800
  334BOLB   C2A 7998  20.800  18.950  10.730
  334BOLB   C3A 7999  20.990  19.270  10.800
  334BOLB   C4A 8000  21.040  19.730  10.740
  334BOLB   C1B 8001  20.400  18.260  10.180
  334BOLB   C2B 8002  20.510  17.770  10.120
  334BOLB   C3B 8003  20.410  17.400   9.930
  334BOLB   C4B 8004  20.560  17.090   9.510
  334BOLB   NC2 8005  23.740  20.130  10.850
  334BOLB   PO2 8006  23.270  20.190  10.710
  334BOLB   GL3 8007  22.890  20.450  10.760
  334BOLB   GL4 8008  22.720  20.580  10.580
  334BOLB   C1C 8009  22.370  20.320  10.800
  334BOLB   C2C 8010  22.080  20.190  11.030
  334BOLB   C3C 8011  21.770  19.970  10.960
  334BOLB   C4C 8012  21.450  19.810  10.810
  334BOLB   C1D 8013  22.340  20.640  10.350
  334BOLB   C2D 8014  21.980  20.540  10.580
  334BOLB   C3D 8015  21.690  20.510  10.930
  334BOLB   C4D 8016  21.470  20.460  11.270
  335BOLB   NC1 8017  14.520  25.470  19.170
  335BOLB   PO1 8018  15.000  25.630  19.030
  335BOLB   GL1 8019  14.840  25.810  19.420
  335BOLB   GL2 8020  14.600  25.930  19.430
  335BOLB   C1A 8021  14.930  25.790  19.850
  335BOLB   C2A 8022  15.160  25.980  20.230
  335BOLB   C3A 8023  15.260  26.320  20.480
  335BOLB   C4A 8024  15.310  26.760  20.580
  335BOLB   C1B 8025  14.740  26.210  19.720
  335BOLB   C2B 8026  14.690  26.680  19.620
  335BOLB   C3B 8027  14.640  27.040  19.710
  335BOLB   C4B 8028  14.640  27.540  19.640
  335BOLB   NC2 8029  16.020  28.350  21.870
  335BOLB   PO2 8030  16.320  28.350  21.910
  335BOLB   GL3 8031  16.560  28.080  21.590
  335BOLB   GL4 8032  16.790  27.840  21.770
  335BOLB   C1C 8033  16.260  27.810  21.350
  335BOLB   C2C 8034  15.880  27.700  21.100
  335BOLB   C3C 8035  15.630  27.480  20.910
  335BOLB   C4C 8036  15.440  27.140  20.700
  335BOLB   C1D 8037  16.960  27.320  21.660
  335BOLB   C2D 8038  16.890  26.870  21.650
  335BOLB   C3D 8039  16.560  26.530  21.520
  335BOLB   C4D 8040  16.550  26.110  21.340
  336BOLB   NC1 8041  16.280  24.700  19.230
  336BOLB   PO1 8042  16.590  24.590  18.980
  336BOLB   GL1 8043  16.730  24.620  19.340
  336BOLB   GL2 8044  17.120  24.620  19.400
  336BOLB   C1A 8045  16.720  24.780  19.740
  336BOLB   C2A 8046  16.900  25.030  20.090
  336BOLB   C3A 8047  16.870  25.510  20.330
  336BOLB   C4A 8048  16.780  25.950  20.470
  336BOLB   C1B 8049  17.470  24.850  19.630
  336BOLB   C2B 8050  17.710  25.160  19.700
  336BOLB   C3B 8051  17.930  25.360  20.080
  336BOLB   C4B 8052  18.250  25.260  20.390
  336BOLB   NC2 8053  17.280  28.560  21.050
  336BOLB   PO2 8054  16.890  28.580  21.080
  336BOLB   GL3 8055  16.960  28.090  21.310
  336BOLB   GL4 8056  17.180  28.010  21.030
  336BOLB   C1C 8057  16.730  27.650  21.310
  336BOLB   C2C 8058  16.680  27.140  21.230
  336BOLB   C3C 8059  16.740  26.730  21.010
  336BOLB   C4C 8060  16.650  26.250  20.830
  336BOLB   C1D 8061  17.050  27.670  20.880
  336BOLB   C2D 8062  16.700  27.400  20.830
  336BOLB   C3D 8063  16.560  27.050  20.630
  336BOLB   C4D 8064  16.390  26.650  20.640
  337BOLB   NC1 8065   2.290  22.410  15.820
  337BOLB   PO1 8066   1.940  22.510  15.810
  337BOLB   GL1 8067   1.570  22.740  16.060
  337BOLB   GL2 8068   1.500  23.070  16.070
  337BOLB   C1A 8069   1.180  22.760  16.330
  337BOLB   C2A 8070   0.670  23.050  16.380
  337BOLB   C3A 8071   0.230  23.090  16.520
  337BOLB   C4A 8072  36.310  23.070  16.890
  337BOLB   C1B 8073   1.140  23.190  15.870
  337BOLB   C2B 8074   0.660  23.240  15.890
  337BOLB   C3B 8075   0.250  23.280  16.090
  337BOLB   C4B 8076  36.190  23.420  15.950
  337BOLB   NC2 8077  33.870  21.950  18.060
  337BOLB   PO2 8078  34.300  22.240  18.060
  337BOLB   GL3 8079  34.540  22.390  17.720
  337BOLB   GL4 8080  34.590  22.070  17.510
  337BOLB   C1C 8081  34.970  22.500  17.620
  337BOLB   C2C 8082  35.230  22.660  17.330
  337BOLB   C3C 8083  35.630  22.620  17.060
  337BOLB   C4C 8084  36.090  22.740  16.990
  337BOLB   C1D 8085  34.680  22.420  17.210
  337BOLB   C2D 8086  34.980  22.490  16.900
  337BOLB   C3D 8087  35.460  22.310  16.720
  337BOLB   C4D 8088  35.890  22.390  16.680
  338BOLB   NC1 8089   7.990  12.480  17.760
  338BOLB   PO1 8090   7.710  12.600  18.110
  338BOLB   GL1 8091   7.400  12.230  18.200
  338BOLB   GL2 8092   7.100  12.250  18.140
  338BOLB   C1A 8093   7.290  11.870  18.410
  338BOLB   C2A 8094   7.510  11.740  18.750
  338BOLB   C3A 8095   7.560  11.500  19.100
  338BOLB   C4A 8096   7.580  11.190  19.340
  338BOLB   C1B 8097   6.780  11.920  18.210
  338BOLB   C2B 8098   6.880  11.620  18.520
  338BOLB   C3B 8099   7.090  11.430  18.730
  338BOLB   C4B 8100   7.130  11.240  19.050
  338BOLB   NC2 8101   6.410   9.570  21.170
  338BOLB   PO2 8102   6.420   9.590  20.680
  338BOLB   GL3 8103   6.430   9.810  20.320
  338BOLB   GL4 8104   6.650   9.600  20.100
  338BOLB   C1C 8105   6.370  10.120  20.040
  338BOLB   C2C 8106   6.640  10.390  19.810
  338BOLB   C3C 8107   6.920  10.600  19.490
  338BOLB   C4C 8108   7.230  10.810  19.310
  338BOLB   C1D 8109   6.870  10.010  20.170
  338BOLB   C2D 8110   7.170  10.330  20.030
  338BOLB   C3D 8111   7.180  10.740  19.850
  338BOLB   C4D 8112   6.920  11.060  19.660
  339BOLB   NC1 8113  13.310  23.990  21.670
  339BOLB   PO1 8114  13.670  23.990  21.350
  339BOLB   GL1 8115  13.810  24.220  21.710
  339BOLB   GL2 8116  13.790  24.120  22.000
  339BOLB   C1A 8117  14.150  24.440  21.960
  339BOLB   C2A 8118  14.170  24.730  22.270
  339BOLB   C3A 8119  13.960  25.150  22.430
  339BOLB   C4A 8120  13.800  25.430  22.710
  339BOLB   C1B 8121  14.190  24.140  22.330
  339BOLB   C2B 8122  14.640  24.030  22.370
  339BOLB   C3B 8123  14.940  23.790  22.730
  339BOLB   C4B 8124  14.750  23.570  23.120
  339BOLB   NC2 8125  15.150  27.650  23.560
  339BOLB   PO2 8126  14.760  27.390  23.680
  339BOLB   GL3 8127  14.640  27.070  23.410
  339BOLB   GL4 8128  14.650  27.050  23.060
  339BOLB   C1C 8129  14.180  26.860  23.290
  339BOLB   C2C 8130  13.920  26.450  23.190
  339BOLB   C3C 8131  13.940  26.180  22.820
  339BOLB   C4C 8132  13.720  25.780  22.730
  339BOLB   C1D 8133  14.400  26.860  22.800
  339BOLB   C2D 8134  14.020  26.700  22.750
  339BOLB   C3D 8135  13.530  26.540  22.800
  339BOLB   C4D 8136  13.200  26.550  22.560
  340BOLB   NC1 8137  14.850  23.080  20.780
  340BOLB   PO1 8138  14.720  23.340  21.040
  340BOLB   GL1 8139  14.940  23.360  21.410
  340BOLB   GL2 8140  14.870  23.110  21.620
  340BOLB   C1A 8141  15.230  23.610  21.570
  340BOLB   C2A 8142  15.580  23.590  21.840
  340BOLB   C3A 8143  15.830  23.570  22.280
  340BOLB   C4A 8144  16.190  23.580  22.590
  340BOLB   C1B 8145  15.050  23.340  22.000
  340BOLB   C2B 8146  15.360  23.230  22.220
  340BOLB   C3B 8147  15.750  23.100  22.250
  340BOLB   C4B 8148  16.140  22.960  22.310
  340BOLB   NC2 8149  17.790  24.210  23.940
  340BOLB   PO2 8150  17.880  23.690  23.960
  340BOLB   GL3 8151  17.640  23.470  23.590
  340BOLB   GL4 8152  17.440  23.290  23.760
  340BOLB   C1C 8153  17.430  23.570  23.150
  340BOLB   C2C 8154  17.250  23.420  22.670
  340BOLB   C3C 8155  16.870  23.520  22.490
  340BOLB   C4C 8156  16.530  23.740  22.650
  340BOLB   C1D 8157  17.100  23.590  23.580
  340BOLB   C2D 8158  16.690  23.720  23.450
  340BOLB   C3D 8159  16.470  23.930  23.100
  340BOLB   C4D 8160  16.360  24.360  23.070
  341BOLB   NC1 8161   4.920  20.260  20.600
  341BOLB   PO1 8162   4.760  20.180  21.010
  341BOLB   GL1 8163   4.600  20.190  21.300
  341BOLB   GL2 8164   4.820  20.110  21.500
  341BOLB   C1A 8165   4.410  20.470  21.650
  341BOLB   C2A 8166   4.160  20.790  21.840
  341BOLB   C3A 8167   3.880  21.010  22.040
  341BOLB   C4A 8168   3.490  20.980  22.330
  341BOLB   C1B 8169   4.430  19.890  21.850
  341BOLB   C2B 8170   4.180  19.900  22.290
  341BOLB   C3B 8171   3.820  19.960  22.530
  341BOLB   C4B 8172   3.720  19.950  22.960
  341BOLB   NC2 8173   1.660  20.770  23.910
  341BOLB   PO2 8174   1.720  21.190  23.800
  341BOLB   GL3 8175   1.960  21.100  23.610
  341BOLB   GL4 8176   2.090  20.890  23.360
  341BOLB   C1C 8177   2.340  21.270  23.460
  341BOLB   C2C 8178   2.760  21.300  23.080
  341BOLB   C3C 8179   2.820  21.100  22.630
  341BOLB   C4C 8180   3.090  20.910  22.350
  341BOLB   C1D 8181   2.470  20.780  23.380
  341BOLB   C2D 8182   2.950  20.570  23.270
  341BOLB   C3D 8183   3.220  20.280  22.990
  341BOLB   C4D 8184   3.120  20.080  22.550
  342BOLB   NC1 8185  16.540  21.630  19.670
  342BOLB   PO1 8186  16.850  21.720  19.800
  342BOLB   GL1 8187  16.920  21.780  20.230
  342BOLB   GL2 8188  16.960  21.450  20.270
  342BOLB   C1A 8189  17.180  21.790  20.600
  342BOLB   C2A 8190  17.410  21.860  21.010
  342BOLB   C3A 8191  17.580  22.170  21.300
  342BOLB   C4A 8192  17.910  22.550  21.280
  342BOLB   C1B 8193  17.140  21.240  20.650
  342BOLB   C2B 8194  17.360  20.950  20.870
  342BOLB   C3B 8195  17.780  20.950  20.990
  342BOLB   C4B 8196  18.000  20.790  21.320
  342BOLB   NC2 8197  19.100  24.330  22.370
  342BOLB   PO2 8198  19.390  23.980  22.390
  342BOLB   GL3 8199  19.190  23.730  22.070
  342BOLB   GL4 8200  19.440  23.720  21.950
  342BOLB   C1C 8201  18.980  23.380  21.790
  342BOLB   C2C 8202  18.640  23.070  21.680
  342BOLB   C3C 8203  18.230  23.080  21.740
  342BOLB   C4C 8204  18.050  22.790  21.560
  342BOLB   C1D 8205  19.240  23.710  21.470
  342BOLB   C2D 8206  18.890  23.480  21.270
  342BOLB   C3D 8207  18.600  23.630  20.910
  342BOLB   C4D 8208  18.170  23.590  20.900
  343BOLB   NC1 8209   6.570  15.380  19.650
  343BOLB   PO1 8210   6.580  14.920  19.580
  343BOLB   GL1 8211   6.570  14.510  19.890
  343BOLB   GL2 8212   6.880  14.410  19.870
  343BOLB   C1A 8213   6.290  14.190  20.060
  343BOLB   C2A 8214   5.960  13.950  20.270
  343BOLB   C3A 8215   5.930  13.600  20.400
  343BOLB   C4A 8216   5.790  13.470  20.670
  343BOLB   C1B 8217   6.770  14.020  19.920
  343BOLB   C2B 8218   6.720  13.530  19.980
  343BOLB   C3B 8219   6.700  13.100  20.040
  343BOLB   C4B 8220   6.670  12.770  20.280
  343BOLB   NC2 8221   4.550  13.080  22.520
  343BOLB   PO2 8222   4.910  13.050  22.500
  343BOLB   GL3 8223   5.400  13.000  22.430
  343BOLB   GL4 8224   5.340  12.810  22.130
  343BOLB   C1C 8225   5.720  13.200  22.140
  343BOLB   C2C 8226   5.790  13.460  21.850
  343BOLB   C3C 8227   5.640  13.640  21.470
  343BOLB   C4C 8228   5.860  13.530  21.120
  343BOLB   C1D 8229   5.410  13.030  21.790
  343BOLB   C2D 8230   5.640  13.140  21.480
  343BOLB   C3D 8231   5.980  12.980  21.220
  343BOLB   C4D 8232   6.070  12.990  20.890
  344BOLB   NC1 8233   4.240  14.830  17.910
  344BOLB   PO1 8234   4.260  15.220  18.000
  344BOLB   GL1 8235   4.020  15.030  18.390
  344BOLB   GL2 8236   3.830  14.940  18.170
  344BOLB   C1A 8237   4.060  14.620  18.590
  344BOLB   C2A 8238   3.910  14.420  18.900
  344BOLB   C3A 8239   3.590  14.130  18.900
  344BOLB   C4A 8240   3.410  13.820  18.660
  344BOLB   C1B 8241   3.400  14.830  18.230
  344BOLB   C2B 8242   3.060  14.540  18.260
  344BOLB   C3B 8243   2.760  14.460  18.520
  344BOLB   C4B 8244   2.690  14.480  18.850
  344BOLB   NC2 8245   1.820  12.180  19.310
  344BOLB   PO2 8246   1.800  12.280  18.890
  344BOLB   GL3 8247   2.210  12.390  19.130
  344BOLB   GL4 8248   2.300  12.410  19.420
  344BOLB   C1C 8249   2.610  12.670  19.060
  344BOLB   C2C 8250   2.810  12.820  18.760
  344BOLB   C3C 8251   3.180  13.060  18.580
  344BOLB   C4C 8252   3.400  13.460  18.660
  344BOLB   C1D 8253   2.270  12.900  19.310
  344BOLB   C2D 8254   2.470  13.200  18.990
  344BOLB   C3D 8255   2.540  13.640  18.960
  344BOLB   C4D 8256   2.620  14.020  18.740
  345BOLB   NC1 8257  19.750  17.870  16.310
  345BOLB   PO1 8258  19.970  17.970  15.860
  345BOLB   GL1 8259  20.250  18.010  16.150
  345BOLB   GL2 8260  20.340  17.780  16.380
  345BOLB   C1A 8261  20.550  18.330  16.240
  345BOLB   C2A 8262  20.890  18.290  16.540
  345BOLB   C3A 8263  21.270  18.380  16.840
  345BOLB   C4A 8264  21.670  18.300  17.100
  345BOLB   C1B 8265  20.690  17.860  16.420
  345BOLB   C2B 8266  21.190  17.820  16.560
  345BOLB   C3B 8267  21.410  17.880  16.980
  345BOLB   C4B 8268  21.370  17.970  17.460
  345BOLB   NC2 8269  23.930  17.690  17.160
  345BOLB   PO2 8270  23.670  17.420  16.920
  345BOLB   GL3 8271  23.120  17.450  16.870
  345BOLB   GL4 8272  22.980  17.230  16.780
  345BOLB   C1C 8273  22.740  17.540  17.140
  345BOLB   C2C 8274  22.350  17.520  17.260
  345BOLB   C3C 8275  22.030  17.710  17.430
  345BOLB   C4C 8276  21.830  18.020  17.330
  345BOLB   C1D 8277  22.610  17.440  16.620
  345BOLB   C2D 8278  22.350  17.760  16.430
  345BOLB   C3D 8279  21.980  17.840  16.280
  345BOLB   C4D 8280  21.630  17.640  16.190
  346BOLB   NC1 8281  16.460  16.050  20.270
  346BOLB   PO1 8282  16.300  16.370  20.510
  346BOLB   GL1 8283  16.540  16.460  20.800
  346BOLB   GL2 8284  16.870  16.540  20.660
  346BOLB   C1A 8285  16.660  16.250  21.270
  346BOLB   C2A 8286  16.660  15.910  21.610
  346BOLB   C3A 8287  16.910  15.500  21.890
  346BOLB   C4A 8288  17.010  15.240  22.030
  346BOLB   C1B 8289  17.020  16.540  21.080
  346BOLB   C2B 8290  17.150  16.510  21.500
  346BOLB   C3B 8291  17.370  16.510  21.890
  346BOLB   C4B 8292  17.680  16.460  22.210
  346BOLB   NC2 8293  19.200  16.020  23.300
  346BOLB   PO2 8294  18.760  15.800  23.420
  346BOLB   GL3 8295  18.370  15.780  23.290
  346BOLB   GL4 8296  18.120  15.870  23.500
  346BOLB   C1C 8297  18.140  15.410  23.030
  346BOLB   C2C 8298  17.910  15.010  23.000
  346BOLB   C3C 8299  17.620  15.070  22.630
  346BOLB   C4C 8300  17.270  15.100  22.360
  346BOLB   C1D 8301  17.910  15.830  23.120
  346BOLB   C2D 8302  17.570  15.890  22.810
  346BOLB   C3D 8303  17.200  15.990  22.640
  346BOLB   C4D 8304  16.750  15.860  22.800
  347BOLB   NC1 8305  14.690  23.960  20.790
  347BOLB   PO1 8306  14.430  24.310  20.740
  347BOLB   GL1 8307  14.620  24.390  21.100
  347BOLB   GL2 8308  14.420  24.460  21.330
  347BOLB   C1A 8309  14.840  24.610  21.410
  347BOLB   C2A 8310  15.070  24.980  21.540
  347BOLB   C3A 8311  15.370  25.220  21.680
  347BOLB   C4A 8312  15.400  25.440  22.020
  347BOLB   C1B 8313  14.260  24.720  21.570
  347BOLB   C2B 8314  14.500  24.890  21.870
  347BOLB   C3B 8315  14.980  24.980  22.070
  347BOLB   C4B 8316  15.480  24.840  22.090
  347BOLB   NC2 8317  15.950  26.150  23.940
  347BOLB   PO2 8318  15.860  26.580  23.850
  347BOLB   GL3 8319  15.720  26.420  23.500
  347BOLB   GL4 8320  15.700  26.090  23.520
  347BOLB   C1C 8321  15.670  26.340  23.120
  347BOLB   C2C 8322  15.820  26.070  22.880
  347BOLB   C3C 8323  15.580  25.960  22.650
  347BOLB   C4C 8324  15.400  25.720  22.330
  347BOLB   C1D 8325  15.530  25.780  23.200
  347BOLB   C2D 8326  15.180  25.650  22.970
  347BOLB   C3D 8327  14.980  25.620  22.610
  347BOLB   C4D 8328  14.860  25.410  22.230
  348BOLB   NC1 8329  12.160  25.540  20.490
  348BOLB   PO1 8330  12.130  25.840  20.180
  348BOLB   GL1 8331  11.980  26.340  20.140
  348BOLB   GL2 8332  12.160  26.470  20.400
  348BOLB   C1A 8333  11.820  26.740  20.160
  348BOLB   C2A 8334  11.640  27.050  20.480
  348BOLB   C3A 8335  11.340  27.220  20.820
  348BOLB   C4A 8336  11.390  27.530  21.190
  348BOLB   C1B 8337  12.060  26.800  20.740
  348BOLB   C2B 8338  11.870  26.960  21.130
  348BOLB   C3B 8339  11.850  27.310  21.410
  348BOLB   C4B 8340  12.150  27.640  21.620
  348BOLB   NC2 8341  12.520  28.930  22.780
  348BOLB   PO2 8342  12.240  29.240  22.630
  348BOLB   GL3 8343  11.870  29.200  22.320
  348BOLB   GL4 8344  12.110  29.310  22.040
  348BOLB   C1C 8345  11.580  28.830  22.130
  348BOLB   C2C 8346  11.510  28.340  22.230
  348BOLB   C3C 8347  11.400  28.170  21.790
  348BOLB   C4C 8348  11.560  27.780  21.590
  348BOLB   C1D 8349  12.120  28.940  22.000
  348BOLB   C2D 8350  11.970  28.490  22.010
  348BOLB   C3D 8351  11.890  28.120  21.880
  348BOLB   C4D 8352  11.520  27.810  22.050
  349BOLB   NC1 8353   4.130  14.330  11.520
  349BOLB   PO1 8354   3.790  14.640  11.290
  349BOLB   GL1 8355   3.530  14.570  10.920
  349BOLB   GL2 8356   3.740  14.410  10.610
  349BOLB   C1A 8357   3.200  14.410  10.550
  349BOLB   C2A 8358   2.760  14.350  10.350
  349BOLB   C3A 8359   2.290  14.350  10.520
  349BOLB   C4A 8360   1.990  14.510  10.810
  349BOLB   C1B 8361   3.530  14.030  10.270
  349BOLB   C2B 8362   3.660  13.610  10.290
  349BOLB   C3B 8363   3.790  13.140  10.340
  349BOLB   C4B 8364   4.000  12.840  10.480
  349BOLB   NC2 8365   0.660  12.850   9.900
  349BOLB   PO2 8366   1.000  12.940   9.760
  349BOLB   GL3 8367   0.990  13.310  10.000
  349BOLB   GL4 8368   1.330  13.240  10.120
  349BOLB   C1C 8369   0.980  13.590  10.330
  349BOLB   C2C 8370   1.080  14.050  10.510
  349BOLB   C3C 8371   1.310  14.260  10.600
  349BOLB   C4C 8372   1.590  14.430  10.880
  349BOLB   C1D 8373   1.690  13.300  10.270
  349BOLB   C2D 8374   2.050  13.670  10.520
  349BOLB   C3D 8375   2.200  13.520  10.890
  349BOLB   C4D 8376   2.410  13.160  11.150
  350BOLB   NC1 8377  10.640  14.260  20.000
  350BOLB   PO1 8378  10.860  14.070  20.400
  350BOLB   GL1 8379  10.550  13.760  20.690
  350BOLB   GL2 8380  10.430  13.570  20.570
  350BOLB   C1A 8381  10.690  13.500  20.990
  350BOLB   C2A 8382  11.030  13.390  21.260
  350BOLB   C3A 8383  11.290  13.230  21.590
  350BOLB   C4A 8384  11.420  12.910  21.870
  350BOLB   C1B 8385  10.770  13.170  20.600
  350BOLB   C2B 8386  10.940  12.960  21.030
  350BOLB   C3B 8387  10.800  12.580  21.140
  350BOLB   C4B 8388  10.670  12.260  21.380
  350BOLB   NC2 8389  11.220  10.540  22.980
  350BOLB   PO2 8390  11.020  10.900  22.770
  350BOLB   GL3 8391  11.000  11.260  22.540
  350BOLB   GL4 8392  11.220  11.410  22.690
  350BOLB   C1C 8393  10.990  11.360  22.160
  350BOLB   C2C 8394  11.070  11.810  21.930
  350BOLB   C3C 8395  11.240  12.120  22.200
  350BOLB   C4C 8396  11.140  12.580  22.160
  350BOLB   C1D 8397  11.070  11.720  22.530
  350BOLB   C2D 8398  10.670  11.810  22.170
  350BOLB   C3D 8399  10.660  12.150  21.930
  350BOLB   C4D 8400  10.550  12.580  21.760
  351BOLB   NC1 8401   9.250  13.910  20.350
  351BOLB   PO1 8402   9.700  13.940  20.420
  351BOLB   GL1 8403   9.520  13.480  20.470
  351BOLB   GL2 8404   9.220  13.420  20.500
  351BOLB   C1A 8405   9.560  13.290  20.860
  351BOLB   C2A 8406   9.570  13.220  21.270
  351BOLB   C3A 8407   9.410  13.110  21.690
  351BOLB   C4A 8408   9.230  12.890  21.990
  351BOLB   C1B 8409   8.890  13.160  20.650
  351BOLB   C2B 8410   8.860  12.810  20.880
  351BOLB   C3B 8411   8.800  12.450  21.250
  351BOLB   C4B 8412   8.830  12.240  21.570
  351BOLB   NC2 8413   9.060  11.120  23.450
  351BOLB   PO2 8414   8.720  11.170  23.020
  351BOLB   GL3 8415   8.960  11.550  22.800
  351BOLB   GL4 8416   9.020  11.540  22.540
  351BOLB   C1C 8417   9.080  12.000  22.810
  351BOLB   C2C 8418   8.870  12.340  22.730
  351BOLB   C3C 8419   8.810  12.650  22.500
  351BOLB   C4C 8420   8.810  12.890  22.180
  351BOLB   C1D 8421   9.420  11.650  22.520
  351BOLB   C2D 8422   9.790  11.510  22.250
  351BOLB   C3D 8423   9.880  11.700  21.880
  351BOLB   C4D 8424   9.940  11.620  21.450
  352BOLB   NC1 8425  14.580  13.410  18.900
  352BOLB   PO1 8426  14.990  13.440  18.890
  352BOLB   GL1 8427  15.220  13.410  19.260
  352BOLB   GL2 8428  14.970  13.260  19.430
  352BOLB   C1A 8429  15.480  13.060  19.470
  352BOLB   C2A 8430  15.560  12.920  19.870
  352BOLB   C3A 8431  15.830  12.600  20.120
  352BOLB   C4A 8432  15.900  12.340  20.560
  352BOLB   C1B 8433  14.960  12.830  19.420
  352BOLB   C2B 8434  15.280  12.530  19.500
  352BOLB   C3B 8435  15.430  12.410  19.830
  352BOLB   C4B 8436  15.510  12.140  20.220
  352BOLB   NC2 8437  17.780  11.560  22.580
  352BOLB   PO2 8438  17.300  11.570  22.440
  352BOLB   GL3 8439  17.190  11.820  22.070
  352BOLB   GL4 8440  17.450  11.820  21.980
  352BOLB   C1C 8441  17.070  12.130  21.870
  352BOLB   C2C 8442  16.830  12.150  21.520
  352BOLB   C3C 8443  16.520  12.180  21.200
  352BOLB   C4C 8444  16.180  12.250  20.970
  352BOLB   C1D 8445  17.550  12.170  21.820
  352BOLB   C2D 8446  17.640  12.580  21.710
  352BOLB   C3D 8447  17.430  12.970  21.570
  352BOLB   C4D 8448  17.450  13.190  21.180
  353BOLB   NC1 8449  13.810  13.120  19.280
  353BOLB   PO1 8450  14.080  12.890  18.910
  353BOLB   GL1 8451  14.070  12.490  19.090
  353BOLB   GL2 8452  13.790  12.320  19.060
  353BOLB   C1A 8453  14.190  12.160  19.330
  353BOLB   C2A 8454  14.560  12.050  19.250
  353BOLB   C3A 8455  14.650  11.730  19.670
  353BOLB   C4A 8456  14.690  11.310  19.780
  353BOLB   C1B 8457  13.810  11.870  19.160
  353BOLB   C2B 8458  13.910  11.380  19.210
  353BOLB   C3B 8459  13.850  10.990  19.150
  353BOLB   C4B 8460  14.130  10.570  19.200
  353BOLB   NC2 8461  16.140  10.110  21.670
  353BOLB   PO2 8462  16.190  10.110  21.240
  353BOLB   GL3 8463  15.960  10.370  21.020
  353BOLB   GL4 8464  16.090  10.600  20.850
  353BOLB   C1C 8465  15.610  10.560  20.990
  353BOLB   C2C 8466  15.210  10.640  20.790
  353BOLB   C3C 8467  14.810  10.700  20.500
  353BOLB   C4C 8468  14.700  11.040  20.140
  353BOLB   C1D 8469  16.190  10.950  20.620
  353BOLB   C2D 8470  16.560  11.200  20.460
  353BOLB   C3D 8471  16.550  11.310  20.110
  353BOLB   C4D 8472  16.620  11.510  19.670
  354BOLB   NC1 8473   6.560  12.960  16.760
  354BOLB   PO1 8474   6.640  12.560  16.920
  354BOLB   GL1 8475   6.360  12.300  17.040
  354BOLB   GL2 8476   6.140  12.530  17.090
  354BOLB   C1A 8477   6.110  11.920  17.000
  354BOLB   C2A 8478   5.990  11.600  17.230
  354BOLB   C3A 8479   5.820  11.260  17.490
  354BOLB   C4A 8480   5.560  10.780  17.510
  354BOLB   C1B 8481   5.720  12.560  17.010
  354BOLB   C2B 8482   5.310  12.740  17.100
  354BOLB   C3B 8483   4.930  12.990  17.090
  354BOLB   C4B 8484   4.550  12.930  17.090
  354BOLB   NC2 8485   4.850   9.570  19.240
  354BOLB   PO2 8486   5.270   9.410  19.210
  354BOLB   GL3 8487   5.470   9.610  19.050
  354BOLB   GL4 8488   5.800   9.630  19.190
  354BOLB   C1C 8489   5.420  10.050  19.060
  354BOLB   C2C 8490   5.410  10.330  18.700
  354BOLB   C3C 8491   5.330  10.480  18.370
  354BOLB   C4C 8492   5.390  10.550  17.950
  354BOLB   C1D 8493   5.880  10.070  18.850
  354BOLB   C2D 8494   6.010  10.400  18.500
  354BOLB   C3D 8495   5.920  10.590  18.210
  354BOLB   C4D 8496   5.850  10.940  17.860
  355BOLB   NC1 8497  16.400  13.550  12.540
  355BOLB   PO1 8498  16.530  13.090  12.600
  355BOLB   GL1 8499  16.880  12.980  12.340
  355BOLB   GL2 8500  16.820  12.890  12.010
  355BOLB   C1A 8501  17.160  12.610  12.370
  355BOLB   C2A 8502  17.560  12.300  12.380
  355BOLB   C3A 8503  17.940  12.350  12.180
  355BOLB   C4A 8504  18.400  12.170  12.380
  355BOLB   C1B 8505  16.860  12.490  11.730
  355BOLB   C2B 8506  16.810  12.070  11.480
  355BOLB   C3B 8507  16.880  11.750  11.340
  355BOLB   C4B 8508  16.830  11.290  11.380
  355BOLB   NC2 8509  20.550  11.020  11.870
  355BOLB   PO2 8510  20.290  10.670  11.820
  355BOLB   GL3 8511  20.070  11.020  11.750
  355BOLB   GL4 8512  20.040  11.240  11.470
  355BOLB   C1C 8513  19.670  11.180  11.870
  355BOLB   C2C 8514  19.410  11.610  11.840
  355BOLB   C3C 8515  19.120  11.920  11.990
  355BOLB   C4C 8516  18.770  12.060  12.140
  355BOLB   C1D 8517  19.800  11.560  11.430
  355BOLB   C2D 8518  19.550  12.010  11.450
  355BOLB   C3D 8519  19.340  12.310  11.660
  355BOLB   C4D 8520  19.340  12.670  11.660
  356BOLB   NC1 8521   4.540  13.690  13.280
  356BOLB   PO1 8522   4.780  13.260  13.520
  356BOLB   GL1 8523   4.600  12.950  13.350
  356BOLB   GL2 8524   4.590  13.160  12.970
  356BOLB   C1A 8525   4.500  12.580  13.520
  356BOLB   C2A 8526   4.430  12.280  13.200
  356BOLB   C3A 8527   4.610  12.070  12.840
  356BOLB   C4A 8528   4.270  11.660  12.580
  356BOLB   C1B 8529   4.130  12.990  13.090
  356BOLB   C2B 8530   3.720  13.030  13.300
  356BOLB   C3B 8531   3.450  12.710  13.500
  356BOLB   C4B 8532   3.300  12.260  13.560
  356BOLB   NC2 8533   1.990  10.320  12.540
  356BOLB   PO2 8534   2.310  10.370  12.260
  356BOLB   GL3 8535   2.290  10.710  12.110
  356BOLB   GL4 8536   2.480  10.870  12.420
  356BOLB   C1C 8537   2.650  11.060  11.890
  356BOLB   C2C 8538   3.030  11.420  12.050
  356BOLB   C3C 8539   3.450  11.530  12.230
  356BOLB   C4C 8540   3.850  11.400  12.360
  356BOLB   C1D 8541   2.630  11.270  12.400
  356BOLB   C2D 8542   3.010  11.670  12.460
  356BOLB   C3D 8543   3.140  12.100  12.410
  356BOLB   C4D 8544   3.240  12.570  12.540
  357BOLB   NC1 8545   5.260  19.050  21.120
  357BOLB   PO1 8546   5.330  18.920  21.500
  357BOLB   GL1 8547   4.930  19.120  21.530
  357BOLB   GL2 8548   4.830  19.050  21.830
  357BOLB   C1A 8549   4.430  19.230  21.710
  357BOLB   C2A 8550   4.240  19.010  22.120
  357BOLB   C3A 8551   4.090  18.910  22.460
  357BOLB   C4A 8552   3.940  18.820  22.770
  357BOLB   C1B 8553   4.680  18.990  22.280
  357BOLB   C2B 8554   4.550  18.710  22.520
  357BOLB   C3B 8555   4.240  18.350  22.570
  357BOLB   C4B 8556   3.890  18.090  22.840
  357BOLB   NC2 8557   1.630  17.910  24.040
  357BOLB   PO2 8558   1.970  18.050  23.730
  357BOLB   GL3 8559   2.280  17.780  23.420
  357BOLB   GL4 8560   2.660  17.740  23.510
  357BOLB   C1C 8561   2.550  17.800  23.090
  357BOLB   C2C 8562   2.970  18.080  23.050
  357BOLB   C3C 8563   3.260  18.410  23.140
  357BOLB   C4C 8564   3.770  18.520  23.080
  357BOLB   C1D 8565   2.770  18.080  23.540
  357BOLB   C2D 8566   3.090  18.250  23.570
  357BOLB   C3D 8567   3.470  18.530  23.610
  357BOLB   C4D 8568   3.570  18.840  23.480
  358BOLB   NC1 8569  16.440  18.360  20.630
  358BOLB   PO1 8570  16.170  18.190  20.970
  358BOLB   GL1 8571  16.520  18.200  21.160
  358BOLB   GL2 8572  16.570  17.940  21.300
  358BOLB   C1A 8573  16.970  18.370  21.260
  358BOLB   C2A 8574  17.200  18.330  21.580
  358BOLB   C3A 8575  17.480  18.570  21.930
  358BOLB   C4A 8576  17.800  18.610  22.240
  358BOLB   C1B 8577  16.970  17.880  21.520
  358BOLB   C2B 8578  17.240  17.950  21.900
  358BOLB   C3B 8579  17.570  18.070  22.070
  358BOLB   C4B 8580  18.010  18.040  22.230
  358BOLB   NC2 8581  19.260  18.120  24.220
  358BOLB   PO2 8582  19.240  18.040  23.870
  358BOLB   GL3 8583  19.180  18.160  23.500
  358BOLB   GL4 8584  19.360  18.200  23.350
  358BOLB   C1C 8585  18.860  18.250  23.200
  358BOLB   C2C 8586  18.530  18.340  23.070
  358BOLB   C3C 8587  18.430  18.270  22.660
  358BOLB   C4C 8588  18.160  18.390  22.510
  358BOLB   C1D 8589  19.340  18.120  22.960
  358BOLB   C2D 8590  19.550  17.910  22.650
  358BOLB   C3D 8591  19.690  17.760  22.240
  358BOLB   C4D 8592  20.010  17.900  21.920
  359BOLB   NC1 8593  12.120  20.490  22.680
  359BOLB   PO1 8594  12.220  20.040  22.730
  359BOLB   GL1 8595  12.270  19.810  23.110
  359BOLB   GL2 8596  12.520  19.750  23.110
  359BOLB   C1A 8597  12.190  19.950  23.520
  359BOLB   C2A 8598  12.200  20.120  23.910
  359BOLB   C3A 8599  12.320  20.290  24.340
  359BOLB   C4A 8600  12.470  20.660  24.680
  359BOLB   C1B 8601  12.770  19.940  23.380
  359BOLB   C2B 8602  12.780  19.940  23.680
  359BOLB   C3B 8603  12.760  20.080  24.090
  359BOLB   C4B 8604  12.860  20.500  24.340
  359BOLB   NC2 8605  12.410  21.500  26.750
  359BOLB   PO2 8606  12.730  21.670  26.670
  359BOLB   GL3 8607  12.780  21.350  26.390
  359BOLB   GL4 8608  13.040  21.180  26.360
  359BOLB   C1C 8609  12.510  21.140  26.130
  359BOLB   C2C 8610  12.440  20.990  25.740
  359BOLB   C3C 8611  12.450  21.200  25.350
  359BOLB   C4C 8612  12.470  21.060  24.910
  359BOLB   C1D 8613  12.940  21.180  25.930
  359BOLB   C2D 8614  12.870  20.950  25.550
  359BOLB   C3D 8615  12.910  21.060  25.120
  359BOLB   C4D 8616  12.740  21.480  24.860
  360BOLB   NC1 8617  15.100  26.340  14.030
  360BOLB   PO1 8618  15.270  26.200  13.720
  360BOLB   GL1 8619  15.590  26.500  13.480
  360BOLB   GL2 8620  15.810  26.510  13.310
  360BOLB   C1A 8621  15.640  26.960  13.420
  360BOLB   C2A 8622  15.860  27.290  13.420
  360BOLB   C3A 8623  16.150  27.690  13.330
  360BOLB   C4A 8624  16.180  28.000  13.570
  360BOLB   C1B 8625  15.960  26.860  13.060
  360BOLB   C2B 8626  15.950  27.260  12.920
  360BOLB   C3B 8627  16.180  27.650  12.810
  360BOLB   C4B 8628  16.390  28.010  12.590
  360BOLB   NC2 8629  17.610  29.630  13.580
  360BOLB   PO2 8630  17.700  29.400  13.970
  360BOLB   GL3 8631  17.300  29.370  13.910
  360BOLB   GL4 8632  17.110  29.660  13.740
  360BOLB   C1C 8633  16.880  29.230  14.040
  360BOLB   C2C 8634  16.620  28.950  13.790
  360BOLB   C3C 8635  16.570  28.570  13.900
  360BOLB   C4C 8636  16.490  28.260  13.710
  360BOLB   C1D 8637  16.760  29.550  13.550
  360BOLB   C2D 8638  16.350  29.410  13.590
  360BOLB   C3D 8639  16.220  29.000  13.550
  360BOLB   C4D 8640  16.040  28.510  13.550
  361BOLB   NC1 8641   3.250  18.380  19.460
  361BOLB   PO1 8642   3.620  18.210  19.530
  361BOLB   GL1 8643   3.380  17.940  19.840
  361BOLB   GL2 8644   3.120  18.110  19.910
  361BOLB   C1A 8645   3.120  17.690  20.160
  361BOLB   C2A 8646   2.670  17.750  20.230
  361BOLB   C3A 8647   2.330  17.480  20.140
  361BOLB   C4A 8648   1.970  17.200  20.190
  361BOLB   C1B 8649   2.740  18.240  20.120
  361BOLB   C2B 8650   2.500  18.530  20.020
  361BOLB   C3B 8651   2.480  18.900  20.040
  361BOLB   C4B 8652   2.460  19.200  19.950
  361BOLB   NC2 8653   0.890  16.660  22.100
  361BOLB   PO2 8654   0.720  16.600  21.700
  361BOLB   GL3 8655   0.960  16.700  21.390
  361BOLB   GL4 8656   0.880  17.020  21.330
  361BOLB   C1C 8657   1.300  16.550  21.100
  361BOLB   C2C 8658   1.350  16.590  20.720
  361BOLB   C3C 8659   1.340  16.720  20.340
  361BOLB   C4C 8660   1.600  16.910  20.120
  361BOLB   C1D 8661   1.340  16.990  21.300
  361BOLB   C2D 8662   1.540  17.360  21.230
  361BOLB   C3D 8663   1.620  17.660  20.860
  361BOLB   C4D 8664   1.730  17.910  20.520
  362BOLB   NC1 8665   7.120  12.580  17.290
  362BOLB   PO1 8666   7.400  12.850  17.490
  362BOLB   GL1 8667   7.390  12.420  17.660
  362BOLB   GL2 8668   7.630  12.190  17.680
  362BOLB   C1A 8669   7.200  12.040  17.690
  362BOLB   C2A 8670   7.170  11.680  17.930
  362BOLB   C3A 8671   7.180  11.220  18.160
  362BOLB   C4A 8672   7.240  10.990  18.500
  362BOLB   C1B 8673   7.710  11.850  17.990
  362BOLB   C2B 8674   8.020  11.590  17.960
  362BOLB   C3B 8675   8.010  11.280  18.150
  362BOLB   C4B 8676   8.140  11.020  18.540
  362BOLB   NC2 8677   6.570   9.140  19.840
  362BOLB   PO2 8678   7.040   9.000  19.580
  362BOLB   GL3 8679   7.050   9.400  19.630
  362BOLB   GL4 8680   6.710   9.520  19.600
  362BOLB   C1C 8681   7.000   9.880  19.650
  362BOLB   C2C 8682   7.170  10.170  19.360
  362BOLB   C3C 8683   7.270  10.330  18.940
  362BOLB   C4C 8684   7.320  10.640  18.690
  362BOLB   C1D 8685   6.920   9.620  19.230
  362BOLB   C2D 8686   7.050   9.400  18.880
  362BOLB   C3D 8687   7.570   9.450  18.670
  362BOLB   C4D 8688   7.910   9.490  18.430
  363BOLB   NC1 8689  13.980  14.250  20.130
  363BOLB   PO1 8690  13.710  14.470  20.450
  363BOLB   GL1 8691  13.820  14.150  20.670
  363BOLB   GL2 8692  14.090  13.990  20.560
  363BOLB   C1A 8693  13.950  13.730  20.920
  363BOLB   C2A 8694  14.250  13.620  21.320
  363BOLB   C3A 8695  14.430  13.470  21.680
  363BOLB   C4A 8696  14.420  13.170  21.940
  363BOLB   C1B 8697  14.370  13.670  20.680
  363BOLB   C2B 8698  14.580  13.820  21.000
  363BOLB   C3B 8699  14.870  13.900  21.250
  363BOLB   C4B 8700  14.820  13.760  21.610
  363BOLB   NC2 8701  14.210  11.140  23.190
  363BOLB   PO2 8702  14.500  11.270  22.880
  363BOLB   GL3 8703  14.280  11.650  22.960
  363BOLB   GL4 8704  13.990  11.650  22.950
  363BOLB   C1C 8705  14.340  12.020  22.670
  363BOLB   C2C 8706  14.520  12.330  22.490
  363BOLB   C3C 8707  14.760  12.670  22.550
  363BOLB   C4C 8708  14.760  13.000  22.270
  363BOLB   C1D 8709  13.900  11.870  22.530
  363BOLB   C2D 8710  13.800  12.210  22.230
  363BOLB   C3D 8711  13.650  12.490  22.140
  363BOLB   C4D 8712  13.820  12.870  22.090
  364BOLB   NC1 8713   7.010  15.590  20.440
  364BOLB   PO1 8714   7.350  15.250  20.520
  364BOLB   GL1 8715   7.060  15.210  20.760
  364BOLB   GL2 8716   6.810  15.240  20.680
  364BOLB   C1A 8717   7.120  14.890  21.010
  364BOLB   C2A 8718   6.970  14.620  21.250
  364BOLB   C3A 8719   6.870  14.240  21.470
  364BOLB   C4A 8720   6.640  14.000  21.640
  364BOLB   C1B 8721   6.380  15.200  20.510
  364BOLB   C2B 8722   6.060  14.960  20.530
  364BOLB   C3B 8723   5.620  14.830  20.620
  364BOLB   C4B 8724   5.360  14.490  20.800
  364BOLB   NC2 8725   5.710  12.310  23.500
  364BOLB   PO2 8726   5.770  12.720  23.530
  364BOLB   GL3 8727   6.010  12.820  23.130
  364BOLB   GL4 8728   6.100  12.550  23.000
  364BOLB   C1C 8729   6.320  12.990  22.790
  364BOLB   C2C 8730   6.430  13.380  22.570
  364BOLB   C3C 8731   6.580  13.710  22.290
  364BOLB   C4C 8732   6.460  13.940  21.990
  364BOLB   C1D 8733   6.270  12.400  22.710
  364BOLB   C2D 8734   6.330  12.540  22.360
  364BOLB   C3D 8735   6.480  12.530  21.920
  364BOLB   C4D 8736   6.410  12.770  21.500
  365BOLB   NC1 8737  19.750  20.820  12.820
  365BOLB   PO1 8738  19.590  20.970  13.260
  365BOLB   GL1 8739  20.000  20.790  13.230
  365BOLB   GL2 8740  20.050  20.500  13.150
  365BOLB   C1A 8741  20.400  20.880  12.950
  365BOLB   C2A 8742  20.740  21.100  12.800
  365BOLB   C3A 8743  21.170  21.080  12.780
  365BOLB   C4A 8744  21.480  21.230  12.650
  365BOLB   C1B 8745  20.390  20.480  13.360
  365BOLB   C2B 8746  20.800  20.220  13.380
  365BOLB   C3B 8747  21.160  20.240  13.520
  365BOLB   C4B 8748  21.250  19.780  13.570
  365BOLB   NC2 8749  23.260  21.260  11.090
  365BOLB   PO2 8750  23.300  20.790  11.140
  365BOLB   GL3 8751  22.980  20.830  11.450
  365BOLB   GL4 8752  22.740  20.640  11.200
  365BOLB   C1C 8753  22.540  20.690  11.630
  365BOLB   C2C 8754  22.160  20.840  11.710
  365BOLB   C3C 8755  22.070  20.980  12.130
  365BOLB   C4C 8756  21.750  21.180  12.390
  365BOLB   C1D 8757  22.490  20.260  11.400
  365BOLB   C2D 8758  22.150  20.010  11.550
  365BOLB   C3D 8759  21.690  19.970  11.500
  365BOLB   C4D 8760  21.280  19.920  11.290
  366BOLB   NC1 8761   6.790  12.990   5.150
  366BOLB   PO1 8762   7.010  12.630   5.400
  366BOLB   GL1 8763   6.880  12.610   5.800
  366BOLB   GL2 8764   7.070  12.490   6.020
  366BOLB   C1A 8765   6.660  12.870   6.120
  366BOLB   C2A 8766   6.570  13.060   6.600
  366BOLB   C3A 8767   6.350  13.340   6.860
  366BOLB   C4A 8768   5.980  13.270   7.030
  366BOLB   C1B 8769   7.130  13.010   6.090
  366BOLB   C2B 8770   7.300  13.310   6.460
  366BOLB   C3B 8771   7.440  13.630   6.790
  366BOLB   C4B 8772   7.540  14.100   6.700
  366BOLB   NC2 8773   3.460  12.380   6.750
  366BOLB   PO2 8774   3.560  12.870   6.600
  366BOLB   GL3 8775   3.940  13.100   6.870
  366BOLB   GL4 8776   3.850  13.270   7.240
  366BOLB   C1C 8777   4.260  12.890   7.160
  366BOLB   C2C 8778   4.730  12.900   6.980
  366BOLB   C3C 8779   5.160  12.840   6.970
  366BOLB   C4C 8780   5.580  13.020   6.890
  366BOLB   C1D 8781   4.050  13.570   7.400
  366BOLB   C2D 8782   4.200  13.740   7.690
  366BOLB   C3D 8783   4.390  13.730   8.160
  366BOLB   C4D 8784   4.540  13.700   8.530
  367BOLB   NC1 8785  12.400  26.710  17.950
  367BOLB   PO1 8786  12.410  27.000  18.250
  367BOLB   GL1 8787  12.460  27.330  18.540
  367BOLB   GL2 8788  12.430  27.330  18.860
  367BOLB   C1A 8789  12.800  27.630  18.540
  367BOLB   C2A 8790  13.000  27.890  18.690
  367BOLB   C3A 8791  12.990  28.340  18.820
  367BOLB   C4A 8792  12.950  28.790  18.850
  367BOLB   C1B 8793  12.520  27.670  19.010
  367BOLB   C2B 8794  12.850  27.820  19.280
  367BOLB   C3B 8795  13.200  28.130  19.180
  367BOLB   C4B 8796  13.260  28.570  19.300
  367BOLB   NC2 8797  12.700  31.170  18.600
  367BOLB   PO2 8798  12.960  31.250  18.840
  367BOLB   GL3 8799  12.960  30.790  18.890
  367BOLB   GL4 8800  12.790  30.640  18.480
  367BOLB   C1C 8801  13.100  30.360  19.020
  367BOLB   C2C 8802  13.090  29.950  19.090
  367BOLB   C3C 8803  12.740  29.620  18.960
  367BOLB   C4C 8804  12.810  29.180  18.870
  367BOLB   C1D 8805  12.690  30.420  18.060
  367BOLB   C2D 8806  12.980  30.230  17.890
  367BOLB   C3D 8807  13.070  29.780  17.710
  367BOLB   C4D 8808  13.310  29.590  17.410
  368BOLB   NC1 8809   8.090  19.810  22.740
  368BOLB   PO1 8810   7.690  19.990  22.640
  368BOLB   GL1 8811   7.480  19.780  23.040
  368BOLB   GL2 8812   7.500  19.510  23.170
  368BOLB   C1A 8813   7.510  20.000  23.480
  368BOLB   C2A 8814   7.350  19.990  23.750
  368BOLB   C3A 8815   7.170  19.920  24.150
  368BOLB   C4A 8816   7.070  19.650  24.410
  368BOLB   C1B 8817   7.480  19.180  23.430
  368BOLB   C2B 8818   7.680  19.210  23.730
  368BOLB   C3B 8819   7.580  19.180  24.220
  368BOLB   C4B 8820   7.190  19.180  24.390
  368BOLB   NC2 8821   6.380  18.390  26.320
  368BOLB   PO2 8822   6.770  18.410  26.460
  368BOLB   GL3 8823   6.790  18.690  26.150
  368BOLB   GL4 8824   6.920  18.980  26.160
  368BOLB   C1C 8825   6.940  18.770  25.740
  368BOLB   C2C 8826   7.260  19.050  25.480
  368BOLB   C3C 8827   7.110  19.280  25.190
  368BOLB   C4C 8828   7.080  19.460  24.790
  368BOLB   C1D 8829   7.040  19.350  25.780
  368BOLB   C2D 8830   7.280  19.630  25.590
  368BOLB   C3D 8831   7.510  19.610  25.210
  368BOLB   C4D 8832   7.880  19.770  24.940
  369BOLB   NC1 8833   6.370  17.680  20.880
  369BOLB   PO1 8834   5.980  17.560  21.070
  369BOLB   GL1 8835   5.760  17.430  21.260
  369BOLB   GL2 8836   5.850  17.160  21.370
  369BOLB   C1A 8837   5.430  17.450  21.550
  369BOLB   C2A 8838   5.040  17.270  21.660
  369BOLB   C3A 8839   4.650  17.200  21.750
  369BOLB   C4A 8840   4.300  16.940  21.840
  369BOLB   C1B 8841   5.810  17.090  21.800
  369BOLB   C2B 8842   5.840  16.850  22.210
  369BOLB   C3B 8843   6.020  16.770  22.650
  369BOLB   C4B 8844   6.040  16.820  23.130
  369BOLB   NC2 8845   2.260  15.810  23.390
  369BOLB   PO2 8846   2.420  16.080  23.030
  369BOLB   GL3 8847   2.680  16.470  22.910
  369BOLB   GL4 8848   2.550  16.750  22.740
  369BOLB   C1C 8849   3.050  16.730  22.790
  369BOLB   C2C 8850   3.360  16.830  22.550
  369BOLB   C3C 8851   3.670  16.900  22.440
  369BOLB   C4C 8852   3.930  16.940  22.100
  369BOLB   C1D 8853   2.660  17.060  22.450
  369BOLB   C2D 8854   2.760  17.590  22.300
  369BOLB   C3D 8855   2.720  18.020  22.070
  369BOLB   C4D 8856   2.510  18.120  21.600
  370BOLB   NC1 8857   4.370  24.610  11.990
  370BOLB   PO1 8858   4.070  24.510  12.370
  370BOLB   GL1 8859   3.910  24.800  12.100
  370BOLB   GL2 8860   3.990  24.970  11.820
  370BOLB   C1A 8861   3.450  24.840  11.950
  370BOLB   C2A 8862   3.220  25.010  11.650
  370BOLB   C3A 8863   3.050  25.250  11.420
  370BOLB   C4A 8864   2.960  25.250  10.940
  370BOLB   C1B 8865   3.740  25.050  11.540
  370BOLB   C2B 8866   3.410  25.000  11.160
  370BOLB   C3B 8867   3.450  25.240  10.740
  370BOLB   C4B 8868   3.490  25.200  10.290
  370BOLB   NC2 8869   1.300  26.240   9.400
  370BOLB   PO2 8870   1.620  26.560   9.310
  370BOLB   GL3 8871   1.720  26.240   9.700
  370BOLB   GL4 8872   1.860  25.980   9.700
  370BOLB   C1C 8873   2.050  26.310  10.070
  370BOLB   C2C 8874   2.310  26.030  10.220
  370BOLB   C3C 8875   2.370  25.630  10.470
  370BOLB   C4C 8876   2.610  25.440  10.780
  370BOLB   C1D 8877   1.960  25.660  10.000
  370BOLB   C2D 8878   2.120  25.280  10.190
  370BOLB   C3D 8879   2.500  25.190  10.340
  370BOLB   C4D 8880   2.690  24.920  10.090
  371BOLB   NC1 8881  10.390  16.020  21.500
  371BOLB   PO1 8882  10.170  16.270  21.750
  371BOLB   GL1 8883  10.250  15.970  22.080
  371BOLB   GL2 8884  10.320  16.120  22.290
  371BOLB   C1A 8885  10.090  15.630  22.290
  371BOLB   C2A 8886  10.250  15.270  22.470
  371BOLB   C3A 8887  10.090  14.940  22.790
  371BOLB   C4A 8888  10.420  14.830  23.100
  371BOLB   C1B 8889  10.370  15.940  22.640
  371BOLB   C2B 8890  10.380  16.070  23.110
  371BOLB   C3B 8891  10.180  16.050  23.480
  371BOLB   C4B 8892  10.380  15.990  23.910
  371BOLB   NC2 8893   9.920  14.970  25.410
  371BOLB   PO2 8894  10.140  14.640  25.330
  371BOLB   GL3 8895  10.180  14.730  24.920
  371BOLB   GL4 8896  10.430  14.510  24.820
  371BOLB   C1C 8897  10.370  15.110  24.600
  371BOLB   C2C 8898  10.580  15.180  24.250
  371BOLB   C3C 8899  10.690  14.780  23.940
  371BOLB   C4C 8900  10.440  14.660  23.600
  371BOLB   C1D 8901  10.630  14.630  24.450
  371BOLB   C2D 8902  11.000  14.730  24.310
  371BOLB   C3D 8903  11.200  14.890  24.000
  371BOLB   C4D 8904  11.620  14.740  23.810
  372BOLB   NC1 8905  18.500  18.780  19.260
  372BOLB   PO1 8906  18.210  19.010  19.460
  372BOLB   GL1 8907  18.530  19.170  19.670
  372BOLB   GL2 8908  18.670  19.430  19.560
  372BOLB   C1A 8909  18.930  19.220  19.940
  372BOLB   C2A 8910  19.250  18.940  19.920
  372BOLB   C3A 8911  19.680  18.810  19.960
  372BOLB   C4A 8912  20.070  18.970  20.050
  372BOLB   C1B 8913  18.950  19.850  19.650
  372BOLB   C2B 8914  19.110  20.180  19.660
  372BOLB   C3B 8915  19.300  20.650  19.810
  372BOLB   C4B 8916  19.420  20.950  20.210
  372BOLB   NC2 8917  20.690  18.560  22.300
  372BOLB   PO2 8918  20.760  18.070  22.200
  372BOLB   GL3 8919  20.630  18.280  21.850
  372BOLB   GL4 8920  20.710  18.580  21.740
  372BOLB   C1C 8921  20.320  18.280  21.450
  372BOLB   C2C 8922  20.280  18.400  20.980
  372BOLB   C3C 8923  20.560  18.550  20.600
  372BOLB   C4C 8924  20.430  18.820  20.250
  372BOLB   C1D 8925  20.400  18.790  21.580
  372BOLB   C2D 8926  20.060  18.740  21.260
  372BOLB   C3D 8927  19.800  18.410  21.070
  372BOLB   C4D 8928  19.420  18.540  20.830
  373BOLB   NC1 8929  15.950  24.050  19.890
  373BOLB   PO1 8930  15.700  24.440  20.050
  373BOLB   GL1 8931  15.990  24.490  20.310
  373BOLB   GL2 8932  15.970  24.270  20.630
  373BOLB   C1A 8933  16.380  24.460  20.420
  373BOLB   C2A 8934  16.790  24.580  20.530
  373BOLB   C3A 8935  17.170  24.650  20.390
  373BOLB   C4A 8936  17.560  24.430  20.330
  373BOLB   C1B 8937  16.200  24.570  20.870
  373BOLB   C2B 8938  16.490  24.550  21.190
  373BOLB   C3B 8939  16.790  24.590  21.480
  373BOLB   C4B 8940  17.100  24.730  21.760
  373BOLB   NC2 8941  19.750  24.460  22.130
  373BOLB   PO2 8942  19.420  24.310  21.940
  373BOLB   GL3 8943  19.120  24.120  21.750
  373BOLB   GL4 8944  18.850  24.160  21.920
  373BOLB   C1C 8945  18.810  24.020  21.350
  373BOLB   C2C 8946  18.530  24.080  21.110
  373BOLB   C3C 8947  18.430  24.110  20.660
  373BOLB   C4C 8948  17.990  24.290  20.410
  373BOLB   C1D 8949  18.600  24.390  21.800
  373BOLB   C2D 8950  18.420  24.550  21.450
  373BOLB   C3D 8951  18.420  24.660  20.990
  373BOLB   C4D 8952  18.410  24.670  20.530
  374BOLB   NC1 8953   2.780  20.400  18.330
  374BOLB   PO1 8954   2.650  20.430  18.790
  374BOLB   GL1 8955   2.420  20.390  19.110
  374BOLB   GL2 8956   2.500  20.720  19.280
  374BOLB   C1A 8957   2.100  20.220  19.290
  374BOLB   C2A 8958   1.770  20.160  19.300
  374BOLB   C3A 8959   1.350  20.100  19.460
  374BOLB   C4A 8960   1.180  19.810  19.670
  374BOLB   C1B 8961   2.110  20.950  19.420
  374BOLB   C2B 8962   1.770  21.040  19.760
  374BOLB   C3B 8963   1.400  21.210  19.970
  374BOLB   C4B 8964   1.260  21.470  20.400
  374BOLB   NC2 8965  36.130  19.750  21.520
  374BOLB   PO2 8966  35.780  19.340  21.470
  374BOLB   GL3 8967  35.930  19.510  21.080
  374BOLB   GL4 8968  35.790  19.300  20.790
  374BOLB   C1C 8969  36.200  19.640  20.790
  374BOLB   C2C 8970   0.110  19.650  20.500
  374BOLB   C3C 8971   0.380  19.820  20.130
  374BOLB   C4C 8972   0.730  19.620  19.850
  374BOLB   C1D 8973  35.890  19.510  20.440
  374BOLB   C2D 8974  36.100  19.730  20.130
  374BOLB   C3D 8975   0.000  20.110  20.130
  374BOLB   C4D 8976  36.080  20.490  20.160
  375BOLB   NC1 8977  18.020  18.420  24.570
  375BOLB   PO1 8978  18.380  18.580  24.320
  375BOLB   GL1 8979  18.040  18.470  24.020
  375BOLB   GL2 8980  17.750  18.550  24.200
  375BOLB   C1A 8981  18.090  18.370  23.650
  375BOLB   C2A 8982  18.300  18.020  23.360
  375BOLB   C3A 8983  18.460  17.880  22.960
  375BOLB   C4A 8984  18.800  17.900  22.810
  375BOLB   C1B 8985  17.620  18.570  23.820
  375BOLB   C2B 8986  17.780  18.810  23.490
  375BOLB   C3B 8987  17.860  18.550  23.060
  375BOLB   C4B 8988  17.870  18.140  23.110
  375BOLB   NC2 8989  20.650  16.870  22.710
  375BOLB   PO2 8990  20.640  16.590  22.340
  375BOLB   GL3 8991  20.140  16.630  22.390
  375BOLB   GL4 8992  19.850  16.600  22.670
  375BOLB   C1C 8993  19.820  16.790  22.150
  375BOLB   C2C 8994  19.520  16.950  22.430
  375BOLB   C3C 8995  19.360  17.430  22.370
  375BOLB   C4C 8996  19.160  17.740  22.470
  375BOLB   C1D 8997  19.650  16.420  22.410
  375BOLB   C2D 8998  19.450  16.250  21.990
  375BOLB   C3D 8999  19.260  15.890  21.730
  375BOLB   C4D 9000  19.060  16.030  21.310
  376BOLB   NC1 9001   6.280  25.710  20.010
  376BOLB   PO1 9002   6.060  25.870  19.650
  376BOLB   GL1 9003   5.970  26.160  20.010
  376BOLB   GL2 9004   5.850  26.050  20.250
  376BOLB   C1A 9005   5.930  26.540  20.160
  376BOLB   C2A 9006   5.670  26.740  20.370
  376BOLB   C3A 9007   5.290  26.850  20.390
  376BOLB   C4A 9008   4.970  26.900  20.720
  376BOLB   C1B 9009   5.580  25.950  20.520
  376BOLB   C2B 9010   5.160  25.860  20.590
  376BOLB   C3B 9011   4.840  25.980  20.860
  376BOLB   C4B 9012   4.600  26.220  21.170
  376BOLB   NC2 9013   5.010  27.490  23.130
  376BOLB   PO2 9014   4.540  27.390  23.180
  376BOLB   GL3 9015   4.570  27.260  22.750
  376BOLB   GL4 9016   4.700  27.040  22.730
  376BOLB   C1C 9017   4.740  27.390  22.340
  376BOLB   C2C 9018   4.770  27.510  21.860
  376BOLB   C3C 9019   4.720  27.320  21.350
  376BOLB   C4C 9020   4.690  27.120  20.980
  376BOLB   C1D 9021   4.880  26.940  22.290
  376BOLB   C2D 9022   4.900  27.070  21.940
  376BOLB   C3D 9023   5.210  27.270  21.640
  376BOLB   C4D 9024   5.230  27.720  21.630
  377BOLB   NC1 9025  19.110  17.430  16.840
  377BOLB   PO1 9026  18.990  17.780  16.950
  377BOLB   GL1 9027  19.330  17.530  17.250
  377BOLB   GL2 9028  19.590  17.210  17.090
  377BOLB   C1A 9029  19.570  17.580  17.620
  377BOLB   C2A 9030  20.000  17.560  17.670
  377BOLB   C3A 9031  20.260  17.580  17.920
  377BOLB   C4A 9032  20.510  17.290  18.260
  377BOLB   C1B 9033  19.930  17.370  17.170
  377BOLB   C2B 9034  20.320  17.300  17.360
  377BOLB   C3B 9035  20.710  17.380  17.650
  377BOLB   C4B 9036  21.090  17.300  17.830
  377BOLB   NC2 9037  22.620  15.750  18.980
  377BOLB   PO2 9038  22.640  16.010  18.500
  377BOLB   GL3 9039  22.400  16.390  18.580
  377BOLB   GL4 9040  22.350  16.520  18.310
  377BOLB   C1C 9041  22.160  16.830  18.800
  377BOLB   C2C 9042  21.660  16.930  18.680
  377BOLB   C3C 9043  21.280  16.890  18.460
  377BOLB   C4C 9044  20.910  17.100  18.330
  377BOLB   C1D 9045  22.250  16.200  17.900
  377BOLB   C2D 9046  22.150  15.950  17.660
  377BOLB   C3D 9047  21.870  15.570  17.650
  377BOLB   C4D 9048  21.520  15.380  17.880
  378BOLB   NC1 9049  14.850  11.850  13.030
  378BOLB   PO1 9050  14.930  11.620  13.370
  378BOLB   GL1 9051  14.970  11.320  13.060
  378BOLB   GL2 9052  14.970  11.120  13.340
  378BOLB   C1A 9053  15.180  11.120  12.850
  378BOLB   C2A 9054  15.170  10.700  12.980
  378BOLB   C3A 9055  15.530  10.440  12.990
  378BOLB   C4A 9056  15.770  10.010  13.160
  378BOLB   C1B 9057  15.450  11.030  13.330
  378BOLB   C2B 9058  15.770  11.180  13.020
  378BOLB   C3B 9059  16.060  10.810  12.760
  378BOLB   C4B 9060  15.940  10.670  12.440
  378BOLB   NC2 9061  16.470   7.560  12.780
  378BOLB   PO2 9062  16.650   7.980  12.760
  378BOLB   GL3 9063  16.430   8.300  12.500
  378BOLB   GL4 9064  16.460   8.440  12.910
  378BOLB   C1C 9065  16.410   8.770  12.520
  378BOLB   C2C 9066  16.470   9.240  12.590
  378BOLB   C3C 9067  16.350   9.500  12.870
  378BOLB   C4C 9068  16.180   9.720  13.030
  378BOLB   C1D 9069  16.170   8.820  12.930
  378BOLB   C2D 9070  15.910   9.240  12.990
  378BOLB   C3D 9071  15.660   9.520  12.850
  378BOLB   C4D 9072  15.490   9.550  12.490
  379BOLB   NC1 9073   7.070  15.980  21.440
  379BOLB   PO1 9074   7.490  16.020  21.640
  379BOLB   GL1 9075   7.210  15.790  21.910
  379BOLB   GL2 9076   7.440  15.530  22.040
  379BOLB   C1A 9077   6.810  15.690  22.060
  379BOLB   C2A 9078   6.440  15.620  21.940
  379BOLB   C3A 9079   6.070  15.840  22.180
  379BOLB   C4A 9080   5.670  15.690  22.350
  379BOLB   C1B 9081   7.240  15.100  22.000
  379BOLB   C2B 9082   6.970  14.870  22.260
  379BOLB   C3B 9083   6.570  14.620  22.330
  379BOLB   C4B 9084   6.110  14.500  22.430
  379BOLB   NC2 9085   4.290  14.250  24.030
  379BOLB   PO2 9086   4.330  14.320  23.550
  379BOLB   GL3 9087   4.640  14.410  23.250
  379BOLB   GL4 9088   4.660  14.210  23.000
  379BOLB   C1C 9089   4.810  14.730  22.950
  379BOLB   C2C 9090   4.910  15.080  22.660
  379BOLB   C3C 9091   4.990  15.430  22.500
  379BOLB   C4C 9092   5.400  15.560  22.400
  379BOLB   C1D 9093   4.610  14.280  22.660
  379BOLB   C2D 9094   4.800  14.650  22.400
  379BOLB   C3D 9095   5.180  14.960  22.290
  379BOLB   C4D 9096   5.580  15.070  22.160
  380BOLB   NC1 9097  15.360  19.280  21.500
  380BOLB   PO1 9098  14.980  19.370  21.730
  380BOLB   GL1 9099  15.070  19.340  22.250
  380BOLB   GL2 9100  14.930  19.600  22.430
  380BOLB   C1A 9101  15.410  19.180  22.440
  380BOLB   C2A 9102  15.640  19.010  22.740
  380BOLB   C3A 9103  15.780  18.730  22.870
  380BOLB   C4A 9104  15.810  18.650  23.310
  380BOLB   C1B 9105  15.160  19.570  22.820
  380BOLB   C2B 9106  15.520  19.430  23.030
  380BOLB   C3B 9107  15.910  19.190  23.130
  380BOLB   C4B 9108  16.110  19.070  23.510
  380BOLB   NC2 9109  16.620  17.900  25.870
  380BOLB   PO2 9110  16.350  18.000  25.640
  380BOLB   GL3 9111  16.200  17.990  25.190
  380BOLB   GL4 9112  16.500  18.010  25.070
  380BOLB   C1C 9113  15.960  18.250  25.000
  380BOLB   C2C 9114  16.020  18.550  24.670
  380BOLB   C3C 9115  15.960  18.770  24.240
  380BOLB   C4C 9116  15.810  18.730  23.790
  380BOLB   C1D 9117  16.470  17.990  24.610
  380BOLB   C2D 9118  16.280  18.240  24.350
  380BOLB   C3D 9119  16.300  18.360  23.900
  380BOLB   C4D 9120  16.220  18.220  23.500
  381BOLB   NC1 9121  14.550  17.160  21.590
  381BOLB   PO1 9122  14.950  17.050  21.540
  381BOLB   GL1 9123  15.130  16.740  21.770
  381BOLB   GL2 9124  15.350  16.910  21.830
  381BOLB   C1A 9125  15.050  16.630  22.150
  381BOLB   C2A 9126  15.270  16.580  22.580
  381BOLB   C3A 9127  15.410  16.720  22.950
  381BOLB   C4A 9128  15.780  16.830  23.190
  381BOLB   C1B 9129  15.600  16.530  22.060
  381BOLB   C2B 9130  15.970  16.220  21.880
  381BOLB   C3B 9131  16.000  15.800  22.000
  381BOLB   C4B 9132  15.990  15.540  22.270
  381BOLB   NC2 9133  18.120  16.570  24.290
  381BOLB   PO2 9134  17.860  16.230  24.220
  381BOLB   GL3 9135  17.600  16.490  24.030
  381BOLB   GL4 9136  17.650  16.790  24.030
  381BOLB   C1C 9137  17.110  16.520  23.800
  381BOLB   C2C 9138  16.820  16.530  23.530
  381BOLB   C3C 9139  16.450  16.470  23.510
  381BOLB   C4C 9140  16.120  16.600  23.280
  381BOLB   C1D 9141  17.710  16.810  23.670
  381BOLB   C2D 9142  17.370  16.570  23.310
  381BOLB   C3D 9143  17.200  16.930  23.050
  381BOLB   C4D 9144  17.030  16.910  22.750
  382BOLB   NC1 9145   7.140  12.250  11.370
  382BOLB   PO1 9146   6.940  12.220  11.050
  382BOLB   GL1 9147   6.830  11.900  10.940
  382BOLB   GL2 9148   7.080  11.800  10.700
  382BOLB   C1A 9149   6.510  11.610  10.930
  382BOLB   C2A 9150   6.420  11.230  10.750
  382BOLB   C3A 9151   6.610  11.140  10.340
  382BOLB   C4A 9152   6.560  10.810  10.070
  382BOLB   C1B 9153   7.060  11.420  10.510
  382BOLB   C2B 9154   7.100  11.090  10.190
  382BOLB   C3B 9155   7.250  10.960   9.940
  382BOLB   C4B 9156   7.580  10.690   9.710
  382BOLB   NC2 9157   5.900   8.550   8.870
  382BOLB   PO2 9158   6.280   8.830   8.850
  382BOLB   GL3 9159   6.430   9.300   8.810
  382BOLB   GL4 9160   6.110   9.440   8.690
  382BOLB   C1C 9161   6.560   9.590   9.070
  382BOLB   C2C 9162   6.710   9.960   9.340
  382BOLB   C3C 9163   6.840  10.340   9.470
  382BOLB   C4C 9164   6.660  10.700   9.680
  382BOLB   C1D 9165   6.070   9.570   9.070
  382BOLB   C2D 9166   6.180   9.870   9.240
  382BOLB   C3D 9167   6.330  10.310   9.270
  382BOLB   C4D 9168   6.150  10.690   9.480
  383BOLB   NC1 9169   4.100  16.420  17.710
  383BOLB   PO1 9170   3.790  16.530  18.060
  383BOLB   GL1 9171   3.470  16.090  18.210
  383BOLB   GL2 9172   3.490  15.840  18.000
  383BOLB   C1A 9173   3.160  15.810  18.360
  383BOLB   C2A 9174   2.850  15.500  18.450
  383BOLB   C3A 9175   2.510  15.190  18.600
  383BOLB   C4A 9176   2.320  14.780  18.840
  383BOLB   C1B 9177   3.100  15.680  17.910
  383BOLB   C2B 9178   2.880  15.360  17.960
  383BOLB   C3B 9179   2.780  15.060  18.220
  383BOLB   C4B 9180   2.440  14.850  18.250
  383BOLB   NC2 9181   0.930  13.170  19.380
  383BOLB   PO2 9182   0.860  13.560  19.080
  383BOLB   GL3 9183   0.990  13.890  19.070
  383BOLB   GL4 9184   0.780  14.050  18.840
  383BOLB   C1C 9185   1.110  14.240  19.240
  383BOLB   C2C 9186   1.520  14.420  19.370
  383BOLB   C3C 9187   1.940  14.680  19.470
  383BOLB   C4C 9188   2.330  14.710  19.230
  383BOLB   C1D 9189   1.160  14.330  18.630
  383BOLB   C2D 9190   1.350  14.570  18.920
  383BOLB   C3D 9191   1.640  14.950  19.040
  383BOLB   C4D 9192   2.060  15.240  18.920
  384BOLB   NC1 9193   4.300  17.940  19.520
  384BOLB   PO1 9194   3.900  17.720  19.600
  384BOLB   GL1 9195   3.700  17.290  19.690
  384BOLB   GL2 9196   3.390  17.350  19.720
  384BOLB   C1A 9197   3.680  16.890  19.790
  384BOLB   C2A 9198   3.380  16.640  19.860
  384BOLB   C3A 9199   3.270  16.270  20.080
  384BOLB   C4A 9200   3.070  16.360  20.510
  384BOLB   C1B 9201   3.240  17.130  20.100
  384BOLB   C2B 9202   2.930  16.820  20.310
  384BOLB   C3B 9203   2.460  16.890  20.430
  384BOLB   C4B 9204   2.230  17.050  20.710
  384BOLB   NC2 9205   3.010  14.260  22.160
  384BOLB   PO2 9206   2.610  14.550  22.040
  384BOLB   GL3 9207   2.600  15.020  21.890
  384BOLB   GL4 9208   2.830  15.270  22.030
  384BOLB   C1C 9209   2.410  15.080  21.530
  384BOLB   C2C 9210   2.250  15.510  21.260
  384BOLB   C3C 9211   2.520  15.880  21.040
  384BOLB   C4C 9212   2.780  16.210  20.850
  384BOLB   C1D 9213   2.900  15.400  21.710
  384BOLB   C2D 9214   2.810  15.470  21.230
  384BOLB   C3D 9215   3.010  15.410  20.840
  384BOLB   C4D 9216   3.300  15.290  20.580
  385BOLB   NC1 9217   7.510  20.320  22.950
  385BOLB   PO1 9218   7.650  20.720  22.870
  385BOLB   GL1 9219   7.460  20.760  23.190
  385BOLB   GL2 9220   7.210  20.470  23.320
  385BOLB   C1A 9221   7.480  20.780  23.640
  385BOLB   C2A 9222   7.650  20.800  24.160
  385BOLB   C3A 9223   7.770  20.630  24.480
  385BOLB   C4A 9224   7.550  20.410  24.830
  385BOLB   C1B 9225   7.080  20.400  23.730
  385BOLB   C2B 9226   6.780  20.470  24.150
  385BOLB   C3B 9227   6.510  20.850  24.150
  385BOLB   C4B 9228   6.540  21.210  24.400
  385BOLB   NC2 9229   6.700  20.350  26.840
  385BOLB   PO2 9230   6.350  20.560  26.740
  385BOLB   GL3 9231   6.490  20.310  26.330
  385BOLB   GL4 9232   6.730  20.030  26.240
  385BOLB   C1C 9233   6.630  20.590  26.030
  385BOLB   C2C 9234   6.740  20.410  25.680
  385BOLB   C3C 9235   6.790  20.380  25.230
  385BOLB   C4C 9236   7.260  20.380  25.120
  385BOLB   C1D 9237   6.860  19.810  25.890
  385BOLB   C2D 9238   6.820  19.840  25.500
  385BOLB   C3D 9239   7.100  19.880  25.190
  385BOLB   C4D 9240   7.360  19.940  24.810
  386BOLB   NC1 9241  11.460  14.630   8.580
  386BOLB   PO1 9242  11.720  14.940   8.400
  386BOLB   GL1 9243  11.620  14.600   8.100
  386BOLB   GL2 9244  11.780  14.500   7.810
  386BOLB   C1A 9245  11.300  14.490   7.770
  386BOLB   C2A 9246  11.150  14.340   7.400
  386BOLB   C3A 9247  11.010  14.150   7.020
  386BOLB   C4A 9248  10.920  13.850   6.740
  386BOLB   C1B 9249  12.000  14.370   7.420
  386BOLB   C2B 9250  12.000  14.310   6.980
  386BOLB   C3B 9251  12.070  14.040   6.520
  386BOLB   C4B 9252  12.200  13.610   6.320
  386BOLB   NC2 9253  10.380  11.790   5.030
  386BOLB   PO2 9254  10.730  12.170   4.850
  386BOLB   GL3 9255  10.660  12.280   5.210
  386BOLB   GL4 9256  10.710  12.060   5.490
  386BOLB   C1C 9257  10.590  12.560   5.510
  386BOLB   C2C 9258  10.580  12.850   5.830
  386BOLB   C3C 9259  10.780  13.060   6.140
  386BOLB   C4C 9260  10.880  13.470   6.420
  386BOLB   C1D 9261  10.480  12.190   5.790
  386BOLB   C2D 9262  10.590  12.380   6.160
  386BOLB   C3D 9263  10.820  12.570   6.380
  386BOLB   C4D 9264  11.100  12.950   6.460
  387BOLB   NC1 9265  12.680  13.020  19.300
  387BOLB   PO1 9266  13.170  12.930  19.340
  387BOLB   GL1 9267  13.050  12.680  19.580
  387BOLB   GL2 9268  12.800  12.480  19.440
  387BOLB   C1A 9269  13.020  12.260  19.870
  387BOLB   C2A 9270  13.040  12.190  20.360
  387BOLB   C3A 9271  12.790  11.990  20.720
  387BOLB   C4A 9272  12.430  12.010  21.070
  387BOLB   C1B 9273  12.520  12.130  19.560
  387BOLB   C2B 9274  12.410  11.730  19.830
  387BOLB   C3B 9275  12.270  11.360  20.080
  387BOLB   C4B 9276  12.290  11.270  20.480
  387BOLB   NC2 9277  12.580  10.420  22.450
  387BOLB   PO2 9278  12.480  10.750  22.750
  387BOLB   GL3 9279  12.190  11.060  22.790
  387BOLB   GL4 9280  12.020  11.100  23.070
  387BOLB   C1C 9281  12.140  11.350  22.320
  387BOLB   C2C 9282  12.080  11.580  21.870
  387BOLB   C3C 9283  11.890  11.930  21.710
  387BOLB   C4C 9284  12.080  12.160  21.340
  387BOLB   C1D 9285  11.770  11.340  22.800
  387BOLB   C2D 9286  11.710  11.460  22.440
  387BOLB   C3D 9287  11.550  11.730  22.120
  387BOLB   C4D 9288  11.510  11.610  21.750
  388BOLB   NC1 9289   3.010  18.360  18.990
  388BOLB   PO1 9290   3.120  18.010  18.720
  388BOLB   GL1 9291   2.660  17.800  18.890
  388BOLB   GL2 9292   2.710  17.590  19.050
  388BOLB   C1A 9293   2.270  17.780  19.010
  388BOLB   C2A 9294   2.010  17.560  19.180
  388BOLB   C3A 9295   1.880  17.130  19.150
  388BOLB   C4A 9296   1.580  16.790  19.050
  388BOLB   C1B 9297   2.470  17.330  19.310
  388BOLB   C2B 9298   2.280  17.000  19.400
  388BOLB   C3B 9299   2.040  16.680  19.280
  388BOLB   C4B 9300   2.100  16.250  19.200
  388BOLB   NC2 9301  36.140  15.090  19.340
  388BOLB   PO2 9302  36.160  15.090  19.800
  388BOLB   GL3 9303   0.220  15.260  19.580
  388BOLB   GL4 9304   0.370  15.590  19.620
  388BOLB   C1C 9305   0.750  15.360  19.480
  388BOLB   C2C 9306   1.180  15.630  19.410
  388BOLB   C3C 9307   1.470  16.040  19.380
  388BOLB   C4C 9308   1.630  16.380  19.140
  388BOLB   C1D 9309   0.630  15.910  19.330
  388BOLB   C2D 9310   0.960  16.110  19.380
  388BOLB   C3D 9311   1.020  16.440  19.030
  388BOLB   C4D 9312   1.080  16.780  18.880
  389BOLB   NC1 9313  15.630  29.550  20.100
  389BOLB   PO1 9314  16.030  29.640  20.170
  389BOLB   GL1 9315  16.040  29.240  19.910
  389BOLB   GL2 9316  15.760  29.230  19.730
  389BOLB   C1A 9317  16.060  28.860  19.700
  389BOLB   C2A 9318  16.100  28.550  19.350
  389BOLB   C3A 9319  16.160  28.230  19.120
  389BOLB   C4A 9320  16.060  27.780  19.030
  389BOLB   C1B 9321  15.530  28.830  19.620
  389BOLB   C2B 9322  15.500  28.430  19.510
  389BOLB   C3B 9323  15.420  28.500  19.110
  389BOLB   C4B 9324  15.370  28.510  18.690
  389BOLB   NC2 9325  17.090  28.770  20.610
  389BOLB   PO2 9326  17.460  28.540  20.570
  389BOLB   GL3 9327  17.140  28.230  20.490
  389BOLB   GL4 9328  16.920  28.270  20.650
  389BOLB   C1C 9329  16.840  28.180  20.110
  389BOLB   C2C 9330  16.860  28.050  19.680
  389BOLB   C3C 9331  16.650  27.910  19.330
  389BOLB   C4C 9332  16.350  27.550  19.170
  389BOLB   C1D 9333  16.680  27.890  20.490
  389BOLB   C2D 9334  16.500  27.540  20.430
  389BOLB   C3D 9335  16.280  27.190  20.290
  389BOLB   C4D 9336  16.040  27.050  20.010
  390BOLB   NC1 9337   5.640  13.130  12.010
  390BOLB   PO1 9338   5.300  13.380  11.810
  390BOLB   GL1 9339   5.100  12.960  11.850
  390BOLB   GL2 9340   4.910  12.930  12.100
  390BOLB   C1A 9341   4.930  12.650  11.690
  390BOLB   C2A 9342   4.950  12.290  11.480
  390BOLB   C3A 9343   4.780  11.960  11.650
  390BOLB   C4A 9344   4.550  11.580  11.730
  390BOLB   C1B 9345   4.540  12.580  12.050
  390BOLB   C2B 9346   4.390  12.190  11.840
  390BOLB   C3B 9347   4.170  11.840  11.980
  390BOLB   C4B 9348   4.320  11.420  12.130
  390BOLB   NC2 9349   3.300  10.620  10.030
  390BOLB   PO2 9350   3.250  10.200  10.170
  390BOLB   GL3 9351   3.500  10.540  10.500
  390BOLB   GL4 9352   3.190  10.880  10.620
  390BOLB   C1C 9353   3.640  10.920  10.800
  390BOLB   C2C 9354   3.690  11.200  11.080
  390BOLB   C3C 9355   3.860  11.270  11.440
  390BOLB   C4C 9356   4.210  11.480  11.620
  390BOLB   C1D 9357   3.200  11.070  11.030
  390BOLB   C2D 9358   3.010  11.040  11.510
  390BOLB   C3D 9359   3.110  10.900  11.850
  390BOLB   C4D 9360   3.000  10.820  12.270
  391BOLB   NC1 9361  14.760  22.340  21.180
  391BOLB   PO1 9362  14.340  22.390  21.330
  391BOLB   GL1 9363  14.530  22.590  21.620
  391BOLB   GL2 9364  14.720  22.280  21.680
  391BOLB   C1A 9365  14.610  22.830  21.910
  391BOLB   C2A 9366  14.940  22.830  22.300
  391BOLB   C3A 9367  15.380  22.860  22.570
  391BOLB   C4A 9368  15.770  22.880  22.770
  391BOLB   C1B 9369  15.000  22.400  22.070
  391BOLB   C2B 9370  15.240  22.400  22.490
  391BOLB   C3B 9371  15.280  22.580  22.940
  391BOLB   C4B 9372  15.290  22.680  23.320
  391BOLB   NC2 9373  16.470  23.450  25.150
  391BOLB   PO2 9374  16.480  22.980  25.000
  391BOLB   GL3 9375  16.550  22.870  24.590
  391BOLB   GL4 9376  16.780  22.680  24.350
  391BOLB   C1C 9377  16.160  22.790  24.300
  391BOLB   C2C 9378  15.840  22.850  24.000
  391BOLB   C3C 9379  15.750  22.740  23.620
  391BOLB   C4C 9380  15.790  22.780  23.200
  391BOLB   C1D 9381  16.640  22.740  23.980
  391BOLB   C2D 9382  16.340  22.540  23.780
  391BOLB   C3D 9383  16.210  22.260  23.490
  391BOLB   C4D 9384  16.160  21.990  23.160
  392BOLB   NC1 9385   8.260  23.970  22.120
  392BOLB   PO1 9386   8.490  23.580  22.130
  392BOLB   GL1 9387   8.270  23.630  22.580
  392BOLB   GL2 9388   8.160  23.290  22.830
  392BOLB   C1A 9389   8.460  23.640  22.960
  392BOLB   C2A 9390   8.640  23.570  23.410
  392BOLB   C3A 9391   8.730  23.530  23.770
  392BOLB   C4A 9392   8.800  23.520  24.310
  392BOLB   C1B 9393   8.210  23.270  23.290
  392BOLB   C2B 9394   8.220  23.470  23.710
  392BOLB   C3B 9395   7.970  23.770  23.900
  392BOLB   C4B 9396   7.790  24.090  23.680
  392BOLB   NC2 9397   9.520  24.200  26.370
  392BOLB   PO2 9398   9.630  23.750  26.340
  392BOLB   GL3 9399   9.530  23.800  26.060
  392BOLB   GL4 9400   9.220  23.940  26.040
  392BOLB   C1C 9401   9.520  23.740  25.640
  392BOLB   C2C 9402   9.280  23.740  25.250
  392BOLB   C3C 9403   8.920  23.580  25.060
  392BOLB   C4C 9404   8.710  23.430  24.780
  392BOLB   C1D 9405   8.990  24.000  25.590
  392BOLB   C2D 9406   8.690  23.880  25.360
  392BOLB   C3D 9407   8.460  23.530  25.390
  392BOLB   C4D 9408   8.510  23.140  25.300
  393BOLB   NC1 9409   4.090  15.350  23.370
  393BOLB   PO1 9410   4.180  15.510  23.820
  393BOLB   GL1 9411   4.550  15.370  23.670
  393BOLB   GL2 9412   4.590  15.170  23.370
  393BOLB   C1A 9413   4.810  15.590  23.410
  393BOLB   C2A 9414   5.210  15.880  23.430
  393BOLB   C3A 9415   5.150  16.310  23.460
  393BOLB   C4A 9416   4.730  16.560  23.390
  393BOLB   C1B 9417   4.580  15.470  22.930
  393BOLB   C2B 9418   4.550  15.630  22.570
  393BOLB   C3B 9419   4.420  15.700  22.100
  393BOLB   C4B 9420   4.190  15.870  21.820
  393BOLB   NC2 9421   3.650  18.060  24.740
  393BOLB   PO2 9422   3.530  17.620  24.620
  393BOLB   GL3 9423   3.810  17.760  24.310
  393BOLB   GL4 9424   3.850  17.730  23.990
  393BOLB   C1C 9425   4.240  17.910  24.160
  393BOLB   C2C 9426   4.540  17.750  23.860
  393BOLB   C3C 9427   4.720  17.480  23.530
  393BOLB   C4C 9428   4.770  17.080  23.420
  393BOLB   C1D 9429   4.020  17.880  23.630
  393BOLB   C2D 9430   4.350  17.810  23.300
  393BOLB   C3D 9431   4.390  17.960  22.890
  393BOLB   C4D 9432   4.790  17.900  22.740
  394BOLB   NC1 9433  11.090  12.840  24.850
  394BOLB   PO1 9434  10.810  13.180  24.880
  394BOLB   GL1 9435  10.810  13.570  24.550
  394BOLB   GL2 9436  10.610  13.790  24.370
  394BOLB   C1A 9437  10.920  13.530  24.050
  394BOLB   C2A 9438  10.830  13.570  23.580
  394BOLB   C3A 9439  10.920  13.780  23.200
  394BOLB   C4A 9440  10.900  13.480  22.800
  394BOLB   C1B 9441  10.600  13.910  23.940
  394BOLB   C2B 9442  10.680  14.120  23.560
  394BOLB   C3B 9443  10.680  14.230  23.100
  394BOLB   C4B 9444  10.710  14.520  22.820
  394BOLB   NC2 9445  10.800  11.270  23.040
  394BOLB   PO2 9446  10.500  11.320  22.670
  394BOLB   GL3 9447  10.570  11.690  22.790
  394BOLB   GL4 9448  10.380  11.930  22.550
  394BOLB   C1C 9449  10.900  12.000  22.950
  394BOLB   C2C 9450  11.200  12.220  22.730
  394BOLB   C3C 9451  11.140  12.590  22.650
  394BOLB   C4C 9452  11.170  13.080  22.710
  394BOLB   C1D 9453  10.740  12.250  22.490
  394BOLB   C2D 9454  10.700  12.620  22.290
  394BOLB   C3D 9455  10.330  12.910  22.380
  394BOLB   C4D 9456  10.210  13.370  22.230
  395BOLB   NC1 9457  14.990  12.090  17.660
  395BOLB   PO1 9458  14.890  12.420  18.060
  395BOLB   GL1 9459  15.060  12.160  18.410
  395BOLB   GL2 9460  14.960  11.930  18.350
  395BOLB   C1A 9461  15.300  11.960  18.760
  395BOLB   C2A 9462  15.630  11.670  18.860
  395BOLB   C3A 9463  15.780  11.570  19.210
  395BOLB   C4A 9464  15.620  11.560  19.580
  395BOLB   C1B 9465  15.170  11.560  18.500
  395BOLB   C2B 9466  15.500  11.260  18.510
  395BOLB   C3B 9467  15.650  10.910  18.630
  395BOLB   C4B 9468  16.120  10.860  18.820
  395BOLB   NC2 9469  16.360  11.060  21.710
  395BOLB   PO2 9470  16.250  10.570  21.700
  395BOLB   GL3 9471  16.120  10.730  21.360
  395BOLB   GL4 9472  16.400  10.800  21.170
  395BOLB   C1C 9473  15.900  11.020  21.120
  395BOLB   C2C 9474  15.710  11.090  20.700
  395BOLB   C3C 9475  15.500  11.220  20.330
  395BOLB   C4C 9476  15.600  11.290  19.910
  395BOLB   C1D 9477  16.610  11.300  20.970
  395BOLB   C2D 9478  16.690  11.590  20.680
  395BOLB   C3D 9479  16.660  11.700  20.370
  395BOLB   C4D 9480  16.370  11.850  19.950
  396BOLB   NC1 9481  12.920  10.910  16.850
  396BOLB   PO1 9482  13.320  11.050  16.610
  396BOLB   GL1 9483  13.530  10.780  16.830
  396BOLB   GL2 9484  13.590  10.480  16.620
  396BOLB   C1A 9485  13.580  10.420  17.170
  396BOLB   C2A 9486  13.440  10.220  17.550
  396BOLB   C3A 9487  13.410  10.000  17.860
  396BOLB   C4A 9488  13.590   9.680  18.080
  396BOLB   C1B 9489  13.450  10.130  16.770
  396BOLB   C2B 9490  13.240   9.680  16.720
  396BOLB   C3B 9491  13.140   9.200  16.600
  396BOLB   C4B 9492  13.340   8.800  16.470
  396BOLB   NC2 9493  14.460   8.160  20.060
  396BOLB   PO2 9494  14.080   8.060  19.850
  396BOLB   GL3 9495  14.150   8.270  19.510
  396BOLB   GL4 9496  14.370   8.480  19.630
  396BOLB   C1C 9497  13.890   8.460  19.080
  396BOLB   C2C 9498  13.850   8.700  18.760
  396BOLB   C3C 9499  13.790   8.980  18.440
  396BOLB   C4C 9500  13.670   9.180  18.170
  396BOLB   C1D 9501  14.180   8.740  19.350
  396BOLB   C2D 9502  13.940   9.070  19.130
  396BOLB   C3D 9503  13.770   9.310  18.780
  396BOLB   C4D 9504  13.950   9.620  18.430
  397BOLB   NC1 9505   3.320  19.310  19.030
  397BOLB   PO1 9506   2.950  19.600  19.140
  397BOLB   GL1 9507   2.590  19.750  19.270
  397BOLB   GL2 9508   2.550  20.010  19.470
  397BOLB   C1A 9509   2.210  19.610  19.450
  397BOLB   C2A 9510   2.000  19.590  19.820
  397BOLB   C3A 9511   1.650  19.340  19.910
  397BOLB   C4A 9512   1.390  19.110  20.080
  397BOLB   C1B 9513   2.160  20.060  19.770
  397BOLB   C2B 9514   1.730  19.980  19.800
  397BOLB   C3B 9515   1.360  19.690  20.090
  397BOLB   C4B 9516   1.020  19.570  20.260
  397BOLB   NC2 9517  36.130  18.970  21.580
  397BOLB   PO2 9518  36.310  18.980  21.950
  397BOLB   GL3 9519   0.250  18.890  21.690
  397BOLB   GL4 9520   0.430  18.690  21.840
  397BOLB   C1C 9521   0.480  19.120  21.430
  397BOLB   C2C 9522   0.710  19.270  21.020
  397BOLB   C3C 9523   1.070  19.220  20.800
  397BOLB   C4C 9524   1.190  19.150  20.380
  397BOLB   C1D 9525   0.610  18.600  21.440
  397BOLB   C2D 9526   0.650  18.790  21.040
  397BOLB   C3D 9527   1.050  18.740  20.740
  397BOLB   C4D 9528   1.440  18.860  20.900
  398BOLB   NC1 9529   3.450  14.270  14.600
  398BOLB   PO1 9530   3.810  14.400  14.840
  398BOLB   GL1 9531   3.640  14.050  14.960
  398BOLB   GL2 9532   3.830  13.790  15.010
  398BOLB   C1A 9533   3.510  13.810  15.400
  398BOLB   C2A 9534   3.340  13.530  15.730
  398BOLB   C3A 9535   3.220  13.030  15.920
  398BOLB   C4A 9536   3.190  12.700  16.010
  398BOLB   C1B 9537   3.470  13.640  14.770
  398BOLB   C2B 9538   3.090  13.630  14.870
  398BOLB   C3B 9539   2.700  13.340  14.930
  398BOLB   C4B 9540   2.320  13.050  15.080
  398BOLB   NC2 9541   1.810  10.660  15.530
  398BOLB   PO2 9542   2.200  10.710  15.560
  398BOLB   GL3 9543   2.260  11.170  15.590
  398BOLB   GL4 9544   2.050  11.510  15.770
  398BOLB   C1C 9545   2.510  11.350  15.940
  398BOLB   C2C 9546   2.570  11.590  16.210
  398BOLB   C3C 9547   2.730  11.960  16.210
  398BOLB   C4C 9548   3.030  12.270  16.020
  398BOLB   C1D 9549   2.370  11.630  15.490
  398BOLB   C2D 9550   2.680  11.660  15.250
  398BOLB   C3D 9551   3.000  11.780  14.950
  398BOLB   C4D 9552   3.450  12.070  14.930
  399BOLB   NC1 9553  13.290  18.910  22.240
  399BOLB   PO1 9554  12.860  18.770  22.340
  399BOLB   GL1 9555  13.180  18.580  22.610
  399BOLB   GL2 9556  13.470  18.480  22.450
  399BOLB   C1A 9557  13.350  18.310  22.920
  399BOLB   C2A 9558  13.480  18.080  23.300
  399BOLB   C3A 9559  13.570  17.950  23.750
  399BOLB   C4A 9560  13.810  17.800  24.060
  399BOLB   C1B 9561  13.770  18.380  22.750
  399BOLB   C2B 9562  13.830  18.390  23.120
  399BOLB   C3B 9563  13.990  18.330  23.480
  399BOLB   C4B 9564  14.050  18.560  23.880
  399BOLB   NC2 9565  14.340  17.310  26.550
  399BOLB   PO2 9566  13.910  17.340  26.340
  399BOLB   GL3 9567  14.090  17.430  25.870
  399BOLB   GL4 9568  14.370  17.170  25.670
  399BOLB   C1C 9569  13.910  17.570  25.520
  399BOLB   C2C 9570  13.610  17.630  25.120
  399BOLB   C3C 9571  13.700  17.630  24.730
  399BOLB   C4C 9572  13.920  17.630  24.410
  399BOLB   C1D 9573  14.180  17.280  25.270
  399BOLB   C2D 9574  14.230  17.400  24.820
  399BOLB   C3D 9575  14.260  17.320  24.530
  399BOLB   C4D 9576  14.200  17.250  24.030
  400BOLB   NC1 9577   1.790  17.790  14.890
  400BOLB   PO1 9578   1.800  17.980  15.290
  400BOLB   GL1 9579   1.420  18.050  15.360
  400BOLB   GL2 9580   1.090  18.170  15.410
  400BOLB   C1A 9581   1.040  17.760  15.630
  400BOLB   C2A 9582   0.660  17.710  15.580
  400BOLB   C3A 9583   0.260  17.530  15.630
  400BOLB   C4A 9584  36.220  17.680  15.430
  400BOLB   C1B 9585   0.850  18.260  15.730
  400BOLB   C2B 9586   0.520  18.410  16.030
  400BOLB   C3B 9587   0.240  18.260  16.310
  400BOLB   C4B 9588  36.150  18.170  16.320
  400BOLB   NC2 9589  34.280  17.170  16.620
  400BOLB   PO2 9590  34.700  17.060  16.550
  400BOLB   GL3 9591  34.850  17.360  16.320
  400BOLB   GL4 9592  35.130  17.130  16.220
  400BOLB   C1C 9593  35.020  17.500  15.950
  400BOLB   C2C 9594  35.090  17.750  15.500
  400BOLB   C3C 9595  35.410  17.750  15.250
  400BOLB   C4C 9596  35.790  17.630  15.380
  400BOLB   C1D 9597  35.520  17.110  15.950
  400BOLB   C2D 9598  35.950  16.990  16.150
  400BOLB   C3D 9599  36.340  16.960  16.510
  400BOLB   C4D 9600   0.140  17.300  16.620
  401BOLB   NC1 9601  12.100  14.260  20.820
  401BOLB   PO1 9602  12.270  14.560  21.170
  401BOLB   GL1 9603  12.330  14.200  21.260
  401BOLB   GL2 9604  12.540  14.060  21.110
  401BOLB   C1A 9605  12.590  14.060  21.680
  401BOLB   C2A 9606  12.530  13.830  21.950
  401BOLB   C3A 9607  12.640  13.510  22.270
  401BOLB   C4A 9608  12.830  13.330  22.600
  401BOLB   C1B 9609  12.850  13.840  21.240
  401BOLB   C2B 9610  12.980  13.700  21.720
  401BOLB   C3B 9611  13.430  13.750  21.830
  401BOLB   C4B 9612  13.630  13.780  22.250
  401BOLB   NC2 9613  12.240  12.290  24.100
  401BOLB   PO2 9614  12.630  12.170  24.290
  401BOLB   GL3 9615  12.670  12.510  24.190
  401BOLB   GL4 9616  13.060  12.520  23.940
  401BOLB   C1C 9617  12.640  12.800  23.890
  401BOLB   C2C 9618  12.770  13.110  23.580
  401BOLB   C3C 9619  13.130  13.250  23.310
  401BOLB   C4C 9620  13.090  13.190  22.930
  401BOLB   C1D 9621  13.140  12.730  23.500
  401BOLB   C2D 9622  13.020  12.610  23.030
  401BOLB   C3D 9623  12.770  12.740  22.590
  401BOLB   C4D 9624  12.780  13.000  22.230
  402BOLB   NC1 9625   5.280  16.630  19.210
  402BOLB   PO1 9626   5.110  16.270  19.470
  402BOLB   GL1 9627   4.980  16.200  19.890
  402BOLB   GL2 9628   4.890  16.330  20.050
  402BOLB   C1A 9629   5.020  15.850  20.180
  402BOLB   C2A 9630   5.350  15.780  20.420
  402BOLB   C3A 9631   5.340  15.710  20.820
  402BOLB   C4A 9632   5.070  15.570  21.120
  402BOLB   C1B 9633   4.660  16.170  20.380
  402BOLB   C2B 9634   4.340  16.010  20.620
  402BOLB   C3B 9635   4.130  15.700  20.850
  402BOLB   C4B 9636   4.150  15.380  21.090
  402BOLB   NC2 9637   4.120  14.450  23.080
  402BOLB   PO2 9638   3.700  14.430  22.770
  402BOLB   GL3 9639   3.990  14.460  22.480
  402BOLB   GL4 9640   3.920  14.180  22.230
  402BOLB   C1C 9641   4.210  14.740  22.220
  402BOLB   C2C 9642   4.450  14.770  21.860
  402BOLB   C3C 9643   4.750  14.920  21.610
  402BOLB   C4C 9644   4.750  15.360  21.340
  402BOLB   C1D 9645   4.030  14.400  21.840
  402BOLB   C2D 9646   3.870  14.500  21.400
  402BOLB   C3D 9647   3.950  14.680  20.940
  402BOLB   C4D 9648   3.750  14.810  20.560
  403BOLB   NC1 9649  13.090  20.080  22.510
  403BOLB   PO1 9650  12.760  19.960  22.710
  403BOLB   GL1 9651  12.860  20.250  23.020
  403BOLB   GL2 9652  12.590  20.330  23.140
  403BOLB   C1A 9653  13.050  20.290  23.340
  403BOLB   C2A 9654  13.080  20.470  23.890
  403BOLB   C3A 9655  13.040  20.890  24.120
  403BOLB   C4A 9656  13.280  21.140  24.310
  403BOLB   C1B 9657  12.530  20.350  23.550
  403BOLB   C2B 9658  12.590  20.570  23.950
  403BOLB   C3B 9659  12.530  20.970  24.140
  403BOLB   C4B 9660  12.330  21.190  24.460
  403BOLB   NC2 9661  13.080  22.140  26.710
  403BOLB   PO2 9662  13.480  22.100  26.460
  403BOLB   GL3 9663  13.270  21.910  26.160
  403BOLB   GL4 9664  12.920  21.870  26.170
  403BOLB   C1C 9665  13.220  21.620  25.860
  403BOLB   C2C 9666  13.410  21.380  25.560
  403BOLB   C3C 9667  13.520  21.320  25.170
  403BOLB   C4C 9668  13.390  21.140  24.780
  403BOLB   C1D 9669  12.680  22.010  25.790
  403BOLB   C2D 9670  12.620  21.890  25.350
  403BOLB   C3D 9671  12.400  21.670  25.180
  403BOLB   C4D 9672  12.210  21.480  24.970
  404BOLB   NC1 9673   1.710  19.150  13.190
  404BOLB   PO1 9674   1.780  19.170  12.800
  404BOLB   GL1 9675   1.430  18.910  12.880
  404BOLB   GL2 9676   1.230  19.220  12.930
  404BOLB   C1A 9677   1.060  18.670  12.990
  404BOLB   C2A 9678   0.650  18.580  12.740
  404BOLB   C3A 9679   0.290  18.740  12.660
  404BOLB   C4A 9680  36.360  18.760  12.340
  404BOLB   C1B 9681   0.800  19.050  12.820
  404BOLB   C2B 9682   0.470  19.220  12.850
  404BOLB   C3B 9683   0.230  19.430  12.880
  404BOLB   C4B 9684  36.170  19.370  13.070
  404BOLB   NC2 9685  33.920  19.490  11.620
  404BOLB   PO2 9686  34.100  19.430  12.120
  404BOLB   GL3 9687  34.510  19.530  11.930
  404BOLB   GL4 9688  34.440  19.460  11.610
  404BOLB   C1C 9689  34.940  19.690  12.120
  404BOLB   C2C 9690  35.340  19.460  11.890
  404BOLB   C3C 9691  35.600  19.130  12.140
  404BOLB   C4C 9692  35.960  18.820  12.150
  404BOLB   C1D 9693  34.880  19.370  11.600
  404BOLB   C2D 9694  35.090  19.070  11.800
  404BOLB   C3D 9695  35.040  18.610  11.710
  404BOLB   C4D 9696  35.040  18.250  11.890
  405BOLB   NC1 9697   2.560  15.270  13.060
  405BOLB   PO1 9698   2.290  15.370  12.740
  405BOLB   GL1 9699   2.080  15.270  13.060
  405BOLB   GL2 9700   2.190  14.870  13.160
  405BOLB   C1A 9701   1.700  15.110  13.260
  405BOLB   C2A 9702   1.400  14.880  13.300
  405BOLB   C3A 9703   1.020  15.000  13.330
  405BOLB   C4A 9704   0.610  15.080  13.460
  405BOLB   C1B 9705   1.870  14.820  12.880
  405BOLB   C2B 9706   1.550  14.700  12.590
  405BOLB   C3B 9707   1.460  14.370  12.370
  405BOLB   C4B 9708   1.630  14.020  12.130
  405BOLB   NC2 9709  35.300  15.250  12.010
  405BOLB   PO2 9710  35.100  14.800  12.110
  405BOLB   GL3 9711  35.530  14.860  12.310
  405BOLB   GL4 9712  35.740  14.820  11.970
  405BOLB   C1C 9713  35.910  14.960  12.500
  405BOLB   C2C 9714  36.290  14.790  12.650
  405BOLB   C3C 9715   0.020  14.920  13.020
  405BOLB   C4C 9716   0.380  14.970  13.180
  405BOLB   C1D 9717  36.160  14.790  12.150
  405BOLB   C2D 9718   0.310  15.020  12.160
  405BOLB   C3D 9719   0.680  15.190  12.110
  405BOLB   C4D 9720   1.090  15.220  12.370
  406BOLB   NC1 9721   8.020  13.400  19.310
  406BOLB   PO1 9722   7.830  13.150  18.950
  406BOLB   GL1 9723   7.890  12.670  19.050
  406BOLB   GL2 9724   8.020  12.810  19.400
  406BOLB   C1A 9725   7.590  12.510  19.320
  406BOLB   C2A 9726   7.560  12.240  19.610
  406BOLB   C3A 9727   7.630  11.930  20.000
  406BOLB   C4A 9728   7.720  11.960  20.410
  406BOLB   C1B 9729   8.040  12.510  19.710
  406BOLB   C2B 9730   8.310  12.270  19.820
  406BOLB   C3B 9731   8.580  12.030  20.070
  406BOLB   C4B 9732   8.510  11.820  20.550
  406BOLB   NC2 9733   7.700  10.940  22.710
  406BOLB   PO2 9734   8.060  10.990  22.340
  406BOLB   GL3 9735   8.050  11.260  21.980
  406BOLB   GL4 9736   7.820  11.390  21.870
  406BOLB   C1C 9737   8.210  11.680  21.740
  406BOLB   C2C 9738   8.350  12.070  21.570
  406BOLB   C3C 9739   8.180  12.170  21.160
  406BOLB   C4C 9740   7.990  12.100  20.770
  406BOLB   C1D 9741   7.720  11.610  21.510
  406BOLB   C2D 9742   7.880  11.770  21.210
  406BOLB   C3D 9743   8.290  11.650  20.930
  406BOLB   C4D 9744   8.680  11.910  21.150
  407BOLB   NC1 9745  12.660  23.390  21.940
  407BOLB   PO1 9746  12.800  23.000  22.070
  407BOLB   GL1 9747  12.890  23.030  22.500
  407BOLB   GL2 9748  12.710  23.240  22.710
  407BOLB   C1A 9749  13.170  22.920  22.750
  407BOLB   C2A 9750  13.500  23.030  23.100
  407BOLB   C3A 9751  13.610  23.050  23.470
  407BOLB   C4A 9752  13.750  22.800  23.890
  407BOLB   C1B 9753  12.660  23.460  23.020
  407BOLB   C2B 9754  12.700  23.760  23.290
  407BOLB   C3B 9755  12.670  23.790  23.710
  407BOLB   C4B 9756  12.530  23.730  24.040
  407BOLB   NC2 9757  14.630  22.660  26.310
  407BOLB   PO2 9758  14.250  22.660  26.310
  407BOLB   GL3 9759  14.070  22.420  25.850
  407BOLB   GL4 9760  13.900  22.090  26.010
  407BOLB   C1C 9761  14.050  22.210  25.400
  407BOLB   C2C 9762  14.140  22.120  24.940
  407BOLB   C3C 9763  14.050  22.370  24.580
  407BOLB   C4C 9764  13.840  22.580  24.290
  407BOLB   C1D 9765  14.150  21.810  25.680
  407BOLB   C2D 9766  13.980  21.680  25.270
  407BOLB   C3D 9767  13.880  21.330  24.810
  407BOLB   C4D 9768  13.710  21.370  24.430
  408BOLB   NC1 9769  34.020  23.550  12.750
  408BOLB   PO1 9770  34.380  23.230  12.450
  408BOLB   GL1 9771  34.730  23.330  12.670
  408BOLB   GL2 9772  34.600  23.270  13.030
  408BOLB   C1A 9773  35.140  23.310  12.830
  408BOLB   C2A 9774  35.310  23.090  13.120
  408BOLB   C3A 9775  35.320  22.710  13.260
  408BOLB   C4A 9776  35.150  22.470  13.600
  408BOLB   C1B 9777  34.870  23.510  13.220
  408BOLB   C2B 9778  35.180  23.690  13.340
  408BOLB   C3B 9779  35.560  23.580  13.390
  408BOLB   C4B 9780  35.880  23.350  13.510
  408BOLB   NC2 9781  33.940  21.860  14.670
  408BOLB   PO2 9782  33.930  21.760  15.090
  408BOLB   GL3 9783  34.310  21.710  15.130
  408BOLB   GL4 9784  34.450  21.560  15.360
  408BOLB   C1C 9785  34.610  21.730  14.820
  408BOLB   C2C 9786  34.850  21.820  14.640
  408BOLB   C3C 9787  35.150  22.010  14.280
  408BOLB   C4C 9788  35.130  22.290  13.960
  408BOLB   C1D 9789  34.890  21.420  15.190
  408BOLB   C2D 9790  35.340  21.430  15.280
  408BOLB   C3D 9791  35.670  21.710  15.130
  408BOLB   C4D 9792  35.960  21.640  14.970
  409BOLB   NC1 9793   9.830  23.410  22.140
  409BOLB   PO1 9794   9.460  23.320  22.040
  409BOLB   GL1 9795   9.290  23.270  22.450
  409BOLB   GL2 9796   9.190  22.950  22.590
  409BOLB   C1A 9797   9.480  23.340  22.830
  409BOLB   C2A 9798   9.500  23.450  23.280
  409BOLB   C3A 9799   9.290  23.780  23.690
  409BOLB   C4A 9800   9.110  23.840  24.110
  409BOLB   C1B 9801   9.120  23.100  23.110
  409BOLB   C2B 9802   9.130  23.300  23.540
  409BOLB   C3B 9803   9.240  23.300  23.980
  409BOLB   C4B 9804   9.490  22.950  24.150
  409BOLB   NC2 9805  10.790  24.270  26.100
  409BOLB   PO2 9806  10.400  24.050  25.990
  409BOLB   GL3 9807  10.260  24.340  25.630
  409BOLB   GL4 9808  10.480  24.550  25.470
  409BOLB   C1C 9809   9.990  24.220  25.350
  409BOLB   C2C 9810   9.610  24.030  25.030
  409BOLB   C3C 9811   9.300  23.840  24.780
  409BOLB   C4C 9812   9.240  23.950  24.400
  409BOLB   C1D 9813  10.590  24.160  25.300
  409BOLB   C2D 9814  10.450  23.920  25.060
  409BOLB   C3D 9815  10.060  23.860  24.930
  409BOLB   C4D 9816   9.880  23.630  24.660
  410BOLB   NC1 9817   7.850  14.260  19.710
  410BOLB   PO1 9818   7.550  14.020  19.300
  410BOLB   GL1 9819   7.500  13.850  19.720
  410BOLB   GL2 9820   7.290  13.950  19.840
  410BOLB   C1A 9821   7.550  13.400  19.870
  410BOLB   C2A 9822   7.540  13.160  20.300
  410BOLB   C3A 9823   7.640  12.800  20.630
  410BOLB   C4A 9824   7.470  12.800  20.950
  410BOLB   C1B 9825   7.160  13.600  20.130
  410BOLB   C2B 9826   7.010  13.330  20.370
  410BOLB   C3B 9827   7.140  13.000  20.590
  410BOLB   C4B 9828   7.090  12.590  20.740
  410BOLB   NC2 9829   6.680  11.770  23.390
  410BOLB   PO2 9830   6.810  11.690  22.980
  410BOLB   GL3 9831   7.020  11.700  22.590
  410BOLB   GL4 9832   7.220  12.000  22.620
  410BOLB   C1C 9833   7.070  11.940  22.150
  410BOLB   C2C 9834   7.280  12.150  21.800
  410BOLB   C3C 9835   7.210  12.350  21.550
  410BOLB   C4C 9836   7.200  12.700  21.240
  410BOLB   C1D 9837   7.470  12.180  22.390
  410BOLB   C2D 9838   7.670  12.410  22.040
  410BOLB   C3D 9839   7.530  12.710  21.740
  410BOLB   C4D 9840   7.630  13.010  21.350
  411BOLB   NC1 9841  23.790  17.060  10.820
  411BOLB   PO1 9842  23.360  17.100  10.860
  411BOLB   GL1 9843  22.970  17.170  11.060
  411BOLB   GL2 9844  23.010  17.520  11.000
  411BOLB   C1A 9845  22.720  17.320  11.430
  411BOLB   C2A 9846  22.280  17.200  11.580
  411BOLB   C3A 9847  21.890  17.510  11.530
  411BOLB   C4A 9848  21.710  17.240  11.950
  411BOLB   C1B 9849  22.530  17.740  11.140
  411BOLB   C2B 9850  22.130  18.000  11.170
  411BOLB   C3B 9851  22.000  18.350  11.470
  411BOLB   C4B 9852  21.580  18.470  11.650
  411BOLB   NC2 9853  24.370  16.550  12.090
  411BOLB   PO2 9854  24.000  16.500  12.290
  411BOLB   GL3 9855  23.520  16.470  12.450
  411BOLB   GL4 9856  23.220  16.340  12.630
  411BOLB   C1C 9857  23.230  16.770  12.360
  411BOLB   C2C 9858  22.780  16.890  12.370
  411BOLB   C3C 9859  22.350  16.970  12.190
  411BOLB   C4C 9860  21.970  17.150  12.290
  411BOLB   C1D 9861  22.780  16.430  12.740
  411BOLB   C2D 9862  22.510  16.530  12.470
  411BOLB   C3D 9863  22.120  16.550  12.270
  411BOLB   C4D 9864  21.670  16.400  12.060
  412BOLB   NC1 9865  17.500  25.320  16.610
  412BOLB   PO1 9866  17.600  25.220  17.060
  412BOLB   GL1 9867  17.870  25.460  17.250
  412BOLB   GL2 9868  17.810  25.390  17.720
  412BOLB   C1A 9869  18.290  25.470  17.400
  412BOLB   C2A 9870  18.810  25.480  17.260
  412BOLB   C3A 9871  19.180  25.820  17.240
  412BOLB   C4A 9872  19.240  26.200  17.440
  412BOLB   C1B 9873  17.870  25.830  17.920
  412BOLB   C2B 9874  17.790  26.300  18.110
  412BOLB   C3B 9875  17.930  26.670  18.020
  412BOLB   C4B 9876  17.980  27.130  18.180
  412BOLB   NC2 9877  19.960  27.670  18.400
  412BOLB   PO2 9878  19.530  28.050  18.520
  412BOLB   GL3 9879  19.380  27.630  18.370
  412BOLB   GL4 9880  19.600  27.390  18.240
  412BOLB   C1C 9881  19.150  27.390  18.450
  412BOLB   C2C 9882  18.980  27.090  18.240
  412BOLB   C3C 9883  18.950  26.760  17.950
  412BOLB   C4C 9884  19.160  26.580  17.620
  412BOLB   C1D 9885  19.460  27.130  17.980
  412BOLB   C2D 9886  19.280  27.190  17.660
  412BOLB   C3D 9887  19.620  27.170  17.350
  412BOLB   C4D 9888  19.790  27.580  17.250
  413BOLB   NC1 9889  13.230  15.720  21.020
  413BOLB   PO1 9890  13.070  15.400  21.280
  413BOLB   GL1 9891  13.330  15.260  21.530
  413BOLB   GL2 9892  13.470  15.550  21.730
  413BOLB   C1A 9893  13.340  15.100  21.890
  413BOLB   C2A 9894  13.190  14.730  22.250
  413BOLB   C3A 9895  13.030  14.440  22.600
  413BOLB   C4A 9896  12.890  14.250  22.890
  413BOLB   C1B 9897  13.500  15.540  22.140
  413BOLB   C2B 9898  13.510  15.580  22.580
  413BOLB   C3B 9899  13.290  15.510  23.110
  413BOLB   C4B 9900  13.630  15.550  23.430
  413BOLB   NC2 9901  12.490  13.150  25.220
  413BOLB   PO2 9902  12.930  13.270  25.140
  413BOLB   GL3 9903  13.050  13.210  24.720
  413BOLB   GL4 9904  12.930  13.570  24.570
  413BOLB   C1C 9905  12.770  13.280  24.190
  413BOLB   C2C 9906  12.650  13.560  23.820
  413BOLB   C3C 9907  12.690  13.750  23.420
  413BOLB   C4C 9908  12.590  14.120  23.150
  413BOLB   C1D 9909  12.990  13.810  24.200
  413BOLB   C2D 9910  13.120  14.060  23.860
  413BOLB   C3D 9911  13.140  14.130  23.410
  413BOLB   C4D 9912  13.020  13.770  23.100
  414BOLB   NC1 9913  17.460  25.130  17.500
  414BOLB   PO1 9914  17.920  24.930  17.430
  414BOLB   GL1 9915  18.280  25.070  17.660
  414BOLB   GL2 9916  18.190  24.730  17.810
  414BOLB   C1A 9917  18.610  25.230  17.630
  414BOLB   C2A 9918  18.920  25.560  17.790
  414BOLB   C3A 9919  19.340  25.670  17.770
  414BOLB   C4A 9920  19.490  25.870  18.180
  414BOLB   C1B 9921  18.510  24.500  17.560
  414BOLB   C2B 9922  18.980  24.500  17.480
  414BOLB   C3B 9923  19.370  24.510  17.270
  414BOLB   C4B 9924  19.540  24.800  17.230
  414BOLB   NC2 9925  21.520  25.370  18.830
  414BOLB   PO2 9926  21.580  25.250  19.230
  414BOLB   GL3 9927  21.120  25.170  19.080
  414BOLB   GL4 9928  21.000  24.890  19.040
  414BOLB   C1C 9929  20.730  25.300  18.810
  414BOLB   C2C 9930  20.420  25.680  18.900
  414BOLB   C3C 9931  20.020  25.890  18.880
  414BOLB   C4C 9932  19.640  25.890  18.620
  414BOLB   C1D 9933  20.610  24.640  19.150
  414BOLB   C2D 9934  20.170  24.660  19.170
  414BOLB   C3D 9935  19.770  24.550  19.120
  414BOLB   C4D 9936  19.400  24.670  18.840
  415BOLB   NC1 9937   1.940  17.800  14.390
  415BOLB   PO1 9938   1.730  17.940  14.020
  415BOLB   GL1 9939   1.380  17.790  13.750
  415BOLB   GL2 9940   1.180  18.040  13.670
  415BOLB   C1A 9941   1.010  17.600  13.870
  415BOLB   C2A 9942   0.560  17.730  13.980
  415BOLB   C3A 9943   0.220  17.810  14.230
  415BOLB   C4A 9944  36.190  17.860  14.440
  415BOLB   C1B 9945   0.750  18.250  13.890
  415BOLB   C2B 9946   0.260  18.270  13.880
  415BOLB   C3B 9947  36.230  18.150  13.960
  415BOLB   C4B 9948  35.890  18.210  13.740
  415BOLB   NC2 9949  33.740  17.240  14.290
  415BOLB   PO2 9950  34.050  17.020  14.450
  415BOLB   GL3 9951  34.530  17.170  14.340
  415BOLB   GL4 9952  34.640  17.170  13.980
  415BOLB   C1C 9953  34.810  17.410  14.340
  415BOLB   C2C 9954  35.030  17.570  14.600
  415BOLB   C3C 9955  35.310  17.740  14.740
  415BOLB   C4C 9956  35.740  17.910  14.590
  415BOLB   C1D 9957  35.120  17.220  13.880
  415BOLB   C2D 9958  35.480  17.240  13.850
  415BOLB   C3D 9959  35.960  17.070  13.980
  415BOLB   C4D 9960  36.120  16.640  13.830
  416BOLB   NC1 9961  15.530  20.890  21.220
  416BOLB   PO1 9962  15.820  20.560  21.190
  416BOLB   GL1 9963  15.710  20.430  21.660
  416BOLB   GL2 9964  16.030  20.430  21.730
  416BOLB   C1A 9965  15.390  20.320  21.980
  416BOLB   C2A 9966  15.490  20.320  22.410
  416BOLB   C3A 9967  15.720  20.160  22.730
  416BOLB   C4A 9968  15.910  20.350  23.020
  416BOLB   C1B 9969  16.090  20.330  22.140
  416BOLB   C2B 9970  16.320  20.270  22.450
  416BOLB   C3B 9971  16.790  20.300  22.650
  416BOLB   C4B 9972  16.860  20.400  23.050
  416BOLB   NC2 9973  17.290  20.300  24.770
  416BOLB   PO2 9974  17.620  20.400  24.480
  416BOLB   GL3 9975  17.430  20.030  24.330
  416BOLB   GL4 9976  17.580  19.690  24.270
  416BOLB   C1C 9977  16.920  19.930  24.290
  416BOLB   C2C 9978  16.620  19.870  23.850
  416BOLB   C3C 9979  16.210  20.050  23.740
  416BOLB   C4C 9980  16.060  20.410  23.350
  416BOLB   C1D 9981  17.570  19.630  23.870
  416BOLB   C2D 9982  17.560  19.610  23.450
  416BOLB   C3D 9983  17.360  19.830  23.180
  416BOLB   C4D 9984  17.230  20.160  22.830
  417BOLB   NC1 9985   7.700  11.310  13.970
  417BOLB   PO1 9986   7.450  11.530  14.190
  417BOLB   GL1 9987   7.150  11.240  14.130
  417BOLB   GL2 9988   7.350  10.990  14.230
  417BOLB   C1A 9989   6.870  10.870  14.200
  417BOLB   C2A 9990   6.540  10.870  14.490
  417BOLB   C3A 9991   6.260  10.730  14.380
  417BOLB   C4A 9992   5.800  10.760  14.330
  417BOLB   C1B 9993   7.250  10.820  13.870
  417BOLB   C2B 9994   7.170  10.590  13.570
  417BOLB   C3B 9995   7.000  10.150  13.490
  417BOLB   C4B 9996   7.190   9.730  13.680
  417BOLB   NC2 9997   5.110   8.080  15.480
  417BOLB   PO2 9998   4.690   8.300  15.200
  417BOLB   GL3 9999   4.880   8.640  15.110
  417BOLB   GL410000   5.180   8.600  15.260
  417BOLB   C1C10001   4.910   9.010  14.790
  417BOLB   C2C10002   4.960   9.590  14.670
  417BOLB   C3C10003   5.290   9.970  14.550
  417BOLB   C4C10004   5.390  10.480  14.360
  417BOLB   C1D10005   5.290   8.990  15.140
  417BOLB   C2D10006   5.410   9.350  15.280
  417BOLB   C3D10007   5.260   9.680  15.620
  417BOLB   C4D10008   5.380  10.060  15.830
  418BOLB   NC110009  19.480  20.290  14.410
  418BOLB   PO110010  19.790  19.940  14.370
  418BOLB   GL110011  20.050  19.900  14.730
  418BOLB   GL210012  20.240  20.130  14.730
  418BOLB   C1A10013  20.360  19.530  14.900
  418BOLB   C2A10014  20.770  19.450  14.900
  418BOLB   C3A10015  21.210  19.450  15.040
  418BOLB   C4A10016  21.600  19.280  15.200
  418BOLB   C1B10017  20.690  20.300  14.720
  418BOLB   C2B10018  21.090  20.490  14.710
  418BOLB   C3B10019  21.230  20.820  14.720
  418BOLB   C4B10020  21.360  21.190  14.750
  418BOLB   NC210021  23.670  18.430  15.680
  418BOLB   PO210022  23.730  18.010  15.470
  418BOLB   GL310023  23.290  17.910  15.670
  418BOLB   GL410024  23.220  17.490  15.900
  418BOLB   C1C10025  22.780  18.050  15.830
  418BOLB   C2C10026  22.360  18.300  15.850
  418BOLB   C3C10027  21.960  18.670  15.700
  418BOLB   C4C10028  21.680  18.850  15.450
  418BOLB   C1D10029  22.960  17.490  15.550
  418BOLB   C2D10030  22.640  17.760  15.460
  418BOLB   C3D10031  22.410  18.080  15.420
  418BOLB   C4D10032  22.080  18.300  15.350
  419BOLB   NC110033   7.900  12.200  16.980
  419BOLB   PO110034   8.050  12.150  17.390
  419BOLB   GL110035   7.900  11.870  17.400
  419BOLB   GL210036   7.810  11.710  17.130
  419BOLB   C1A10037   7.570  11.620  17.590
  419BOLB   C2A10038   7.570  11.350  17.880
  419BOLB   C3A10039   7.580  11.430  18.300
  419BOLB   C4A10040   7.600  11.250  18.640
  419BOLB   C1B10041   7.620  11.340  17.160
  419BOLB   C2B10042   7.200  11.120  17.120
  419BOLB   C3B10043   6.810  11.040  17.310
  419BOLB   C4B10044   6.300  11.110  17.210
  419BOLB   NC210045   8.010   8.950  19.900
  419BOLB   PO210046   7.670   9.120  20.230
  419BOLB   GL310047   7.600   9.330  19.840
  419BOLB   GL410048   7.900   9.380  19.670
  419BOLB   C1C10049   7.530   9.700  19.500
  419BOLB   C2C10050   7.610  10.120  19.190
  419BOLB   C3C10051   7.630  10.570  19.110
  419BOLB   C4C10052   7.600  10.940  18.940
  419BOLB   C1D10053   8.230   9.380  19.370
  419BOLB   C2D10054   8.630   9.470  19.370
  419BOLB   C3D10055   8.930   9.730  19.120
  419BOLB   C4D10056   9.170  10.150  19.170
  420BOLB   NC110057  15.740  12.100  13.940
  420BOLB   PO110058  15.780  11.830  14.300
  420BOLB   GL110059  15.740  11.360  14.360
  420BOLB   GL210060  16.000  11.240  14.350
  420BOLB   C1A10061  15.600  10.970  14.430
  420BOLB   C2A10062  15.960  10.670  14.570
  420BOLB   C3A10063  16.200  10.510  14.890
  420BOLB   C4A10064  16.380  10.200  15.130
  420BOLB   C1B10065  16.270  11.380  14.010
  420BOLB   C2B10066  16.500  11.260  13.640
  420BOLB   C3B10067  16.590  10.850  13.550
  420BOLB   C4B10068  16.830  10.560  13.280
  420BOLB   NC210069  17.130   7.930  14.610
  420BOLB   PO210070  17.400   8.170  14.880
  420BOLB   GL310071  17.350   8.610  14.940
  420BOLB   GL410072  17.000   8.460  14.810
  420BOLB   C1C10073  17.470   8.990  15.020
  420BOLB   C2C10074  17.180   9.290  15.180
  420BOLB   C3C10075  16.770   9.530  15.190
  420BOLB   C4C10076  16.420   9.830  15.110
  420BOLB   C1D10077  16.610   8.740  14.800
  420BOLB   C2D10078  16.340   9.040  14.710
  420BOLB   C3D10079  16.150   9.390  14.690
  420BOLB   C4D10080  16.020   9.790  14.810
  421BOLB   NC110081   6.780  13.140  10.820
  421BOLB   PO110082   7.110  12.850  10.550
  421BOLB   GL110083   6.710  12.680  10.450
  421BOLB   GL210084   6.770  12.330  10.640
  421BOLB   C1A10085   6.320  12.430  10.480
  421BOLB   C2A10086   6.050  12.170  10.420
  421BOLB   C3A10087   5.810  11.780  10.470
  421BOLB   C4A10088   5.760  11.440  10.130
  421BOLB   C1B10089   6.530  11.950  10.580
  421BOLB   C2B10090   6.300  11.630  10.440
  421BOLB   C3B10091   6.240  11.380  10.010
  421BOLB   C4B10092   6.300  11.100   9.770
  421BOLB   NC210093   4.760   9.120   9.050
  421BOLB   PO210094   4.930   9.160   9.420
  421BOLB   GL310095   5.170   9.550   9.530
  421BOLB   GL410096   4.930   9.730   9.700
  421BOLB   C1C10097   5.570   9.860   9.530
  421BOLB   C2C10098   5.790  10.260   9.540
  421BOLB   C3C10099   5.790  10.600   9.830
  421BOLB   C4C10100   5.750  11.030   9.850
  421BOLB   C1D10101   5.310   9.980   9.990
  421BOLB   C2D10102   5.700  10.170  10.110
  421BOLB   C3D10103   5.830  10.500  10.320
  421BOLB   C4D10104   6.130  10.940  10.210
  422BOLB   NC110105  16.260  22.920  19.890
  422BOLB   PO110106  16.450  23.100  19.530
  422BOLB   GL110107  16.670  23.350  19.760
  422BOLB   GL210108  16.700  23.170  19.980
  422BOLB   C1A10109  16.560  23.670  20.090
  422BOLB   C2A10110  16.690  23.920  20.240
  422BOLB   C3A10111  16.980  24.060  20.520
  422BOLB   C4A10112  17.420  24.200  20.760
  422BOLB   C1B10113  16.900  23.160  20.370
  422BOLB   C2B10114  17.110  23.120  20.810
  422BOLB   C3B10115  17.290  23.390  21.130
  422BOLB   C4B10116  17.240  23.600  21.460
  422BOLB   NC210117  19.400  25.450  22.120
  422BOLB   PO210118  19.390  25.270  21.670
  422BOLB   GL310119  19.090  25.010  21.370
  422BOLB   GL410120  19.120  24.890  21.050
  422BOLB   C1C10121  18.680  25.050  21.230
  422BOLB   C2C10122  18.450  25.150  20.830
  422BOLB   C3C10123  18.000  24.960  20.760
  422BOLB   C4C10124  17.760  24.540  20.770
  422BOLB   C1D10125  18.930  24.730  20.670
  422BOLB   C2D10126  18.760  24.840  20.260
  422BOLB   C3D10127  18.850  25.170  20.070
  422BOLB   C4D10128  18.890  25.470  19.780
  423BOLB   NC110129  16.330  17.800  20.300
  423BOLB   PO110130  16.510  17.830  20.790
  423BOLB   GL110131  16.760  17.610  21.020
  423BOLB   GL210132  16.590  17.400  21.120
  423BOLB   C1A10133  17.080  17.460  21.250
  423BOLB   C2A10134  17.350  17.440  21.670
  423BOLB   C3A10135  17.640  17.560  21.930
  423BOLB   C4A10136  17.680  17.610  22.250
  423BOLB   C1B10137  16.630  17.540  21.600
  423BOLB   C2B10138  16.820  17.640  21.950
  423BOLB   C3B10139  17.200  17.500  22.140
  423BOLB   C4B10140  17.260  17.320  22.450
  423BOLB   NC210141  18.200  17.230  24.550
  423BOLB   PO210142  17.910  16.990  24.460
  423BOLB   GL310143  18.020  17.050  24.100
  423BOLB   GL410144  18.320  17.000  24.140
  423BOLB   C1C10145  17.930  17.280  23.720
  423BOLB   C2C10146  17.700  17.270  23.420
  423BOLB   C3C10147  17.540  17.380  22.980
  423BOLB   C4C10148  17.690  17.530  22.660
  423BOLB   C1D10149  18.410  17.350  23.780
  423BOLB   C2D10150  18.340  17.470  23.450
  423BOLB   C3D10151  18.070  17.570  23.040
  423BOLB   C4D10152  18.030  17.970  22.720
  424BOLB   NC110153   6.270  23.800  21.770
  424BOLB   PO110154   6.250  24.150  21.530
  424BOLB   GL110155   6.170  24.360  21.920
  424BOLB   GL210156   6.430  24.530  21.960
  424BOLB   C1A10157   5.960  24.630  22.210
  424BOLB   C2A10158   5.780  24.790  22.590
  424BOLB   C3A10159   5.780  25.150  22.860
  424BOLB   C4A10160   5.570  25.370  23.180
  424BOLB   C1B10161   6.240  24.930  21.920
  424BOLB   C2B10162   5.990  25.260  21.930
  424BOLB   C3B10163   5.920  25.750  21.950
  424BOLB   C4B10164   5.990  26.150  22.030
  424BOLB   NC210165   5.890  26.440  24.950
  424BOLB   PO210166   6.190  26.330  24.590
  424BOLB   GL310167   6.570  26.200  24.400
  424BOLB   GL410168   6.630  26.530  24.200
  424BOLB   C1C10169   6.580  26.100  24.020
  424BOLB   C2C10170   6.300  25.900  23.750
  424BOLB   C3C10171   5.830  25.880  23.840
  424BOLB   C4C10172   5.600  25.750  23.560
  424BOLB   C1D10173   6.740  26.430  23.730
  424BOLB   C2D10174   6.970  26.550  23.380
  424BOLB   C3D10175   7.380  26.730  23.300
  424BOLB   C4D10176   7.730  26.450  23.260
  425BOLB   NC110177  15.430  17.690  21.340
  425BOLB   PO110178  15.700  18.010  21.040
  425BOLB   GL110179  15.970  18.140  21.430
  425BOLB   GL210180  16.220  18.440  21.440
  425BOLB   C1A10181  16.220  17.930  21.730
  425BOLB   C2A10182  16.460  17.950  22.140
  425BOLB   C3A10183  16.870  17.990  22.310
  425BOLB   C4A10184  17.220  17.880  22.520
  425BOLB   C1B10185  16.660  18.320  21.750
  425BOLB   C2B10186  16.950  18.440  22.130
  425BOLB   C3B10187  17.010  18.370  22.600
  425BOLB   C4B10188  16.920  18.170  22.940
  425BOLB   NC210189  18.900  18.330  24.950
  425BOLB   PO210190  18.480  18.210  24.760
  425BOLB   GL310191  18.240  18.070  24.280
  425BOLB   GL410192  17.890  18.020  24.190
  425BOLB   C1C10193  18.140  17.820  23.790
  425BOLB   C2C10194  17.850  17.720  23.450
  425BOLB   C3C10195  17.450  17.870  23.170
  425BOLB   C4C10196  17.190  17.770  22.820
  425BOLB   C1D10197  17.660  18.090  23.740
  425BOLB   C2D10198  17.500  18.340  23.380
  425BOLB   C3D10199  17.390  18.370  22.890
  425BOLB   C4D10200  17.610  18.180  22.630
  426BOLB   NC110201   9.340  22.460  22.520
  426BOLB   PO110202   9.690  22.200  22.400
  426BOLB   GL110203   9.920  22.530  22.680
  426BOLB   GL210204   9.650  22.480  22.900
  426BOLB   C1A10205  10.110  22.740  22.960
  426BOLB   C2A10206  10.360  22.970  23.290
  426BOLB   C3A10207  10.590  23.270  23.590
  426BOLB   C4A10208  10.640  23.490  23.980
  426BOLB   C1B10209   9.590  22.740  23.230
  426BOLB   C2B10210   9.670  23.060  23.600
  426BOLB   C3B10211   9.740  23.300  23.890
  426BOLB   C4B10212   9.930  23.230  24.420
  426BOLB   NC210213  11.520  25.900  25.130
  426BOLB   PO210214  11.400  25.590  24.840
  426BOLB   GL310215  11.270  25.490  24.510
  426BOLB   GL410216  10.970  25.610  24.410
  426BOLB   C1C10217  11.210  25.060  24.330
  426BOLB   C2C10218  11.230  24.680  24.180
  426BOLB   C3C10219  11.240  24.240  24.150
  426BOLB   C4C10220  10.970  23.770  24.140
  426BOLB   C1D10221  10.600  25.410  24.070
  426BOLB   C2D10222  10.600  25.120  23.890
  426BOLB   C3D10223  10.850  24.690  23.800
  426BOLB   C4D10224  10.790  24.230  23.930
  427BOLB   NC110225  15.680  20.040  21.270
  427BOLB   PO110226  15.800  19.560  21.230
  427BOLB   GL110227  16.110  19.670  21.580
  427BOLB   GL210228  16.130  19.980  21.400
  427BOLB   C1A10229  16.220  19.850  21.870
  427BOLB   C2A10230  16.510  20.100  21.900
  427BOLB   C3A10231  16.770  20.230  22.120
  427BOLB   C4A10232  17.040  20.340  22.240
  427BOLB   C1B10233  16.520  20.290  21.400
  427BOLB   C2B10234  16.900  20.330  21.630
  427BOLB   C3B10235  17.110  20.700  21.830
  427BOLB   C4B10236  17.470  20.850  22.080
  427BOLB   NC210237  19.890  21.330  22.900
  427BOLB   PO210238  19.430  21.440  23.090
  427BOLB   GL310239  19.140  21.110  22.900
  427BOLB   GL410240  19.060  20.760  22.900
  427BOLB   C1C10241  18.690  21.050  22.700
  427BOLB   C2C10242  18.430  20.790  22.420
  427BOLB   C3C10243  18.060  20.510  22.370
  427BOLB   C4C10244  17.610  20.340  22.270
  427BOLB   C1D10245  18.940  20.570  22.490
  427BOLB   C2D10246  18.640  20.460  22.090
  427BOLB   C3D10247  18.300  20.370  21.930
  427BOLB   C4D10248  17.900  20.530  21.890
  428BOLB   NC110249   9.200  23.710  21.710
  428BOLB   PO110250   8.820  23.840  21.900
  428BOLB   GL110251   8.730  24.080  22.250
  428BOLB   GL210252   9.010  24.260  22.270
  428BOLB   C1A10253   8.630  24.160  22.730
  428BOLB   C2A10254   8.530  24.220  23.200
  428BOLB   C3A10255   8.460  24.400  23.620
  428BOLB   C4A10256   8.270  24.360  23.940
  428BOLB   C1B10257   8.970  24.600  22.500
  428BOLB   C2B10258   8.760  24.740  22.810
  428BOLB   C3B10259   8.680  24.920  23.240
  428BOLB   C4B10260   8.590  25.170  23.610
  428BOLB   NC210261   8.540  24.820  26.160
  428BOLB   PO210262   8.300  25.090  25.980
  428BOLB   GL310263   8.070  24.690  25.820
  428BOLB   GL410264   8.300  24.500  25.830
  428BOLB   C1C10265   8.060  24.470  25.360
  428BOLB   C2C10266   8.170  24.440  25.020
  428BOLB   C3C10267   7.970  24.230  24.610
  428BOLB   C4C10268   8.080  24.200  24.170
  428BOLB   C1D10269   8.540  24.360  25.460
  428BOLB   C2D10270   8.670  24.510  25.120
  428BOLB   C3D10271   8.700  24.310  24.810
  428BOLB   C4D10272   8.770  23.930  24.540
  429BOLB   NC110273   7.350  11.380  14.620
  429BOLB   PO110274   7.500  11.080  14.890
  429BOLB   GL110275   7.180  10.870  14.690
  429BOLB   GL210276   6.890  11.140  14.670
  429BOLB   C1A10277   6.980  10.580  14.610
  429BOLB   C2A10278   7.030  10.160  14.570
  429BOLB   C3A10279   6.950   9.910  14.900
  429BOLB   C4A10280   6.970   9.690  15.240
  429BOLB   C1B10281   6.770  10.890  14.990
  429BOLB   C2B10282   6.670  10.390  14.960
  429BOLB   C3B10283   6.520  10.210  14.670
  429BOLB   C4B10284   6.610  10.370  14.290
  429BOLB   NC210285   5.710   7.710  16.180
  429BOLB   PO210286   5.680   8.100  16.280
  429BOLB   GL310287   5.770   8.440  16.160
  429BOLB   GL410288   5.580   8.600  16.290
  429BOLB   C1C10289   5.830   8.870  15.960
  429BOLB   C2C10290   6.240   8.870  15.970
  429BOLB   C3C10291   6.580   9.030  15.750
  429BOLB   C4C10292   6.790   9.370  15.420
  429BOLB   C1D10293   5.510   8.800  16.540
  429BOLB   C2D10294   5.770   8.880  16.950
  429BOLB   C3D10295   5.840   9.110  17.350
  429BOLB   C4D10296   5.620   9.080  17.730
  430BOLB   NC110297  11.990  13.100  19.400
  430BOLB   PO110298  11.530  12.980  19.470
  430BOLB   GL110299  11.360  12.770  19.830
  430BOLB   GL210300  11.520  12.630  20.130
  430BOLB   C1A10301  11.170  12.310  19.980
  430BOLB   C2A10302  10.920  11.960  20.130
  430BOLB   C3A10303  10.570  11.790  20.480
  430BOLB   C4A10304  10.200  11.710  20.620
  430BOLB   C1B10305  11.560  12.190  20.250
  430BOLB   C2B10306  11.360  11.750  20.380
  430BOLB   C3B10307  11.120  11.590  20.750
  430BOLB   C4B10308  10.820  11.310  20.810
  430BOLB   NC210309   8.070  10.510  22.080
  430BOLB   PO210310   8.420  10.600  21.790
  430BOLB   GL310311   8.880  10.850  21.850
  430BOLB   GL410312   8.940  10.730  21.600
  430BOLB   C1C10313   8.950  11.210  21.480
  430BOLB   C2C10314   9.060  11.510  21.180
  430BOLB   C3C10315   9.420  11.760  21.010
  430BOLB   C4C10316   9.850  11.860  20.850
  430BOLB   C1D10317   9.310  10.890  21.560
  430BOLB   C2D10318   9.450  11.240  21.290
  430BOLB   C3D10319   9.690  11.380  20.880
  430BOLB   C4D10320   9.820  11.390  20.400
  431BOLB   NC110321  15.470  24.270  20.450
  431BOLB   PO110322  15.680  23.890  20.380
  431BOLB   GL110323  15.610  23.930  20.750
  431BOLB   GL210324  15.370  24.080  20.920
  431BOLB   C1A10325  15.850  24.170  21.090
  431BOLB   C2A10326  16.000  24.440  21.320
  431BOLB   C3A10327  16.220  24.800  21.560
  431BOLB   C4A10328  16.620  25.030  21.550
  431BOLB   C1B10329  15.430  24.370  21.330
  431BOLB   C2B10330  15.600  24.730  21.550
  431BOLB   C3B10331  15.790  25.020  21.860
  431BOLB   C4B10332  16.240  25.220  21.960
  431BOLB   NC210333  17.330  26.090  23.380
  431BOLB   PO210334  17.710  26.020  23.130
  431BOLB   GL310335  17.580  25.950  22.650
  431BOLB   GL410336  17.450  25.510  22.600
  431BOLB   C1C10337  17.410  25.830  22.260
  431BOLB   C2C10338  17.380  25.410  22.110
  431BOLB   C3C10339  17.300  25.170  21.750
  431BOLB   C4C10340  17.080  25.090  21.400
  431BOLB   C1D10341  16.950  25.530  22.470
  431BOLB   C2D10342  16.580  25.540  22.160
  431BOLB   C3D10343  16.430  25.600  21.670
  431BOLB   C4D10344  16.180  25.760  21.310
  432BOLB   NC110345   4.920  15.850  18.960
  432BOLB   PO110346   4.580  15.650  18.910
  432BOLB   GL110347   4.450  15.400  19.110
  432BOLB   GL210348   4.130  15.560  19.280
  432BOLB   C1A10349   4.560  15.040  19.320
  432BOLB   C2A10350   4.320  14.610  19.410
  432BOLB   C3A10351   4.010  14.520  19.730
  432BOLB   C4A10352   3.940  14.080  20.010
  432BOLB   C1B10353   3.870  15.260  19.580
  432BOLB   C2B10354   3.660  14.900  19.640
  432BOLB   C3B10355   3.360  14.720  19.780
  432BOLB   C4B10356   2.980  14.570  19.910
  432BOLB   NC210357   3.700  12.210  21.500
  432BOLB   PO210358   3.240  12.190  21.230
  432BOLB   GL310359   3.160  12.510  20.990
  432BOLB   GL410360   3.200  12.650  20.650
  432BOLB   C1C10361   3.350  12.930  20.980
  432BOLB   C2C10362   3.560  13.330  20.890
  432BOLB   C3C10363   3.600  13.510  20.590
  432BOLB   C4C10364   3.650  13.680  20.180
  432BOLB   C1D10365   3.640  12.560  20.620
  432BOLB   C2D10366   3.870  12.620  20.220
  432BOLB   C3D10367   4.000  12.700  19.840
  432BOLB   C4D10368   3.950  12.850  19.340
  433BOLB   NC110369  15.070  20.010  21.470
  433BOLB   PO110370  14.760  19.910  21.760
  433BOLB   GL110371  15.030  19.900  22.080
  433BOLB   GL210372  14.950  20.160  22.370
  433BOLB   C1A10373  15.390  19.740  22.380
  433BOLB   C2A10374  15.630  19.650  22.630
  433BOLB   C3A10375  15.930  19.760  23.020
  433BOLB   C4A10376  16.090  19.660  23.490
  433BOLB   C1B10377  15.090  20.150  22.730
  433BOLB   C2B10378  15.390  19.960  23.050
  433BOLB   C3B10379  15.680  19.990  23.440
  433BOLB   C4B10380  15.770  19.860  23.840
  433BOLB   NC210381  16.370  18.930  25.730
  433BOLB   PO210382  16.800  18.880  25.490
  433BOLB   GL310383  16.730  18.890  25.080
  433BOLB   GL410384  16.920  18.980  24.810
  433BOLB   C1C10385  16.400  19.030  24.750
  433BOLB   C2C10386  16.260  19.150  24.420
  433BOLB   C3C10387  16.030  19.240  24.030
  433BOLB   C4C10388  16.130  19.540  23.780
  433BOLB   C1D10389  16.880  19.020  24.320
  433BOLB   C2D10390  16.940  18.930  23.910
  433BOLB   C3D10391  16.790  18.960  23.420
  433BOLB   C4D10392  16.570  19.070  23.110
  434BOLB   NC110393   1.880  17.280  16.100
  434BOLB   PO110394   1.610  17.640  16.060
  434BOLB   GL110395   1.300  17.460  15.960
  434BOLB   GL210396   1.200  17.440  16.290
  434BOLB   C1A10397   0.840  17.400  15.980
  434BOLB   C2A10398   0.450  17.270  16.180
  434BOLB   C3A10399   0.070  17.350  16.020
  434BOLB   C4A10400  36.110  17.360  15.820
  434BOLB   C1B10401   0.800  17.560  16.430
  434BOLB   C2B10402   0.520  17.540  16.800
  434BOLB   C3B10403   0.370  17.690  17.190
  434BOLB   C4B10404   0.480  17.670  17.670
  434BOLB   NC210405  33.790  16.340  15.630
  434BOLB   PO210406  34.050  16.320  15.260
  434BOLB   GL310407  34.380  16.560  15.240
  434BOLB   GL410408  34.590  16.280  15.260
  434BOLB   C1C10409  34.730  16.810  15.210
  434BOLB   C2C10410  35.190  16.820  15.200
  434BOLB   C3C10411  35.540  16.820  15.430
  434BOLB   C4C10412  35.870  17.070  15.600
  434BOLB   C1D10413  34.930  16.130  15.240
  434BOLB   C2D10414  35.240  16.310  15.060
  434BOLB   C3D10415  35.670  16.270  14.830
  434BOLB   C4D10416  35.990  16.240  14.890
  435BOLB   NC110417  18.070  18.490  18.760
  435BOLB   PO110418  18.020  18.190  19.130
  435BOLB   GL110419  18.420  18.020  19.390
  435BOLB   GL210420  18.370  17.650  19.460
  435BOLB   C1A10421  18.780  18.080  19.460
  435BOLB   C2A10422  19.120  18.010  19.820
  435BOLB   C3A10423  19.430  17.920  20.020
  435BOLB   C4A10424  19.870  17.740  20.270
  435BOLB   C1B10425  18.740  17.670  19.820
  435BOLB   C2B10426  19.060  17.500  20.030
  435BOLB   C3B10427  19.310  17.660  20.490
  435BOLB   C4B10428  19.580  17.620  20.730
  435BOLB   NC210429  22.430  17.420  21.140
  435BOLB   PO210430  22.130  17.600  20.840
  435BOLB   GL310431  21.960  17.790  20.520
  435BOLB   GL410432  21.640  17.650  20.610
  435BOLB   C1C10433  21.550  17.770  20.140
  435BOLB   C2C10434  21.140  17.750  20.280
  435BOLB   C3C10435  20.710  17.660  20.110
  435BOLB   C4C10436  20.350  17.720  20.100
  435BOLB   C1D10437  21.350  17.490  20.790
  435BOLB   C2D10438  20.840  17.600  20.700
  435BOLB   C3D10439  20.500  17.780  20.620
  435BOLB   C4D10440  20.300  18.130  20.510
  436BOLB   NC110441   5.230  26.990  16.290
  436BOLB   PO110442   4.970  26.640  16.440
  436BOLB   GL110443   4.700  26.990  16.400
  436BOLB   GL210444   4.810  27.190  16.530
  436BOLB   C1A10445   4.640  27.180  16.070
  436BOLB   C2A10446   4.720  27.660  15.880
  436BOLB   C3A10447   4.790  28.050  16.080
  436BOLB   C4A10448   4.620  28.380  15.850
  436BOLB   C1B10449   4.460  27.520  16.530
  436BOLB   C2B10450   4.450  27.950  16.370
  436BOLB   C3B10451   4.500  28.360  16.440
  436BOLB   C4B10452   4.320  28.750  16.360
  436BOLB   NC210453   2.850  30.680  15.590
  436BOLB   PO210454   3.290  30.460  15.650
  436BOLB   GL310455   3.400  29.990  15.660
  436BOLB   GL410456   3.070  29.900  15.690
  436BOLB   C1C10457   3.720  29.790  15.760
  436BOLB   C2C10458   4.040  29.480  15.670
  436BOLB   C3C10459   4.140  29.050  15.470
  436BOLB   C4C10460   4.310  28.670  15.600
  436BOLB   C1D10461   2.910  29.540  15.790
  436BOLB   C2D10462   3.120  29.170  15.920
  436BOLB   C3D10463   3.300  28.680  15.930
  436BOLB   C4D10464   3.580  28.370  16.080
  437BOLB   NC110465   2.130  21.800  14.460
  437BOLB   PO110466   1.800  21.960  14.430
  437BOLB   GL110467   1.300  22.020  14.260
  437BOLB   GL210468   1.220  22.040  13.880
  437BOLB   C1A10469   0.940  22.220  14.260
  437BOLB   C2A10470   0.460  22.300  14.240
  437BOLB   C3A10471   0.030  22.490  14.270
  437BOLB   C4A10472  36.050  22.700  14.160
  437BOLB   C1B10473   0.790  22.060  13.760
  437BOLB   C2B10474   0.480  22.290  13.700
  437BOLB   C3B10475   0.120  22.570  13.780
  437BOLB   C4B10476  36.170  22.800  13.660
  437BOLB   NC210477  33.800  23.790  13.620
  437BOLB   PO210478  33.860  23.360  13.550
  437BOLB   GL310479  34.320  23.230  13.550
  437BOLB   GL410480  34.630  23.330  13.600
  437BOLB   C1C10481  34.580  22.870  13.720
  437BOLB   C2C10482  35.050  22.830  13.870
  437BOLB   C3C10483  35.370  22.820  14.080
  437BOLB   C4C10484  35.700  22.770  14.300
  437BOLB   C1D10485  35.030  23.230  13.540
  437BOLB   C2D10486  35.450  23.120  13.650
  437BOLB   C3D10487  35.650  22.820  13.700
  437BOLB   C4D10488  35.610  22.490  13.740
  438BOLB   NC110489  16.120  19.030  20.440
  438BOLB   PO110490  16.490  18.970  20.620
  438BOLB   GL110491  16.840  18.690  20.760
  438BOLB   GL210492  16.660  18.670  20.970
  438BOLB   C1A10493  17.170  18.850  21.020
  438BOLB   C2A10494  17.420  18.830  21.370
  438BOLB   C3A10495  17.530  19.010  21.680
  438BOLB   C4A10496  17.940  18.920  21.860
  438BOLB   C1B10497  16.680  18.750  21.400
  438BOLB   C2B10498  16.930  18.760  21.780
  438BOLB   C3B10499  17.170  18.950  22.070
  438BOLB   C4B10500  17.610  19.080  22.190
  438BOLB   NC210501  19.950  18.790  23.850
  438BOLB   PO210502  19.970  18.510  23.510
  438BOLB   GL310503  19.700  18.480  23.140
  438BOLB   GL410504  19.790  18.260  22.920
  438BOLB   C1C10505  19.280  18.620  23.030
  438BOLB   C2C10506  18.970  18.400  22.630
  438BOLB   C3C10507  18.670  18.580  22.350
  438BOLB   C4C10508  18.430  18.640  21.900
  438BOLB   C1D10509  19.550  18.530  22.620
  438BOLB   C2D10510  19.320  18.670  22.270
  438BOLB   C3D10511  19.150  18.520  21.920
  438BOLB   C4D10512  18.920  18.380  21.690
  439BOLB   NC110513   2.010  19.600  16.890
  439BOLB   PO110514   1.640  19.720  16.630
  439BOLB   GL110515   1.460  19.420  16.990
  439BOLB   GL210516   1.200  19.640  17.110
  439BOLB   C1A10517   1.110  19.140  16.960
  439BOLB   C2A10518   0.810  18.930  16.920
  439BOLB   C3A10519   0.380  18.770  16.980
  439BOLB   C4A10520   0.160  18.540  17.320
  439BOLB   C1B10521   0.970  19.650  17.570
  439BOLB   C2B10522   0.650  19.980  17.790
  439BOLB   C3B10523   0.450  20.250  18.080
  439BOLB   C4B10524   0.410  20.600  18.420
  439BOLB   NC210525  34.340  17.870  17.320
  439BOLB   PO210526  34.330  17.680  17.680
  439BOLB   GL310527  34.760  17.900  17.580
  439BOLB   GL410528  34.850  17.860  17.300
  439BOLB   C1C10529  35.140  18.110  17.710
  439BOLB   C2C10530  35.420  18.510  17.730
  439BOLB   C3C10531  35.810  18.730  17.660
  439BOLB   C4C10532  36.140  18.540  17.590
  439BOLB   C1D10533  35.210  18.240  17.230
  439BOLB   C2D10534  35.530  18.200  17.190
  439BOLB   C3D10535  35.990  18.180  17.190
  439BOLB   C4D10536   0.040  18.060  17.280
  440BOLB   NC110537   4.590  16.560  10.140
  440BOLB   PO110538   4.420  16.040  10.110
  440BOLB   GL110539   4.240  15.910   9.730
  440BOLB   GL210540   4.020  15.640   9.750
  440BOLB   C1A10541   4.030  15.840   9.330
  440BOLB   C2A10542   3.840  15.650   8.940
  440BOLB   C3A10543   3.970  15.760   8.400
  440BOLB   C4A10544   4.050  15.500   8.010
  440BOLB   C1B10545   3.560  15.550   9.600
  440BOLB   C2B10546   3.300  15.450   9.260
  440BOLB   C3B10547   3.220  15.250   9.080
  440BOLB   C4B10548   3.340  14.910   8.710
  440BOLB   NC210549   2.430  15.160   6.470
  440BOLB   PO210550   2.580  14.680   6.400
  440BOLB   GL310551   2.790  14.910   6.690
  440BOLB   GL410552   2.730  15.010   7.010
  440BOLB   C1C10553   3.220  15.050   6.700
  440BOLB   C2C10554   3.250  15.320   7.090
  440BOLB   C3C10555   3.590  15.260   7.280
  440BOLB   C4C10556   3.920  15.330   7.550
  440BOLB   C1D10557   3.000  14.940   7.350
  440BOLB   C2D10558   3.380  14.890   7.590
  440BOLB   C3D10559   3.560  15.070   7.850
  440BOLB   C4D10560   3.530  15.150   8.270
  441BOLB   NC110561   6.360  21.280  21.700
  441BOLB   PO110562   5.860  21.240  21.750
  441BOLB   GL110563   5.670  21.020  22.140
  441BOLB   GL210564   5.610  20.720  22.210
  441BOLB   C1A10565   5.230  21.010  22.210
  441BOLB   C2A10566   4.880  20.840  22.470
  441BOLB   C3A10567   4.530  20.760  22.720
  441BOLB   C4A10568   4.300  20.580  23.010
  441BOLB   C1B10569   5.360  20.800  22.640
  441BOLB   C2B10570   5.070  20.810  23.010
  441BOLB   C3B10571   4.760  20.910  23.240
  441BOLB   C4B10572   4.330  21.000  23.370
  441BOLB   NC210573   2.860  20.080  25.440
  441BOLB   PO210574   3.030  20.490  25.220
  441BOLB   GL310575   3.150  20.400  24.740
  441BOLB   GL410576   3.070  20.790  24.610
  441BOLB   C1C10577   3.420  20.200  24.490
  441BOLB   C2C10578   3.770  20.170  24.150
  441BOLB   C3C10579   3.780  20.270  23.700
  441BOLB   C4C10580   3.970  20.360  23.330
  441BOLB   C1D10581   3.360  20.750  24.240
  441BOLB   C2D10582   3.710  20.850  24.060
  441BOLB   C3D10583   3.980  20.920  23.660
  441BOLB   C4D10584   3.820  20.840  23.230
  442BOLB   NC110585   5.990   7.670  17.140
  442BOLB   PO110586   6.170   7.970  17.480
  442BOLB   GL110587   6.540   8.280  17.590
  442BOLB   GL210588   6.680   8.470  17.900
  442BOLB   C1A10589   6.860   8.540  17.400
  442BOLB   C2A10590   6.870   8.970  17.530
  442BOLB   C3A10591   6.960   9.350  17.310
  442BOLB   C4A10592   7.140   9.790  17.240
  442BOLB   C1B10593   6.720   8.930  18.030
  442BOLB   C2B10594   6.890   9.440  17.890
  442BOLB   C3B10595   7.230   9.750  17.750
  442BOLB   C4B10596   7.410  10.140  17.790
  442BOLB   NC210597   8.290  11.470  16.730
  442BOLB   PO210598   8.310  11.880  17.050
  442BOLB   GL310599   8.210  11.460  17.240
  442BOLB   GL410600   8.250  11.470  17.580
  442BOLB   C1C10601   7.880  11.130  17.550
  442BOLB   C2C10602   7.520  11.000  17.500
  442BOLB   C3C10603   7.260  10.620  17.600
  442BOLB   C4C10604   7.100  10.180  17.400
  442BOLB   C1D10605   8.370  11.140  17.870
  442BOLB   C2D10606   8.140  10.710  18.040
  442BOLB   C3D10607   7.710  10.410  18.090
  442BOLB   C4D10608   7.210  10.640  18.080
  443BOLB   NC110609   2.020  20.800  18.030
  443BOLB   PO110610   1.910  20.280  18.080
  443BOLB   GL110611   1.460  20.190  18.070
  443BOLB   GL210612   1.330  20.460  18.260
  443BOLB   C1A10613   1.120  19.860  18.120
  443BOLB   C2A10614   0.740  19.760  18.190
  443BOLB   C3A10615   0.290  19.790  18.350
  443BOLB   C4A10616   0.020  19.800  18.490
  443BOLB   C1B10617   0.850  20.310  18.480
  443BOLB   C2B10618   0.540  20.150  18.650
  443BOLB   C3B10619   0.250  19.880  18.950
  443BOLB   C4B10620  36.320  19.930  19.300
  443BOLB   NC210621  34.800  18.080  18.900
  443BOLB   PO210622  34.790  18.230  18.530
  443BOLB   GL310623  35.100  18.520  18.740
  443BOLB   GL410624  35.010  18.830  18.570
  443BOLB   C1C10625  35.480  18.740  18.720
  443BOLB   C2C10626  35.940  18.810  18.620
  443BOLB   C3C10627  36.210  19.180  18.660
  443BOLB   C4C10628  36.210  19.620  18.680
  443BOLB   C1D10629  35.280  18.590  18.230
  443BOLB   C2D10630  35.740  18.680  18.210
  443BOLB   C3D10631  36.120  18.420  18.060
  443BOLB   C4D10632  36.260  18.020  17.840
  444BOLB   NC110633   7.470  11.600  15.600
  444BOLB   PO110634   7.280  11.660  16.060
  444BOLB   GL110635   6.990  11.400  16.070
  444BOLB   GL210636   7.030  11.300  15.710
  444BOLB   C1A10637   6.790  11.140  16.330
  444BOLB   C2A10638   6.640  10.660  16.500
  444BOLB   C3A10639   6.360  10.420  16.520
  444BOLB   C4A10640   6.140  10.180  16.330
  444BOLB   C1B10641   6.850  10.880  15.600
  444BOLB   C2B10642   6.750  10.470  15.480
  444BOLB   C3B10643   6.590  10.070  15.360
  444BOLB   C4B10644   6.300   9.900  15.020
  444BOLB   NC210645   4.970   8.300  18.040
  444BOLB   PO210646   4.790   8.590  17.780
  444BOLB   GL310647   5.000   8.860  17.550
  444BOLB   GL410648   4.850   8.910  17.190
  444BOLB   C1C10649   5.350   9.010  17.290
  444BOLB   C2C10650   5.430   9.290  17.040
  444BOLB   C3C10651   5.600   9.490  16.630
  444BOLB   C4C10652   5.830   9.950  16.570
  444BOLB   C1D10653   4.890   9.390  16.870
  444BOLB   C2D10654   5.130   9.650  16.680
  444BOLB   C3D10655   5.300  10.040  16.460
  444BOLB   C4D10656   5.670  10.270  16.250
  445BOLB   NC110657   3.330  16.880  11.170
  445BOLB   PO110658   3.380  16.470  11.060
  445BOLB   GL110659   3.080  16.410  10.840
  445BOLB   GL210660   3.170  16.350  10.530
  445BOLB   C1A10661   2.700  16.110  10.830
  445BOLB   C2A10662   2.280  16.090  11.120
  445BOLB   C3A10663   1.960  16.160  10.890
  445BOLB   C4A10664   1.560  16.110  10.680
  445BOLB   C1B10665   2.990  16.150  10.170
  445BOLB   C2B10666   2.700  15.920   9.960
  445BOLB   C3B10667   2.520  15.670   9.690
  445BOLB   C4B10668   2.600  15.620   9.200
  445BOLB   NC210669  35.240  16.060  10.420
  445BOLB   PO210670  35.700  15.950  10.190
  445BOLB   GL310671  36.110  16.070  10.070
  445BOLB   GL410672  36.180  16.350   9.760
  445BOLB   C1C10673   0.200  16.130  10.100
  445BOLB   C2C10674   0.620  15.970  10.140
  445BOLB   C3C10675   1.030  15.760  10.260
  445BOLB   C4C10676   1.460  15.780  10.430
  445BOLB   C1D10677   0.030  16.600   9.950
  445BOLB   C2D10678   0.390  16.600  10.240
  445BOLB   C3D10679   0.810  16.330  10.390
  445BOLB   C4D10680   1.180  16.300  10.390
  446BOLB   NC110681  19.780  26.700  19.050
  446BOLB   PO110682  19.750  26.770  19.410
  446BOLB   GL110683  19.480  26.380  19.290
  446BOLB   GL210684  19.760  26.260  19.160
  446BOLB   C1A10685  19.380  26.040  19.570
  446BOLB   C2A10686  19.300  25.780  19.800
  446BOLB   C3A10687  19.180  25.620  20.250
  446BOLB   C4A10688  19.240  25.190  20.370
  446BOLB   C1B10689  19.550  25.860  19.140
  446BOLB   C2B10690  19.540  25.440  18.910
  446BOLB   C3B10691  19.290  25.120  18.680
  446BOLB   C4B10692  19.060  24.790  18.430
  446BOLB   NC210693  21.020  25.610  20.040
  446BOLB   PO210694  20.980  25.140  20.040
  446BOLB   GL310695  20.770  24.810  19.810
  446BOLB   GL410696  20.880  24.710  19.550
  446BOLB   C1C10697  20.370  24.730  19.620
  446BOLB   C2C10698  20.030  24.520  19.760
  446BOLB   C3C10699  19.740  24.680  20.050
  446BOLB   C4C10700  19.480  24.820  20.400
  446BOLB   C1D10701  20.620  25.070  19.390
  446BOLB   C2D10702  20.260  25.150  19.070
  446BOLB   C3D10703  19.880  25.040  18.950
  446BOLB   C4D10704  19.850  24.720  18.620
  447BOLB   NC110705   5.530  17.540   8.460
  447BOLB   PO110706   5.970  17.780   8.370
  447BOLB   GL110707   5.680  17.660   8.020
  447BOLB   GL210708   5.810  17.590   7.800
  447BOLB   C1A10709   5.290  17.490   7.790
  447BOLB   C2A10710   4.950  17.550   7.460
  447BOLB   C3A10711   4.550  17.580   7.200
  447BOLB   C4A10712   4.510  17.710   6.710
  447BOLB   C1B10713   5.630  17.880   7.500
  447BOLB   C2B10714   5.550  17.990   7.030
  447BOLB   C3B10715   5.700  18.220   6.720
  447BOLB   C4B10716   5.770  18.290   6.250
  447BOLB   NC210717   4.050  17.040   4.400
  447BOLB   PO210718   4.200  16.920   4.790
  447BOLB   GL310719   4.210  17.060   5.210
  447BOLB   GL410720   4.430  17.070   5.450
  447BOLB   C1C10721   4.130  17.430   5.480
  447BOLB   C2C10722   4.170  17.820   5.590
  447BOLB   C3C10723   3.990  18.010   5.950
  447BOLB   C4C10724   4.280  17.950   6.360
  447BOLB   C1D10725   4.780  16.950   5.380
  447BOLB   C2D10726   4.980  17.110   5.750
  447BOLB   C3D10727   4.930  17.490   5.980
  447BOLB   C4D10728   4.880  17.630   6.320
  448BOLB   NC110729  18.760  17.810  17.800
  448BOLB   PO110730  18.880  18.200  17.730
  448BOLB   GL110731  19.080  18.210  18.080
  448BOLB   GL210732  19.250  17.940  17.990
  448BOLB   C1A10733  19.590  18.160  18.240
  448BOLB   C2A10734  19.940  18.290  18.460
  448BOLB   C3A10735  20.240  18.690  18.670
  448BOLB   C4A10736  20.320  19.020  18.970
  448BOLB   C1B10737  19.640  17.710  18.110
  448BOLB   C2B10738  19.990  17.700  18.440
  448BOLB   C3B10739  20.120  17.930  18.760
  448BOLB   C4B10740  20.500  18.230  18.700
  448BOLB   NC210741  22.430  18.940  20.000
  448BOLB   PO210742  22.440  19.310  19.910
  448BOLB   GL310743  22.120  19.320  19.600
  448BOLB   GL410744  22.380  19.470  19.360
  448BOLB   C1C10745  21.780  19.650  19.430
  448BOLB   C2C10746  21.320  19.780  19.310
  448BOLB   C3C10747  20.960  19.520  19.190
  448BOLB   C4C10748  20.600  19.330  19.120
  448BOLB   C1D10749  22.050  19.360  19.110
  448BOLB   C2D10750  21.650  19.390  18.990
  448BOLB   C3D10751  21.380  19.330  18.660
  448BOLB   C4D10752  21.100  19.160  18.360
  449BOLB   NC110753  11.880  27.530  17.560
  449BOLB   PO110754  12.130  27.090  17.860
  449BOLB   GL110755  12.220  27.500  18.000
  449BOLB   GL210756  11.950  27.750  18.000
  449BOLB   C1A10757  12.540  27.740  18.150
  449BOLB   C2A10758  12.770  28.070  18.190
  449BOLB   C3A10759  12.850  28.510  18.400
  449BOLB   C4A10760  12.730  28.930  18.400
  449BOLB   C1B10761  12.300  28.180  18.200
  449BOLB   C2B10762  12.490  28.510  18.020
  449BOLB   C3B10763  12.670  28.930  17.880
  449BOLB   C4B10764  12.600  29.340  17.950
  449BOLB   NC210765  12.410  30.990  19.420
  449BOLB   PO210766  12.840  30.970  19.370
  449BOLB   GL310767  12.600  30.610  19.210
  449BOLB   GL410768  12.470  30.450  19.460
  449BOLB   C1C10769  12.600  30.350  19.000
  449BOLB   C2C10770  12.430  30.120  18.750
  449BOLB   C3C10771  12.410  29.690  18.600
  449BOLB   C4C10772  12.410  29.280  18.600
  449BOLB   C1D10773  12.600  30.010  19.350
  449BOLB   C2D10774  12.900  29.780  19.530
  449BOLB   C3D10775  13.000  29.430  19.350
  449BOLB   C4D10776  12.880  29.000  19.390
  450BOLB   NC110777   4.720  17.580   8.960
  450BOLB   PO110778   4.790  17.140   9.020
  450BOLB   GL110779   4.550  16.870   8.700
  450BOLB   GL210780   4.720  16.810   8.480
  450BOLB   C1A10781   4.210  16.640   8.430
  450BOLB   C2A10782   3.860  16.400   8.370
  450BOLB   C3A10783   3.410  16.560   8.170
  450BOLB   C4A10784   3.060  16.760   8.490
  450BOLB   C1B10785   4.510  16.780   8.090
  450BOLB   C2B10786   4.240  16.780   7.710
  450BOLB   C3B10787   3.890  16.950   7.480
  450BOLB   C4B10788   3.740  17.230   7.220
  450BOLB   NC210789   0.910  16.310   7.730
  450BOLB   PO210790   0.880  15.910   7.900
  450BOLB   GL310791   1.300  16.000   8.080
  450BOLB   GL410792   1.490  15.910   7.830
  450BOLB   C1C10793   1.590  15.940   8.390
  450BOLB   C2C10794   2.010  16.160   8.570
  450BOLB   C3C10795   2.230  16.570   8.580
  450BOLB   C4C10796   2.570  16.780   8.430
  450BOLB   C1D10797   1.830  16.250   8.050
  450BOLB   C2D10798   2.250  16.370   8.170
  450BOLB   C3D10799   2.570  16.550   7.920
  450BOLB   C4D10800   2.830  16.920   7.950
  451BOLB   NC110801  11.860  14.900  21.270
  451BOLB   PO110802  11.850  14.680  20.860
  451BOLB   GL110803  11.790  14.400  21.220
  451BOLB   GL210804  11.840  14.110  21.240
  451BOLB   C1A10805  11.770  14.290  21.720
  451BOLB   C2A10806  11.510  13.970  21.900
  451BOLB   C3A10807  11.520  13.610  22.050
  451BOLB   C4A10808  11.820  13.310  22.160
  451BOLB   C1B10809  11.920  13.850  21.630
  451BOLB   C2B10810  11.990  13.750  21.950
  451BOLB   C3B10811  12.160  13.650  22.350
  451BOLB   C4B10812  11.960  13.460  22.670
  451BOLB   NC210813  11.660  11.670  23.590
  451BOLB   PO210814  12.130  11.870  23.630
  451BOLB   GL310815  11.950  11.840  23.190
  451BOLB   GL410816  12.160  11.550  23.090
  451BOLB   C1C10817  11.890  12.180  22.960
  451BOLB   C2C10818  11.640  12.410  22.760
  451BOLB   C3C10819  11.590  12.730  22.550
  451BOLB   C4C10820  11.680  13.030  22.450
  451BOLB   C1D10821  12.110  11.690  22.720
  451BOLB   C2D10822  12.130  11.850  22.280
  451BOLB   C3D10823  12.280  12.050  21.980
  451BOLB   C4D10824  12.550  11.880  21.680
  452BOLB   NC110825   7.320  15.110  10.370
  452BOLB   PO110826   7.460  14.740  10.510
  452BOLB   GL110827   7.690  15.070  10.750
  452BOLB   GL210828   8.030  15.140  10.710
  452BOLB   C1A10829   7.790  15.250  11.220
  452BOLB   C2A10830   7.610  15.640  11.520
  452BOLB   C3A10831   7.730  15.610  12.060
  452BOLB   C4A10832   7.800  15.610  12.510
  452BOLB   C1B10833   8.090  15.530  10.780
  452BOLB   C2B10834   8.510  15.820  10.870
  452BOLB   C3B10835   8.790  16.030  11.280
  452BOLB   C4B10836   8.910  16.280  11.550
  452BOLB   NC210837   5.290  15.370  13.110
  452BOLB   PO210838   5.610  15.550  13.430
  452BOLB   GL310839   5.980  15.410  13.470
  452BOLB   GL410840   5.890  15.570  13.830
  452BOLB   C1C10841   6.330  15.140  13.210
  452BOLB   C2C10842   6.890  15.120  13.070
  452BOLB   C3C10843   7.420  15.140  12.990
  452BOLB   C4C10844   7.760  15.430  12.990
  452BOLB   C1D10845   6.210  15.810  13.800
  452BOLB   C2D10846   6.590  16.040  13.990
  452BOLB   C3D10847   7.030  15.990  14.220
  452BOLB   C4D10848   7.120  16.040  14.720
  453BOLB   NC110849  17.620  24.530  17.670
  453BOLB   PO110850  17.290  24.750  17.760
  453BOLB   GL110851  17.350  25.180  17.970
  453BOLB   GL210852  17.210  25.200  18.270
  453BOLB   C1A10853  17.470  25.570  18.130
  453BOLB   C2A10854  17.590  25.810  18.480
  453BOLB   C3A10855  17.570  25.840  19.010
  453BOLB   C4A10856  17.840  26.030  19.280
  453BOLB   C1B10857  17.400  25.290  18.590
  453BOLB   C2B10858  17.630  25.390  18.870
  453BOLB   C3B10859  17.610  25.530  19.350
  453BOLB   C4B10860  17.380  25.850  19.580
  453BOLB   NC210861  19.800  26.140  20.830
  453BOLB   PO210862  19.600  25.760  20.980
  453BOLB   GL310863  19.230  25.480  20.810
  453BOLB   GL410864  18.980  25.400  21.020
  453BOLB   C1C10865  18.800  25.400  20.570
  453BOLB   C2C10866  18.590  25.690  20.270
  453BOLB   C3C10867  18.460  25.980  19.890
  453BOLB   C4C10868  18.190  26.130  19.620
  453BOLB   C1D10869  18.780  25.720  20.900
  453BOLB   C2D10870  18.540  26.010  20.990
  453BOLB   C3D10871  18.290  26.370  20.870
  453BOLB   C4D10872  18.340  26.630  20.570
  454BOLB   NC110873  15.060  18.890  21.430
  454BOLB   PO110874  14.880  18.590  21.760
  454BOLB   GL110875  14.830  18.500  22.120
  454BOLB   GL210876  14.980  18.570  22.350
  454BOLB   C1A10877  14.710  18.070  22.380
  454BOLB   C2A10878  14.680  17.900  22.810
  454BOLB   C3A10879  14.430  17.760  23.110
  454BOLB   C4A10880  14.420  17.460  23.410
  454BOLB   C1B10881  15.270  18.690  22.650
  454BOLB   C2B10882  15.270  18.630  23.160
  454BOLB   C3B10883  15.420  18.500  23.590
  454BOLB   C4B10884  15.450  18.580  24.110
  454BOLB   NC210885  14.760  18.010  26.140
  454BOLB   PO210886  14.500  17.920  25.890
  454BOLB   GL310887  14.400  17.860  25.540
  454BOLB   GL410888  14.090  18.020  25.490
  454BOLB   C1C10889  14.570  17.790  25.130
  454BOLB   C2C10890  14.690  17.520  24.720
  454BOLB   C3C10891  14.720  17.480  24.240
  454BOLB   C4C10892  14.610  17.420  23.830
  454BOLB   C1D10893  14.060  17.900  24.980
  454BOLB   C2D10894  14.300  17.860  24.690
  454BOLB   C3D10895  14.670  17.970  24.530
  454BOLB   C4D10896  14.790  17.980  24.080
  455BOLB   NC110897   3.640  16.210  17.680
  455BOLB   PO110898   3.740  15.770  17.580
  455BOLB   GL110899   3.460  15.460  17.600
  455BOLB   GL210900   3.420  15.320  17.230
  455BOLB   C1A10901   3.290  15.160  17.750
  455BOLB   C2A10902   3.130  14.840  17.810
  455BOLB   C3A10903   2.710  14.670  17.890
  455BOLB   C4A10904   2.210  14.610  17.860
  455BOLB   C1B10905   3.110  15.070  17.310
  455BOLB   C2B10906   2.900  14.630  17.380
  455BOLB   C3B10907   2.550  14.330  17.580
  455BOLB   C4B10908   2.470  13.950  17.640
  455BOLB   NC210909   0.180  13.690  17.620
  455BOLB   PO210910   0.230  13.280  17.730
  455BOLB   GL310911   0.540  13.420  17.400
  455BOLB   GL410912   0.310  13.490  17.090
  455BOLB   C1C10913   0.840  13.790  17.320
  455BOLB   C2C10914   1.280  13.970  17.390
  455BOLB   C3C10915   1.670  14.020  17.630
  455BOLB   C4C10916   2.080  14.270  17.700
  455BOLB   C1D10917   0.620  13.740  16.900
  455BOLB   C2D10918   0.990  14.060  16.860
  455BOLB   C3D10919   1.380  14.130  16.940
  455BOLB   C4D10920   1.750  14.120  17.120
  456BOLB   NC110921  15.290  14.190  18.620
  456BOLB   PO110922  15.720  14.100  18.810
  456BOLB   GL110923  15.700  14.020  19.210
  456BOLB   GL210924  15.950  13.780  19.260
  456BOLB   C1A10925  15.580  13.620  19.530
  456BOLB   C2A10926  15.560  13.420  19.890
  456BOLB   C3A10927  15.650  13.120  20.360
  456BOLB   C4A10928  15.710  12.790  20.610
  456BOLB   C1B10929  16.360  13.450  19.330
  456BOLB   C2B10930  16.670  13.210  19.560
  456BOLB   C3B10931  16.940  12.900  19.740
  456BOLB   C4B10932  17.430  12.810  19.800
  456BOLB   NC210933  17.100  11.330  22.120
  456BOLB   PO210934  17.180  11.340  21.710
  456BOLB   GL310935  16.780  11.610  21.670
  456BOLB   GL410936  16.590  11.430  21.430
  456BOLB   C1C10937  16.460  11.920  21.710
  456BOLB   C2C10938  16.080  12.140  21.520
  456BOLB   C3C10939  15.870  12.420  21.330
  456BOLB   C4C10940  15.840  12.620  20.990
  456BOLB   C1D10941  16.280  11.660  21.160
  456BOLB   C2D10942  16.060  11.420  20.830
  456BOLB   C3D10943  16.020  11.440  20.370
  456BOLB   C4D10944  15.720  11.690  20.130
  457BOLB   NC110945   7.000  21.950  22.850
  457BOLB   PO110946   7.010  21.540  22.690
  457BOLB   GL110947   7.030  21.580  23.170
  457BOLB   GL210948   7.160  21.810  23.340
  457BOLB   C1A10949   6.740  21.570  23.400
  457BOLB   C2A10950   6.330  21.590  23.430
  457BOLB   C3A10951   6.060  21.790  23.720
  457BOLB   C4A10952   5.810  21.760  24.030
  457BOLB   C1B10953   6.880  21.940  23.730
  457BOLB   C2B10954   6.800  22.020  24.060
  457BOLB   C3B10955   7.040  22.150  24.460
  457BOLB   C4B10956   7.460  22.150  24.630
  457BOLB   NC210957   4.740  21.660  26.020
  457BOLB   PO210958   5.140  21.530  26.230
  457BOLB   GL310959   5.450  21.460  26.020
  457BOLB   GL410960   5.280  21.230  25.890
  457BOLB   C1C10961   5.590  21.620  25.670
  457BOLB   C2C10962   5.680  21.710  25.240
  457BOLB   C3C10963   5.760  21.510  24.870
  457BOLB   C4C10964   5.750  21.540  24.390
  457BOLB   C1D10965   5.360  21.150  25.490
  457BOLB   C2D10966   5.420  21.170  25.040
  457BOLB   C3D10967   5.280  21.020  24.650
  457BOLB   C4D10968   5.600  21.080  24.320
  458BOLB   NC110969  12.290  22.300  22.320
  458BOLB   PO110970  11.910  22.420  22.250
  458BOLB   GL110971  11.920  22.600  22.600
  458BOLB   GL210972  11.580  22.780  22.710
  458BOLB   C1A10973  12.020  22.560  23.040
  458BOLB   C2A10974  12.330  22.260  23.290
  458BOLB   C3A10975  12.380  22.270  23.670
  458BOLB   C4A10976  12.520  22.660  23.960
  458BOLB   C1B10977  11.870  23.020  23.100
  458BOLB   C2B10978  11.730  23.190  23.580
  458BOLB   C3B10979  11.670  23.370  23.950
  458BOLB   C4B10980  11.610  23.850  24.050
  458BOLB   NC210981  12.530  23.600  26.020
  458BOLB   PO210982  12.090  23.690  26.120
  458BOLB   GL310983  12.170  23.530  25.670
  458BOLB   GL410984  11.820  23.580  25.640
  458BOLB   C1C10985  12.350  23.400  25.310
  458BOLB   C2C10986  12.450  23.250  24.980
  458BOLB   C3C10987  12.430  22.980  24.710
  458BOLB   C4C10988  12.480  22.840  24.310
  458BOLB   C1D10989  11.540  23.400  25.290
  458BOLB   C2D10990  11.460  23.290  24.910
  458BOLB   C3D10991  11.170  23.180  24.640
  458BOLB   C4D10992  10.900  23.310  24.390
  459BOLB   NC110993   4.150  21.700  20.040
  459BOLB   PO110994   3.760  21.560  20.090
  459BOLB   GL110995   3.440  21.490  20.220
  459BOLB   GL210996   3.240  21.210  20.190
  459BOLB   C1A10997   3.030  21.600  20.450
  459BOLB   C2A10998   2.660  21.800  20.480
  459BOLB   C3A10999   2.420  21.880  20.770
  459BOLB   C4A11000   2.410  22.080  21.190
  459BOLB   C1B11001   2.960  21.130  20.410
  459BOLB   C2B11002   2.670  20.940  20.620
  459BOLB   C3B11003   2.470  21.200  20.870
  459BOLB   C4B11004   2.310  21.460  21.140
  459BOLB   NC211005   0.410  22.750  22.850
  459BOLB   PO211006   0.700  22.840  22.460
  459BOLB   GL311007   1.070  22.640  22.350
  459BOLB   GL411008   1.240  22.960  22.430
  459BOLB   C1C11009   1.240  22.320  22.060
  459BOLB   C2C11010   1.510  22.120  21.690
  459BOLB   C3C11011   1.790  22.250  21.530
  459BOLB   C4C11012   2.180  22.050  21.550
  459BOLB   C1D11013   1.490  22.810  22.080
  459BOLB   C2D11014   1.470  22.690  21.750
  459BOLB   C3D11015   1.830  22.740  21.470
  459BOLB   C4D11016   2.130  22.450  21.150
  460BOLB   NC111017  11.170  20.440  22.990
  460BOLB   PO111018  11.370  20.820  22.830
  460BOLB   GL111019  11.260  20.850  23.250
  460BOLB   GL211020  11.540  21.010  23.370
  460BOLB   C1A11021  10.860  20.710  23.450
  460BOLB   C2A11022  10.990  20.470  23.840
  460BOLB   C3A11023  11.090  20.190  24.160
  460BOLB   C4A11024  11.300  20.010  24.520
  460BOLB   C1B11025  11.920  20.790  23.470
  460BOLB   C2B11026  12.070  20.620  23.910
  460BOLB   C3B11027  12.110  20.760  24.340
  460BOLB   C4B11028  12.030  20.840  24.750
  460BOLB   NC211029  10.230  19.360  27.150
  460BOLB   PO211030  10.470  19.700  26.960
  460BOLB   GL311031  10.650  19.550  26.590
  460BOLB   GL411032  10.920  19.310  26.580
  460BOLB   C1C11033  10.770  19.640  26.210
  460BOLB   C2C11034  10.960  19.710  25.850
  460BOLB   C3C11035  11.120  19.760  25.340
  460BOLB   C4C11036  11.260  19.860  24.920
  460BOLB   C1D11037  11.010  19.190  26.160
  460BOLB   C2D11038  10.890  19.010  25.790
  460BOLB   C3D11039  10.850  18.810  25.350
  460BOLB   C4D11040  10.750  18.510  25.090
  461BOLB   NC111041   1.950  18.170  16.960
  461BOLB   PO111042   1.800  17.830  16.830
  461BOLB   GL111043   1.480  17.630  16.730
  461BOLB   GL211044   1.280  17.890  16.480
  461BOLB   C1A11045   1.040  17.630  16.940
  461BOLB   C2A11046   0.840  18.010  16.740
  461BOLB   C3A11047   0.640  18.030  16.470
  461BOLB   C4A11048   0.250  17.700  16.380
  461BOLB   C1B11049   1.040  17.960  16.080
  461BOLB   C2B11050   0.530  17.880  16.020
  461BOLB   C3B11051   0.020  17.820  15.950
  461BOLB   C4B11052  36.010  18.040  15.670
  461BOLB   NC211053  33.780  17.180  16.920
  461BOLB   PO211054  34.160  16.890  17.040
  461BOLB   GL311055  34.620  17.050  17.060
  461BOLB   GL411056  34.890  16.930  17.000
  461BOLB   C1C11057  34.980  17.460  17.080
  461BOLB   C2C11058  35.170  17.470  16.680
  461BOLB   C3C11059  35.550  17.550  16.350
  461BOLB   C4C11060  36.160  17.630  16.380
  461BOLB   C1D11061  35.210  16.720  17.130
  461BOLB   C2D11062  35.720  16.710  17.210
  461BOLB   C3D11063  36.190  16.730  17.270
  461BOLB   C4D11064   0.040  17.210  17.170
  462BOLB   NC111065   2.140  16.270  13.060
  462BOLB   PO111066   2.100  16.590  13.370
  462BOLB   GL111067   1.770  16.610  13.260
  462BOLB   GL211068   1.750  16.640  12.980
  462BOLB   C1A11069   1.440  16.790  13.370
  462BOLB   C2A11070   0.990  16.620  13.490
  462BOLB   C3A11071   0.640  16.510  13.640
  462BOLB   C4A11072   0.200  16.440  13.710
  462BOLB   C1B11073   1.560  16.420  12.700
  462BOLB   C2B11074   1.250  16.110  12.730
  462BOLB   C3B11075   1.130  15.740  12.570
  462BOLB   C4B11076   0.690  15.490  12.550
  462BOLB   NC211077  34.420  15.720  14.100
  462BOLB   PO211078  34.260  15.360  14.310
  462BOLB   GL311079  34.720  15.250  14.160
  462BOLB   GL411080  34.830  15.410  13.890
  462BOLB   C1C11081  35.180  15.310  14.280
  462BOLB   C2C11082  35.480  15.680  14.220
  462BOLB   C3C11083  35.950  15.870  14.140
  462BOLB   C4C11084  36.210  16.150  13.960
  462BOLB   C1D11085  35.360  15.450  13.730
  462BOLB   C2D11086  35.750  15.470  13.870
  462BOLB   C3D11087  36.150  15.390  13.770
  462BOLB   C4D11088   0.220  15.230  13.850
  463BOLB   NC111089  10.410  12.280  18.290
  463BOLB   PO111090  10.290  12.180  18.590
  463BOLB   GL111091  10.390  11.860  18.940
  463BOLB   GL211092  10.270  11.520  18.810
  463BOLB   C1A11093  10.290  11.600  19.370
  463BOLB   C2A11094  10.390  11.180  19.690
  463BOLB   C3A11095  10.520  10.820  19.590
  463BOLB   C4A11096  10.230  10.440  19.620
  463BOLB   C1B11097  10.100  11.080  18.890
  463BOLB   C2B11098   9.880  10.690  19.140
  463BOLB   C3B11099   9.930  10.800  19.440
  463BOLB   C4B11100   9.760  10.770  19.840
  463BOLB   NC211101  10.440   9.030  21.090
  463BOLB   PO211102  10.030   9.040  21.300
  463BOLB   GL311103  10.060   9.340  20.940
  463BOLB   GL411104   9.810   9.190  20.790
  463BOLB   C1C11105  10.120   9.610  20.650
  463BOLB   C2C11106  10.050   9.710  20.330
  463BOLB   C3C11107  10.150   9.970  20.110
  463BOLB   C4C11108   9.910  10.270  19.890
  463BOLB   C1D11109   9.520   9.140  20.410
  463BOLB   C2D11110   9.640   8.990  19.980
  463BOLB   C3D11111   9.610   9.270  19.600
  463BOLB   C4D11112   9.220   9.200  19.250
  464BOLB   NC111113   6.870  17.160  22.090
  464BOLB   PO111114   6.790  17.480  22.340
  464BOLB   GL111115   6.540  17.510  22.680
  464BOLB   GL211116   6.290  17.780  22.760
  464BOLB   C1A11117   6.690  17.420  23.150
  464BOLB   C2A11118   6.410  17.110  23.370
  464BOLB   C3A11119   5.990  17.070  23.570
  464BOLB   C4A11120   5.900  16.890  23.950
  464BOLB   C1B11121   6.490  17.930  23.130
  464BOLB   C2B11122   6.380  18.080  23.630
  464BOLB   C3B11123   6.450  17.960  24.020
  464BOLB   C4B11124   6.470  17.940  24.460
  464BOLB   NC211125   4.710  15.910  25.000
  464BOLB   PO211126   4.340  15.950  24.620
  464BOLB   GL311127   4.680  15.850  24.450
  464BOLB   GL411128   4.640  16.170  24.260
  464BOLB   C1C11129   5.100  15.960  24.280
  464BOLB   C2C11130   5.270  16.260  24.370
  464BOLB   C3C11131   5.500  16.650  24.530
  464BOLB   C4C11132   5.680  16.960  24.260
  464BOLB   C1D11133   4.930  16.330  23.960
  464BOLB   C2D11134   5.120  16.740  23.800
  464BOLB   C3D11135   5.040  17.180  23.860
  464BOLB   C4D11136   4.760  17.400  24.040
  465BOLB   NC111137  16.260  14.710   8.890
  465BOLB   PO111138  16.310  14.580   9.410
  465BOLB   GL111139  16.570  14.360   9.140
  465BOLB   GL211140  16.710  14.620   9.090
  465BOLB   C1A11141  16.690  14.010   9.010
  465BOLB   C2A11142  17.030  13.940   8.750
  465BOLB   C3A11143  17.110  13.660   8.480
  465BOLB   C4A11144  17.110  13.410   8.110
  465BOLB   C1B11145  16.960  14.430   8.790
  465BOLB   C2B11146  17.130  14.500   8.350
  465BOLB   C3B11147  17.110  14.520   7.910
  465BOLB   C4B11148  17.000  14.260   7.510
  465BOLB   NC211149  18.710  13.150   6.260
  465BOLB   PO211150  18.920  12.870   6.400
  465BOLB   GL311151  18.750  12.990   6.780
  465BOLB   GL411152  18.660  13.330   6.750
  465BOLB   C1C11153  18.510  12.930   7.080
  465BOLB   C2C11154  18.050  12.880   7.390
  465BOLB   C3C11155  17.650  13.040   7.580
  465BOLB   C4C11156  17.250  13.300   7.590
  465BOLB   C1D11157  18.410  13.620   6.940
  465BOLB   C2D11158  18.470  14.040   7.080
  465BOLB   C3D11159  18.260  14.270   7.300
  465BOLB   C4D11160  18.060  14.380   7.710
  466BOLB   NC111161   6.240  13.650  17.170
  466BOLB   PO111162   6.360  13.230  17.200
  466BOLB   GL111163   6.040  12.930  17.490
  466BOLB   GL211164   6.080  12.590  17.640
  466BOLB   C1A11165   5.570  12.720  17.530
  466BOLB   C2A11166   5.730  12.270  17.440
  466BOLB   C3A11167   5.720  11.890  17.620
  466BOLB   C4A11168   5.580  11.730  18.090
  466BOLB   C1B11169   5.930  12.300  17.870
  466BOLB   C2B11170   5.580  12.230  18.240
  466BOLB   C3B11171   5.300  12.280  18.550
  466BOLB   C4B11172   4.900  12.000  18.710
  466BOLB   NC211173   4.020  10.160  19.160
  466BOLB   PO211174   4.030   9.990  18.650
  466BOLB   GL311175   4.230  10.250  18.400
  466BOLB   GL411176   4.180  10.430  18.060
  466BOLB   C1C11177   4.620  10.540  18.260
  466BOLB   C2C11178   4.990  10.740  18.160
  466BOLB   C3C11179   5.250  11.070  18.110
  466BOLB   C4C11180   5.390  11.390  18.090
  466BOLB   C1D11181   4.400  10.740  17.880
  466BOLB   C2D11182   4.690  10.880  17.740
  466BOLB   C3D11183   5.120  11.110  17.660
  466BOLB   C4D11184   5.380  11.170  17.210
  467BOLB   NC111185  12.490  19.930  22.300
  467BOLB   PO111186  12.930  19.670  22.340
  467BOLB   GL111187  13.110  19.630  22.820
  467BOLB   GL211188  13.110  19.300  22.960
  467BOLB   C1A11189  13.290  19.880  23.170
  467BOLB   C2A11190  13.280  19.770  23.600
  467BOLB   C3A11191  13.240  19.990  24.000
  467BOLB   C4A11192  13.190  20.020  24.430
  467BOLB   C1B11193  13.040  19.370  23.320
  467BOLB   C2B11194  13.020  19.310  23.790
  467BOLB   C3B11195  12.780  19.100  24.090
  467BOLB   C4B11196  12.790  19.060  24.510
  467BOLB   NC211197  13.490  20.960  27.060
  467BOLB   PO211198  13.440  20.880  26.630
  467BOLB   GL311199  13.210  20.720  26.190
  467BOLB   GL411200  13.390  20.420  26.010
  467BOLB   C1C11201  12.920  20.480  25.900
  467BOLB   C2C11202  13.150  20.200  25.600
  467BOLB   C3C11203  13.380  20.160  25.290
  467BOLB   C4C11204  13.290  20.150  24.870
  467BOLB   C1D11205  13.560  20.070  25.800
  467BOLB   C2D11206  13.780  19.730  25.470
  467BOLB   C3D11207  13.890  19.450  25.070
  467BOLB   C4D11208  13.780  19.270  24.650
  468BOLB   NC111209   2.340  17.070  12.360
  468BOLB   PO111210   2.490  17.000  11.970
  468BOLB   GL111211   2.020  16.940  11.880
  468BOLB   GL211212   1.880  16.660  11.890
  468BOLB   C1A11213   1.840  17.030  11.480
  468BOLB   C2A11214   1.580  16.730  11.430
  468BOLB   C3A11215   1.150  16.680  11.230
  468BOLB   C4A11216   0.950  16.560  10.780
  468BOLB   C1B11217   1.400  16.470  11.830
  468BOLB   C2B11218   1.120  16.230  11.600
  468BOLB   C3B11219   0.790  16.270  11.410
  468BOLB   C4B11220   0.580  16.110  11.070
  468BOLB   NC211221  35.830  15.960   9.680
  468BOLB   PO211222  35.700  16.470   9.610
  468BOLB   GL311223  35.890  16.800   9.850
  468BOLB   GL411224  35.790  16.810  10.010
  468BOLB   C1C11225  36.230  17.060   9.910
  468BOLB   C2C11226   0.250  17.210   9.980
  468BOLB   C3C11227   0.520  17.160  10.260
  468BOLB   C4C11228   0.760  16.810  10.520
  468BOLB   C1D11229  36.080  16.670  10.270
  468BOLB   C2D11230   0.030  16.440  10.620
  468BOLB   C3D11231   0.330  16.570  10.890
  468BOLB   C4D11232   0.430  16.590  11.240
  469BOLB   NC111233  18.230  22.560  12.360
  469BOLB   PO111234  18.760  22.690  12.280
  469BOLB   GL111235  19.140  22.850  12.150
  469BOLB   GL211236  19.310  22.880  11.820
  469BOLB   C1A11237  19.560  23.040  12.310
  469BOLB   C2A11238  19.940  23.230  12.400
  469BOLB   C3A11239  20.430  23.290  12.130
  469BOLB   C4A11240  20.750  23.470  11.990
  469BOLB   C1B11241  19.670  22.870  11.610
  469BOLB   C2B11242  20.080  23.030  11.520
  469BOLB   C3B11243  20.420  22.740  11.250
  469BOLB   C4B11244  20.660  22.630  10.910
  469BOLB   NC211245  23.190  23.100  11.460
  469BOLB   PO211246  23.090  23.440  11.750
  469BOLB   GL311247  22.750  23.690  11.770
  469BOLB   GL411248  22.550  23.640  12.180
  469BOLB   C1C11249  22.260  23.770  11.650
  469BOLB   C2C11250  21.920  23.630  11.640
  469BOLB   C3C11251  21.450  23.560  11.740
  469BOLB   C4C11252  21.140  23.540  11.950
  469BOLB   C1D11253  22.130  23.580  12.120
  469BOLB   C2D11254  21.640  23.440  12.220
  469BOLB   C3D11255  21.300  23.460  12.430
  469BOLB   C4D11256  20.930  23.710  12.460
  470BOLB   NC111257   4.460  15.460  18.430
  470BOLB   PO111258   4.120  15.650  18.270
  470BOLB   GL111259   3.780  15.630  18.440
  470BOLB   GL211260   3.520  15.850  18.670
  470BOLB   C1A11261   3.440  15.320  18.300
  470BOLB   C2A11262   3.110  15.080  18.550
  470BOLB   C3A11263   2.900  14.950  18.840
  470BOLB   C4A11264   2.940  14.700  19.260
  470BOLB   C1B11265   3.300  15.500  18.810
  470BOLB   C2B11266   2.870  15.410  18.980
  470BOLB   C3B11267   2.520  15.180  19.110
  470BOLB   C4B11268   2.160  15.130  19.440
  470BOLB   NC211269   0.850  14.020  20.310
  470BOLB   PO211270   1.270  14.020  20.500
  470BOLB   GL311271   1.340  14.030  20.140
  470BOLB   GL411272   1.740  13.970  20.140
  470BOLB   C1C11273   1.470  14.220  19.850
  470BOLB   C2C11274   1.900  14.360  19.840
  470BOLB   C3C11275   2.260  14.390  19.640
  470BOLB   C4C11276   2.660  14.400  19.550
  470BOLB   C1D11277   2.220  14.110  20.180
  470BOLB   C2D11278   2.500  14.480  20.140
  470BOLB   C3D11279   2.630  14.830  20.150
  470BOLB   C4D11280   2.810  15.190  20.460
  471BOLB   NC111281  15.090  12.980  10.520
  471BOLB   PO111282  15.380  13.300  10.160
  471BOLB   GL111283  15.370  12.880  10.000
  471BOLB   GL211284  15.310  12.910   9.780
  471BOLB   C1A11285  15.460  12.430   9.920
  471BOLB   C2A11286  15.290  11.990   9.920
  471BOLB   C3A11287  15.540  11.490   9.750
  471BOLB   C4A11288  15.830  11.200   9.800
  471BOLB   C1B11289  15.670  12.680   9.580
  471BOLB   C2B11290  15.780  12.390   9.240
  471BOLB   C3B11291  15.660  12.020   9.030
  471BOLB   C4B11292  15.620  11.830   8.730
  471BOLB   NC211293  16.620  10.170   8.060
  471BOLB   PO211294  17.030  10.480   7.910
  471BOLB   GL311295  16.900  10.570   8.310
  471BOLB   GL411296  16.570  10.630   8.360
  471BOLB   C1C11297  16.740  10.530   8.800
  471BOLB   C2C11298  16.680  10.660   9.350
  471BOLB   C3C11299  16.350  10.820   9.560
  471BOLB   C4C11300  16.060  10.860   9.830
  471BOLB   C1D11301  16.270  10.970   8.230
  471BOLB   C2D11302  16.300  11.430   8.170
  471BOLB   C3D11303  16.610  11.550   7.960
  471BOLB   C4D11304  16.710  11.580   7.490
  472BOLB   NC111305   8.510  16.730  22.220
  472BOLB   PO111306   8.850  17.030  22.040
  472BOLB   GL111307   8.980  16.760  22.420
  472BOLB   GL211308   9.240  16.850  22.600
  472BOLB   C1A11309   9.020  16.350  22.630
  472BOLB   C2A11310   9.190  15.830  22.710
  472BOLB   C3A11311   9.360  15.540  22.770
  472BOLB   C4A11312   9.280  15.260  23.180
  472BOLB   C1B11313   9.220  16.730  22.930
  472BOLB   C2B11314   9.020  16.690  23.360
  472BOLB   C3B11315   8.870  16.830  23.770
  472BOLB   C4B11316   8.920  16.710  24.140
  472BOLB   NC211317   9.950  14.120  25.310
  472BOLB   PO211318   9.720  14.470  25.180
  472BOLB   GL311319   9.480  14.390  24.850
  472BOLB   GL411320   9.160  14.240  24.800
  472BOLB   C1C11321   9.430  14.630  24.440
  472BOLB   C2C11322   9.120  14.870  24.140
  472BOLB   C3C11323   9.230  14.940  23.700
  472BOLB   C4C11324   9.130  14.960  23.380
  472BOLB   C1D11325   8.890  14.570  24.500
  472BOLB   C2D11326   8.710  14.860  24.590
  472BOLB   C3D11327   8.330  15.170  24.680
  472BOLB   C4D11328   8.110  15.530  24.510
  473BOLB   NC111329   3.710  14.670  15.740
  473BOLB   PO111330   3.230  14.910  15.830
  473BOLB   GL111331   2.820  14.840  15.730
  473BOLB   GL211332   2.670  15.160  15.650
  473BOLB   C1A11333   2.640  14.470  15.780
  473BOLB   C2A11334   2.490  14.010  15.730
  473BOLB   C3A11335   2.320  13.660  15.890
  473BOLB   C4A11336   2.200  13.240  15.980
  473BOLB   C1B11337   2.280  14.890  15.650
  473BOLB   C2B11338   2.130  14.540  15.800
  473BOLB   C3B11339   1.750  14.380  16.080
  473BOLB   C4B11340   1.460  14.030  15.960
  473BOLB   NC211341   0.540  11.740  16.570
  473BOLB   PO211342   0.590  11.680  16.100
  473BOLB   GL311343   0.830  12.000  15.900
  473BOLB   GL411344   0.990  12.000  15.490
  473BOLB   C1C11345   1.210  12.150  15.960
  473BOLB   C2C11346   1.540  12.490  15.930
  473BOLB   C3C11347   1.900  12.670  15.750
  473BOLB   C4C11348   2.240  12.890  15.840
  473BOLB   C1D11349   1.090  12.140  15.110
  473BOLB   C2D11350   1.370  11.970  14.860
  473BOLB   C3D11351   1.630  11.590  14.670
  473BOLB   C4D11352   1.620  11.510  14.280
  474BOLB   NC111353  16.420  12.440  13.460
  474BOLB   PO111354  16.270  12.370  13.910
  474BOLB   GL111355  16.600  12.100  13.850
  474BOLB   GL211356  16.570  11.920  13.520
  474BOLB   C1A11357  16.980  11.870  13.840
  474BOLB   C2A11358  17.460  11.840  13.900
  474BOLB   C3A11359  17.860  11.510  13.790
  474BOLB   C4A11360  18.140  11.190  13.900
  474BOLB   C1B11361  16.860  11.540  13.470
  474BOLB   C2B11362  16.960  11.150  13.380
  474BOLB   C3B11363  17.250  10.930  13.430
  474BOLB   C4B11364  17.650  10.860  13.510
  474BOLB   NC211365  19.700   9.930  13.750
  474BOLB   PO211366  19.670  10.000  13.270
  474BOLB   GL311367  19.430  10.350  13.270
  474BOLB   GL411368  19.350  10.280  13.620
  474BOLB   C1C11369  18.960  10.190  13.280
  474BOLB   C2C11370  18.580  10.080  13.570
  474BOLB   C3C11371  18.140  10.360  13.790
  474BOLB   C4C11372  18.010  10.780  13.870
  474BOLB   C1D11373  19.400  10.780  13.590
  474BOLB   C2D11374  19.150  11.140  13.650
  474BOLB   C3D11375  18.630  11.250  13.780
  474BOLB   C4D11376  18.320  11.680  13.920
  475BOLB   NC111377  19.140  16.000  15.760
  475BOLB   PO111378  19.060  15.880  16.210
  475BOLB   GL111379  19.460  15.790  16.070
  475BOLB   GL211380  19.570  16.170  16.070
  475BOLB   C1A11381  19.890  15.770  16.270
  475BOLB   C2A11382  20.180  15.500  16.340
  475BOLB   C3A11383  20.240  15.360  16.680
  475BOLB   C4A11384  20.400  15.320  17.080
  475BOLB   C1B11385  20.050  16.200  16.100
  475BOLB   C2B11386  20.450  16.320  16.140
  475BOLB   C3B11387  20.620  16.350  16.490
  475BOLB   C4B11388  20.810  16.380  16.980
  475BOLB   NC211389  22.010  14.210  18.080
  475BOLB   PO211390  22.420  14.250  17.780
  475BOLB   GL311391  22.120  14.550  17.630
  475BOLB   GL411392  21.830  14.460  17.510
  475BOLB   C1C11393  21.930  14.930  17.500
  475BOLB   C2C11394  21.590  15.190  17.410
  475BOLB   C3C11395  21.210  15.330  17.460
  475BOLB   C4C11396  20.840  15.260  17.200
  475BOLB   C1D11397  21.480  14.710  17.450
  475BOLB   C2D11398  21.040  14.910  17.560
  475BOLB   C3D11399  20.710  14.630  17.720
  475BOLB   C4D11400  20.230  14.630  17.660
  476BOLB   NC111401   7.920  17.320  22.310
  476BOLB   PO111402   8.190  17.480  22.660
  476BOLB   GL111403   7.870  17.410  22.870
  476BOLB   GL211404   7.610  17.620  22.910
  476BOLB   C1A11405   7.840  17.380  23.330
  476BOLB   C2A11406   7.760  17.330  23.850
  476BOLB   C3A11407   7.810  17.060  24.160
  476BOLB   C4A11408   7.780  16.660  24.310
  476BOLB   C1B11409   7.400  17.190  23.080
  476BOLB   C2B11410   7.530  16.770  23.320
  476BOLB   C3B11411   7.640  16.580  23.720
  476BOLB   C4B11412   7.710  16.190  24.010
  476BOLB   NC211413   6.850  14.610  25.380
  476BOLB   PO211414   7.250  14.430  25.150
  476BOLB   GL311415   7.210  14.740  24.810
  476BOLB   GL411416   6.970  14.840  24.520
  476BOLB   C1C11417   7.410  15.060  24.560
  476BOLB   C2C11418   7.620  15.430  24.510
  476BOLB   C3C11419   7.680  15.820  24.540
  476BOLB   C4C11420   7.780  16.320  24.560
  476BOLB   C1D11421   7.010  15.300  24.350
  476BOLB   C2D11422   6.640  15.730  24.480
  476BOLB   C3D11423   6.410  16.010  24.180
  476BOLB   C4D11424   6.430  16.180  23.730
  477BOLB   NC111425  14.080  23.680  21.360
  477BOLB   PO111426  14.550  23.790  21.300
  477BOLB   GL111427  14.750  24.110  21.530
  477BOLB   GL211428  15.010  24.150  21.340
  477BOLB   C1A11429  14.670  24.250  21.880
  477BOLB   C2A11430  15.020  24.450  22.140
  477BOLB   C3A11431  15.160  24.300  22.490
  477BOLB   C4A11432  15.300  24.320  22.890
  477BOLB   C1B11433  15.190  24.040  21.780
  477BOLB   C2B11434  15.520  24.260  22.030
  477BOLB   C3B11435  15.780  24.030  22.390
  477BOLB   C4B11436  16.220  24.180  22.600
  477BOLB   NC211437  15.970  23.200  25.080
  477BOLB   PO211438  16.070  23.710  25.010
  477BOLB   GL311439  15.950  23.730  24.560
  477BOLB   GL411440  15.660  23.850  24.510
  477BOLB   C1C11441  16.020  23.810  24.130
  477BOLB   C2C11442  15.810  23.780  23.770
  477BOLB   C3C11443  15.580  23.970  23.520
  477BOLB   C4C11444  15.500  24.280  23.210
  477BOLB   C1D11445  15.380  23.590  24.330
  477BOLB   C2D11446  15.290  23.150  24.190
  477BOLB   C3D11447  15.280  22.900  23.820
  477BOLB   C4D11448  15.390  22.430  23.760
  478BOLB   NC111449  11.190  11.960  17.890
  478BOLB   PO111450  11.630  12.030  18.080
  478BOLB   GL111451  11.580  11.680  18.430
  478BOLB   GL211452  11.230  11.450  18.570
  478BOLB   C1A11453  11.660  11.240  18.620
  478BOLB   C2A11454  11.890  10.960  18.770
  478BOLB   C3A11455  11.970  10.640  18.820
  478BOLB   C4A11456  11.900  10.270  19.010
  478BOLB   C1B11457  11.350  11.250  18.980
  478BOLB   C2B11458  11.370  10.850  18.910
  478BOLB   C3B11459  11.440  10.400  18.990
  478BOLB   C4B11460  11.400  10.010  19.240
  478BOLB   NC211461  11.380   7.730  20.320
  478BOLB   PO211462  11.300   8.210  20.400
  478BOLB   GL311463  11.400   8.500  20.040
  478BOLB   GL411464  11.570   8.450  19.770
  478BOLB   C1C11465  11.250   8.880  19.790
  478BOLB   C2C11466  11.610   9.250  19.740
  478BOLB   C3C11467  11.760   9.620  19.490
  478BOLB   C4C11468  11.870   9.810  19.160
  478BOLB   C1D11469  11.790   8.390  19.290
  478BOLB   C2D11470  12.100   8.230  19.170
  478BOLB   C3D11471  12.480   8.160  19.000
  478BOLB   C4D11472  12.750   7.710  18.930
  479BOLB   NC111473  11.340  23.040  21.850
  479BOLB   PO111474  11.660  23.370  21.970
  479BOLB   GL111475  11.580  23.620  22.400
  479BOLB   GL211476  11.360  23.780  22.460
  479BOLB   C1A11477  11.780  23.940  22.790
  479BOLB   C2A11478  12.000  23.990  23.250
  479BOLB   C3A11479  12.280  23.980  23.550
  479BOLB   C4A11480  12.480  24.230  23.870
  479BOLB   C1B11481  11.250  24.050  22.840
  479BOLB   C2B11482  11.280  24.220  23.210
  479BOLB   C3B11483  11.570  24.080  23.410
  479BOLB   C4B11484  11.590  23.640  23.540
  479BOLB   NC211485  12.650  25.160  25.780
  479BOLB   PO211486  12.340  24.970  25.750
  479BOLB   GL311487  12.570  24.750  25.490
  479BOLB   GL411488  12.850  24.740  25.480
  479BOLB   C1C11489  12.520  24.380  25.260
  479BOLB   C2C11490  12.590  24.340  24.830
  479BOLB   C3C11491  12.580  24.640  24.530
  479BOLB   C4C11492  12.690  24.440  24.180
  479BOLB   C1D11493  12.720  24.800  24.980
  479BOLB   C2D11494  12.550  25.170  24.760
  479BOLB   C3D11495  12.370  25.440  24.530
  479BOLB   C4D11496  12.380  25.390  24.050
  480BOLB   NC111497  17.390  13.710  12.760
  480BOLB   PO111498  17.700  13.670  13.080
  480BOLB   GL111499  18.140  13.540  13.110
  480BOLB   GL211500  18.440  13.650  13.300
  480BOLB   C1A11501  18.390  13.070  13.140
  480BOLB   C2A11502  18.640  12.870  12.860
  480BOLB   C3A11503  19.000  12.780  12.750
  480BOLB   C4A11504  19.360  12.680  12.530
  480BOLB   C1B11505  18.690  13.400  13.450
  480BOLB   C2B11506  19.140  13.320  13.580
  480BOLB   C3B11507  19.450  13.070  13.650
  480BOLB   C4B11508  19.650  12.700  13.530
  480BOLB   NC211509  21.150  11.730  11.910
  480BOLB   PO211510  21.410  11.940  12.270
  480BOLB   GL311511  21.100  12.150  12.160
  480BOLB   GL411512  21.270  12.510  12.170
  480BOLB   C1C11513  20.710  12.030  12.390
  480BOLB   C2C11514  20.390  12.280  12.440
  480BOLB   C3C11515  19.970  12.380  12.420
  480BOLB   C4C11516  19.610  12.460  12.620
  480BOLB   C1D11517  20.930  12.500  11.910
  480BOLB   C2D11518  20.610  12.870  11.730
  480BOLB   C3D11519  20.310  13.270  11.610
  480BOLB   C4D11520  20.290  13.620  11.390
  481BOLB   NC111521  14.230  23.140  21.070
  481BOLB   PO111522  14.450  23.310  21.450
  481BOLB   GL111523  14.490  23.520  21.790
  481BOLB   GL211524  14.770  23.710  21.790
  481BOLB   C1A11525  14.270  23.670  22.110
  481BOLB   C2A11526  14.180  23.530  22.520
  481BOLB   C3A11527  14.350  23.220  22.920
  481BOLB   C4A11528  14.510  23.110  23.400
  481BOLB   C1B11529  15.000  23.760  22.130
  481BOLB   C2B11530  15.270  23.860  22.370
  481BOLB   C3B11531  15.490  23.870  22.750
  481BOLB   C4B11532  15.310  23.760  23.230
  481BOLB   NC211533  14.840  23.420  25.470
  481BOLB   PO211534  14.570  23.120  25.650
  481BOLB   GL311535  14.670  23.070  25.180
  481BOLB   GL411536  14.590  23.300  24.900
  481BOLB   C1C11537  14.920  22.780  24.940
  481BOLB   C2C11538  14.960  22.870  24.450
  481BOLB   C3C11539  14.880  22.700  24.010
  481BOLB   C4C11540  14.780  22.890  23.580
  481BOLB   C1D11541  14.450  23.110  24.510
  481BOLB   C2D11542  14.130  22.910  24.460
  481BOLB   C3D11543  13.800  22.790  24.760
  481BOLB   C4D11544  13.780  22.480  25.070
  482BOLB   NC111545  10.990  12.990  19.450
  482BOLB   PO111546  11.140  13.290  19.810
  482BOLB   GL111547  11.220  13.140  20.240
  482BOLB   GL211548  11.410  13.370  20.350
  482BOLB   C1A11549  11.180  12.870  20.560
  482BOLB   C2A11550  11.400  12.570  20.880
  482BOLB   C3A11551  11.650  12.280  21.030
  482BOLB   C4A11552  11.770  11.910  20.820
  482BOLB   C1B11553  11.640  13.270  20.830
  482BOLB   C2B11554  11.590  12.960  21.200
  482BOLB   C3B11555  11.300  12.720  21.360
  482BOLB   C4B11556  11.040  12.520  21.670
  482BOLB   NC211557  11.250  10.140  22.510
  482BOLB   PO211558  10.930  10.290  22.250
  482BOLB   GL311559  10.870  10.620  21.790
  482BOLB   GL411560  10.510  10.640  21.740
  482BOLB   C1C11561  10.840  10.920  21.490
  482BOLB   C2C11562  11.170  10.990  21.140
  482BOLB   C3C11563  11.400  11.160  20.830
  482BOLB   C4C11564  11.670  11.530  20.850
  482BOLB   C1D11565  10.410  10.750  21.280
  482BOLB   C2D11566  10.740  10.820  20.990
  482BOLB   C3D11567  11.010  10.870  20.640
  482BOLB   C4D11568  11.170  11.110  20.340
  483BOLB   NC111569   5.640  25.770  19.360
  483BOLB   PO111570   5.370  25.840  19.070
  483BOLB   GL111571   5.240  26.060  19.420
  483BOLB   GL211572   5.600  26.220  19.580
  483BOLB   C1A11573   5.090  26.250  19.700
  483BOLB   C2A11574   4.700  26.280  19.960
  483BOLB   C3A11575   4.820  26.520  20.280
  483BOLB   C4A11576   4.650  26.540  20.630
  483BOLB   C1B11577   5.380  26.620  19.790
  483BOLB   C2B11578   5.040  26.790  19.940
  483BOLB   C3B11579   4.550  26.720  19.870
  483BOLB   C4B11580   4.280  26.520  20.030
  483BOLB   NC211581   3.230  27.810  21.510
  483BOLB   PO211582   3.150  28.110  21.260
  483BOLB   GL311583   3.410  28.030  20.960
  483BOLB   GL411584   3.330  27.870  20.660
  483BOLB   C1C11585   3.650  27.640  20.970
  483BOLB   C2C11586   3.760  27.230  21.080
  483BOLB   C3C11587   4.030  26.770  20.970
  483BOLB   C4C11588   4.330  26.560  20.880
  483BOLB   C1D11589   3.450  27.630  20.240
  483BOLB   C2D11590   3.710  27.350  19.940
  483BOLB   C3D11591   3.730  26.870  19.980
  483BOLB   C4D11592   3.520  26.600  20.090
  484BOLB   NC111593  14.240  18.940  21.330
  484BOLB   PO111594  14.520  19.050  21.750
  484BOLB   GL111595  14.660  18.990  22.220
  484BOLB   GL211596  14.390  18.850  22.260
  484BOLB   C1A11597  14.800  18.940  22.650
  484BOLB   C2A11598  15.070  19.050  22.980
  484BOLB   C3A11599  15.180  19.090  23.360
  484BOLB   C4A11600  15.120  19.390  23.790
  484BOLB   C1B11601  14.470  18.520  22.420
  484BOLB   C2B11602  14.700  18.460  22.750
  484BOLB   C3B11603  14.930  18.260  23.100
  484BOLB   C4B11604  15.200  18.100  23.280
  484BOLB   NC211605  16.160  20.180  25.400
  484BOLB   PO211606  16.220  20.650  25.590
  484BOLB   GL311607  15.870  20.540  25.410
  484BOLB   GL411608  15.610  20.790  25.380
  484BOLB   C1C11609  15.710  20.460  24.990
  484BOLB   C2C11610  15.510  20.160  24.700
  484BOLB   C3C11611  15.310  19.830  24.420
  484BOLB   C4C11612  15.060  19.630  24.160
  484BOLB   C1D11613  15.430  21.010  25.010
  484BOLB   C2D11614  15.250  21.040  24.600
  484BOLB   C3D11615  15.040  21.110  24.210
  484BOLB   C4D11616  14.850  20.920  23.930
  485BOLB   NC111617   5.590  19.080  21.970
  485BOLB   PO111618   5.310  19.340  21.760
  485BOLB   GL111619   5.150  19.320  22.150
  485BOLB   GL211620   5.250  19.100  22.360
  485BOLB   C1A11621   4.890  19.470  22.520
  485BOLB   C2A11622   4.710  19.530  22.830
  485BOLB   C3A11623   4.670  19.370  23.150
  485BOLB   C4A11624   4.630  19.080  23.520
  485BOLB   C1B11625   5.300  19.280  22.820
  485BOLB   C2B11626   5.250  19.000  23.160
  485BOLB   C3B11627   5.200  19.020  23.600
  485BOLB   C4B11628   5.040  19.060  23.910
  485BOLB   NC211629   4.000  19.800  25.480
  485BOLB   PO211630   3.650  19.700  25.280
  485BOLB   GL311631   3.830  19.510  24.960
  485BOLB   GL411632   4.150  19.480  25.140
  485BOLB   C1C11633   3.980  19.200  24.720
  485BOLB   C2C11634   4.030  18.820  24.520
  485BOLB   C3C11635   4.200  18.740  24.150
  485BOLB   C4C11636   4.480  18.750  23.830
  485BOLB   C1D11637   4.430  19.610  24.910
  485BOLB   C2D11638   4.560  19.680  24.500
  485BOLB   C3D11639   4.410  19.700  24.110
  485BOLB   C4D11640   4.220  20.030  24.000
  486BOLB   NC111641   8.420  14.380  20.520
  486BOLB   PO111642   8.110  14.880  20.700
  486BOLB   GL111643   7.960  14.720  21.120
  486BOLB   GL211644   7.840  15.010  21.230
  486BOLB   C1A11645   7.620  14.530  21.190
  486BOLB   C2A11646   7.320  14.330  21.100
  486BOLB   C3A11647   7.110  14.030  21.080
  486BOLB   C4A11648   6.870  13.740  21.290
  486BOLB   C1B11649   7.390  14.910  21.370
  486BOLB   C2B11650   7.100  14.720  21.710
  486BOLB   C3B11651   6.690  14.550  21.850
  486BOLB   C4B11652   6.230  14.450  21.950
  486BOLB   NC211653   6.700  12.560  23.640
  486BOLB   PO211654   6.720  12.240  23.310
  486BOLB   GL311655   6.890  12.260  22.940
  486BOLB   GL411656   6.740  12.100  22.600
  486BOLB   C1C11657   6.720  12.670  22.730
  486BOLB   C2C11658   6.720  12.870  22.290
  486BOLB   C3C11659   6.630  13.080  21.890
  486BOLB   C4C11660   6.720  13.460  21.700
  486BOLB   C1D11661   6.910  12.380  22.370
  486BOLB   C2D11662   6.950  12.510  22.000
  486BOLB   C3D11663   6.960  12.770  21.700
  486BOLB   C4D11664   6.810  13.040  21.320
  487BOLB   NC111665   9.280  13.250  19.280
  487BOLB   PO111666   8.820  13.460  19.280
  487BOLB   GL111667   8.640  13.150  19.630
  487BOLB   GL211668   8.230  13.180  19.690
  487BOLB   C1A11669   8.520  12.730  19.720
  487BOLB   C2A11670   8.580  12.590  20.110
  487BOLB   C3A11671   8.610  12.660  20.490
  487BOLB   C4A11672   8.320  12.730  20.830
  487BOLB   C1B11673   7.940  12.990  19.930
  487BOLB   C2B11674   7.640  12.740  20.000
  487BOLB   C3B11675   7.590  12.390  20.240
  487BOLB   C4B11676   7.510  12.320  20.730
  487BOLB   NC211677   8.100  11.680  23.100
  487BOLB   PO211678   8.300  11.450  22.790
  487BOLB   GL311679   8.270  11.750  22.470
  487BOLB   GL411680   8.050  11.730  22.230
  487BOLB   C1C11681   8.450  12.160  22.400
  487BOLB   C2C11682   8.650  12.350  22.010
  487BOLB   C3C11683   8.570  12.730  21.740
  487BOLB   C4C11684   8.330  12.710  21.280
  487BOLB   C1D11685   8.110  12.130  22.020
  487BOLB   C2D11686   8.170  12.540  22.020
  487BOLB   C3D11687   8.310  12.910  22.140
  487BOLB   C4D11688   8.020  13.290  22.280
  488BOLB   NC111689  19.190  16.270  12.500
  488BOLB   PO111690  19.180  16.320  12.020
  488BOLB   GL111691  19.460  16.420  11.790
  488BOLB   GL211692  19.540  16.010  11.680
  488BOLB   C1A11693  19.850  16.450  11.670
  488BOLB   C2A11694  20.210  16.640  11.630
  488BOLB   C3A11695  20.480  16.390  11.340
  488BOLB   C4A11696  20.550  16.360  10.930
  488BOLB   C1B11697  19.810  15.830  11.360
  488BOLB   C2B11698  19.930  15.470  11.200
  488BOLB   C3B11699  19.770  15.210  10.890
  488BOLB   C4B11700  19.470  15.250  10.490
  488BOLB   NC211701  23.090  15.420  10.250
  488BOLB   PO211702  22.900  15.860  10.110
  488BOLB   GL311703  22.380  15.950  10.190
  488BOLB   GL411704  22.120  15.790  10.010
  488BOLB   C1C11705  22.120  15.980  10.470
  488BOLB   C2C11706  21.690  15.930  10.630
  488BOLB   C3C11707  21.320  16.110  10.770
  488BOLB   C4C11708  20.930  16.250  10.740
  488BOLB   C1D11709  21.760  16.020  10.110
  488BOLB   C2D11710  21.370  16.150  10.260
  488BOLB   C3D11711  21.020  16.320  10.210
  488BOLB   C4D11712  20.490  16.180  10.230
  489BOLB   NC111713   2.590  19.370  18.840
  489BOLB   PO111714   2.380  19.030  18.550
  489BOLB   GL111715   2.120  19.000  18.960
  489BOLB   GL211716   2.170  19.210  19.100
  489BOLB   C1A11717   1.830  18.680  19.150
  489BOLB   C2A11718   1.670  18.430  19.440
  489BOLB   C3A11719   1.490  18.170  19.650
  489BOLB   C4A11720   1.290  17.890  19.670
  489BOLB   C1B11721   1.660  19.280  19.040
  489BOLB   C2B11722   1.270  18.960  19.200
  489BOLB   C3B11723   0.990  18.730  18.890
  489BOLB   C4B11724   0.860  18.400  18.690
  489BOLB   NC211725  35.580  16.780  20.420
  489BOLB   PO211726  35.660  16.960  20.800
  489BOLB   GL311727  36.100  17.010  20.660
  489BOLB   GL411728   0.010  16.920  20.790
  489BOLB   C1C11729  36.340  17.260  20.320
  489BOLB   C2C11730   0.300  17.620  20.190
  489BOLB   C3C11731   0.470  17.780  19.820
  489BOLB   C4C11732   0.890  17.960  19.720
  489BOLB   C1D11733   0.370  16.870  20.440
  489BOLB   C2D11734   0.750  17.010  20.360
  489BOLB   C3D11735   1.150  17.250  20.390
  489BOLB   C4D11736   1.550  17.410  20.300
  490BOLB   NC111737  13.320  19.390  22.430
  490BOLB   PO111738  13.550  19.830  22.350
  490BOLB   GL111739  13.830  19.960  22.670
  490BOLB   GL211740  13.680  19.840  22.890
  490BOLB   C1A11741  13.960  20.270  22.920
  490BOLB   C2A11742  14.340  20.300  23.170
  490BOLB   C3A11743  14.500  20.490  23.530
  490BOLB   C4A11744  14.560  20.530  23.990
  490BOLB   C1B11745  13.670  19.420  23.100
  490BOLB   C2B11746  13.850  19.320  23.400
  490BOLB   C3B11747  14.090  19.560  23.620
  490BOLB   C4B11748  14.170  19.080  23.830
  490BOLB   NC211749  14.810  20.160  26.110
  490BOLB   PO211750  14.790  20.560  26.380
  490BOLB   GL311751  14.520  20.520  25.950
  490BOLB   GL411752  14.140  20.740  25.870
  490BOLB   C1C11753  14.580  20.280  25.460
  490BOLB   C2C11754  14.600  20.320  25.040
  490BOLB   C3C11755  14.550  20.620  24.800
  490BOLB   C4C11756  14.680  20.780  24.400
  490BOLB   C1D11757  13.940  20.420  25.650
  490BOLB   C2D11758  13.810  20.380  25.300
  490BOLB   C3D11759  13.820  19.930  25.040
  490BOLB   C4D11760  13.630  19.730  24.700
  491BOLB   NC111761  18.570  20.940  16.110
  491BOLB   PO111762  18.960  21.130  16.080
  491BOLB   GL111763  19.380  21.440  16.170
  491BOLB   GL211764  19.410  21.670  16.420
  491BOLB   C1A11765  19.820  21.530  16.220
  491BOLB   C2A11766  20.180  21.770  16.440
  491BOLB   C3A11767  20.690  21.830  16.280
  491BOLB   C4A11768  21.240  21.920  16.300
  491BOLB   C1B11769  19.720  21.740  16.670
  491BOLB   C2B11770  20.160  21.940  16.900
  491BOLB   C3B11771  20.610  21.940  16.970
  491BOLB   C4B11772  20.970  21.800  17.090
  491BOLB   NC211773  23.450  22.710  17.820
  491BOLB   PO211774  23.170  22.860  17.400
  491BOLB   GL311775  22.820  22.730  17.110
  491BOLB   GL411776  22.990  22.590  16.750
  491BOLB   C1C11777  22.570  22.440  16.870
  491BOLB   C2C11778  22.290  22.320  16.540
  491BOLB   C3C11779  21.890  22.350  16.460
  491BOLB   C4C11780  21.550  22.170  16.510
  491BOLB   C1D11781  22.950  22.330  16.410
  491BOLB   C2D11782  22.760  22.350  15.970
  491BOLB   C3D11783  22.340  22.220  15.690
  491BOLB   C4D11784  22.200  22.070  15.340
  492BOLB   NC111785   7.400  18.620  22.600
  492BOLB   PO111786   7.720  18.380  22.680
  492BOLB   GL111787   7.870  18.500  23.050
  492BOLB   GL211788   8.100  18.270  23.040
  492BOLB   C1A11789   7.870  18.410  23.460
  492BOLB   C2A11790   8.100  18.280  23.860
  492BOLB   C3A11791   7.960  18.250  24.280
  492BOLB   C4A11792   7.760  18.290  24.620
  492BOLB   C1B11793   7.990  17.940  23.320
  492BOLB   C2B11794   7.870  17.770  23.660
  492BOLB   C3B11795   8.040  17.720  24.100
  492BOLB   C4B11796   7.910  17.610  24.490
  492BOLB   NC211797   8.260  16.570  26.680
  492BOLB   PO211798   8.050  16.870  26.420
  492BOLB   GL311799   8.170  17.360  26.190
  492BOLB   GL411800   8.490  17.460  26.280
  492BOLB   C1C11801   7.780  17.510  25.960
  492BOLB   C2C11802   7.530  17.490  25.590
  492BOLB   C3C11803   7.510  17.660  25.220
  492BOLB   C4C11804   7.580  17.960  24.840
  492BOLB   C1D11805   8.440  17.400  25.810
  492BOLB   C2D11806   8.070  17.280  25.480
  492BOLB   C3D11807   7.980  17.110  25.110
  492BOLB   C4D11808   7.960  17.150  24.640
  493BOLB   NC111809   4.910  13.720  11.640
  493BOLB   PO111810   5.240  13.590  11.350
  493BOLB   GL111811   5.050  13.150  11.320
  493BOLB   GL211812   5.320  12.860  11.400
  493BOLB   C1A11813   4.880  12.740  11.160
  493BOLB   C2A11814   4.750  12.400  10.930
  493BOLB   C3A11815   4.790  11.960  11.100
  493BOLB   C4A11816   4.520  11.640  11.220
  493BOLB   C1B11817   5.300  12.510  11.110
  493BOLB   C2B11818   5.170  12.100  10.860
  493BOLB   C3B11819   4.970  11.820  10.650
  493BOLB   C4B11820   4.650  11.400  10.640
  493BOLB   NC211821   2.820   9.730  11.610
  493BOLB   PO211822   2.610  10.140  11.340
  493BOLB   GL311823   2.890  10.460  11.140
  493BOLB   GL411824   2.710  10.690  11.010
  493BOLB   C1C11825   3.310  10.520  10.980
  493BOLB   C2C11826   3.670  10.530  11.140
  493BOLB   C3C11827   4.040  10.760  11.220
  493BOLB   C4C11828   4.320  11.230  11.240
  493BOLB   C1D11829   2.740  11.260  10.970
  493BOLB   C2D11830   2.770  11.700  10.920
  493BOLB   C3D11831   3.000  11.980  10.780
  493BOLB   C4D11832   3.400  12.150  10.670
  494BOLB   NC111833  15.550  19.570  20.800
  494BOLB   PO111834  15.310  19.660  21.210
  494BOLB   GL111835  15.500  19.780  21.710
  494BOLB   GL211836  15.410  19.550  21.950
  494BOLB   C1A11837  15.740  19.960  22.050
  494BOLB   C2A11838  16.010  19.900  22.390
  494BOLB   C3A11839  16.330  19.820  22.690
  494BOLB   C4A11840  16.350  20.130  22.960
  494BOLB   C1B11841  15.780  19.450  22.200
  494BOLB   C2B11842  16.010  19.290  22.600
  494BOLB   C3B11843  16.260  18.850  22.780
  494BOLB   C4B11844  16.320  18.700  23.310
  494BOLB   NC211845  17.780  20.740  25.230
  494BOLB   PO211846  17.300  20.620  25.150
  494BOLB   GL311847  16.960  20.720  24.860
  494BOLB   GL411848  16.650  20.640  24.900
  494BOLB   C1C11849  16.930  20.770  24.420
  494BOLB   C2C11850  16.910  20.400  24.120
  494BOLB   C3C11851  16.690  20.330  23.750
  494BOLB   C4C11852  16.510  20.180  23.380
  494BOLB   C1D11853  16.290  20.340  24.770
  494BOLB   C2D11854  15.960  19.950  24.760
  494BOLB   C3D11855  15.670  19.600  24.840
  494BOLB   C4D11856  15.320  19.370  24.630
  495BOLB   NC111857   2.510  16.120  15.310
  495BOLB   PO111858   2.180  15.770  15.440
  495BOLB   GL111859   1.700  15.620  15.490
  495BOLB   GL211860   1.490  15.790  15.590
  495BOLB   C1A11861   1.410  15.300  15.420
  495BOLB   C2A11862   1.040  15.130  15.220
  495BOLB   C3A11863   0.610  15.390  14.940
  495BOLB   C4A11864   0.230  15.510  14.800
  495BOLB   C1B11865   1.140  15.600  15.740
  495BOLB   C2B11866   0.720  15.610  15.910
  495BOLB   C3B11867   0.580  15.430  16.300
  495BOLB   C4B11868   0.570  15.570  16.800
  495BOLB   NC211869  34.380  14.920  14.950
  495BOLB   PO211870  34.560  15.040  14.570
  495BOLB   GL311871  34.970  15.220  14.780
  495BOLB   GL411872  35.310  15.100  14.690
  495BOLB   C1C11873  35.200  15.580  14.980
  495BOLB   C2C11874  35.570  15.740  15.100
  495BOLB   C3C11875  35.910  15.870  15.160
  495BOLB   C4C11876  36.240  15.820  14.860
  495BOLB   C1D11877  35.720  15.280  14.400
  495BOLB   C2D11878  36.170  15.350  14.360
  495BOLB   C3D11879   0.110  15.070  14.530
  495BOLB   C4D11880   0.580  14.880  14.680
  496BOLB   NC111881   4.040  14.070  14.530
  496BOLB   PO111882   4.260  13.840  14.280
  496BOLB   GL111883   3.890  13.580  14.340
  496BOLB   GL211884   3.850  13.390  14.670
  496BOLB   C1A11885   3.560  13.270  14.320
  496BOLB   C2A11886   3.470  12.840  14.410
  496BOLB   C3A11887   3.100  12.570  14.390
  496BOLB   C4A11888   2.620  12.390  14.320
  496BOLB   C1B11889   3.510  13.220  14.920
  496BOLB   C2B11890   3.050  13.070  15.020
  496BOLB   C3B11891   2.850  13.060  15.330
  496BOLB   C4B11892   2.660  13.310  15.580
  496BOLB   NC211893   1.000  10.600  13.270
  496BOLB   PO211894   1.030  10.960  13.070
  496BOLB   GL311895   1.330  11.280  13.300
  496BOLB   GL411896   0.940  11.430  13.310
  496BOLB   C1C11897   1.730  11.460  13.400
  496BOLB   C2C11898   2.020  11.670  13.700
  496BOLB   C3C11899   2.240  11.760  14.010
  496BOLB   C4C11900   2.420  12.110  14.230
  496BOLB   C1D11901   1.290  11.750  13.410
  496BOLB   C2D11902   1.650  12.040  13.600
  496BOLB   C3D11903   1.990  12.390  13.660
  496BOLB   C4D11904   1.870  12.820  13.580
  497BOLB   NC111905  10.070  24.870  20.200
  497BOLB   PO111906  10.200  24.920  20.660
  497BOLB   GL111907  10.150  25.270  21.000
  497BOLB   GL211908  10.520  25.420  21.000
  497BOLB   C1A11909  10.250  25.510  21.430
  497BOLB   C2A11910  10.280  25.660  21.860
  497BOLB   C3A11911  10.430  25.660  22.180
  497BOLB   C4A11912  10.310  25.990  22.480
  497BOLB   C1B11913  10.450  25.920  21.160
  497BOLB   C2B11914  10.680  26.280  21.350
  497BOLB   C3B11915  10.980  26.330  21.660
  497BOLB   C4B11916  11.160  26.710  21.670
  497BOLB   NC211917  10.670  28.000  24.500
  497BOLB   PO211918  10.880  27.870  24.130
  497BOLB   GL311919  10.660  27.660  23.860
  497BOLB   GL411920  10.790  27.590  23.580
  497BOLB   C1C11921  10.440  27.230  23.720
  497BOLB   C2C11922  10.310  26.890  23.420
  497BOLB   C3C11923  10.120  26.500  23.150
  497BOLB   C4C11924  10.250  26.290  22.710
  497BOLB   C1D11925  10.930  27.190  23.360
  497BOLB   C2D11926  11.250  26.930  23.110
  497BOLB   C3D11927  11.690  26.880  23.270
  497BOLB   C4D11928  12.020  26.700  23.480
  498BOLB   NC111929  16.720  21.190  19.890
  498BOLB   PO111930  16.470  21.530  20.180
  498BOLB   GL111931  16.550  21.550  20.600
  498BOLB   GL211932  16.630  21.210  20.740
  498BOLB   C1A11933  16.860  21.590  20.960
  498BOLB   C2A11934  17.100  21.340  21.190
  498BOLB   C3A11935  17.210  21.210  21.710
  498BOLB   C4A11936  17.400  21.330  22.080
  498BOLB   C1B11937  16.690  21.130  21.220
  498BOLB   C2B11938  16.740  21.080  21.670
  498BOLB   C3B11939  16.770  21.260  22.010
  498BOLB   C4B11940  16.530  21.280  22.490
  498BOLB   NC211941  18.350  20.740  24.150
  498BOLB   PO211942  18.220  21.120  24.200
  498BOLB   GL311943  17.850  21.050  23.980
  498BOLB   GL411944  17.750  21.240  23.790
  498BOLB   C1C11945  17.410  20.870  23.650
  498BOLB   C2C11946  17.190  21.150  23.400
  498BOLB   C3C11947  17.160  21.310  22.940
  498BOLB   C4C11948  17.500  21.260  22.590
  498BOLB   C1D11949  17.290  21.390  23.860
  498BOLB   C2D11950  17.240  21.720  23.610
  498BOLB   C3D11951  16.950  21.670  23.260
  498BOLB   C4D11952  16.390  21.570  23.260
  499BOLB   NC111953  10.730  22.190  21.950
  499BOLB   PO111954  10.850  22.460  22.320
  499BOLB   GL111955  10.960  22.740  22.760
  499BOLB   GL211956  11.090  23.010  22.760
  499BOLB   C1A11957  10.920  22.830  23.200
  499BOLB   C2A11958  11.020  22.810  23.680
  499BOLB   C3A11959  11.360  22.860  23.710
  499BOLB   C4A11960  11.600  22.910  24.040
  499BOLB   C1B11961  11.400  22.900  23.120
  499BOLB   C2B11962  11.740  22.670  23.440
  499BOLB   C3B11963  11.840  22.510  23.910
  499BOLB   C4B11964  11.700  22.230  24.280
  499BOLB   NC211965  11.790  23.450  26.490
  499BOLB   PO211966  11.510  23.180  26.440
  499BOLB   GL311967  11.570  22.960  26.060
  499BOLB   GL411968  11.710  22.690  26.140
  499BOLB   C1C11969  11.610  22.920  25.550
  499BOLB   C2C11970  11.550  22.830  25.210
  499BOLB   C3C11971  11.570  22.710  24.840
  499BOLB   C4C11972  11.490  22.730  24.460
  499BOLB   C1D11973  11.860  22.520  25.690
  499BOLB   C2D11974  11.940  22.570  25.270
  499BOLB   C3D11975  11.930  22.420  24.840
  499BOLB   C4D11976  11.570  22.140  24.730
  500BOLB   NC111977  10.680  15.220  21.320
  500BOLB   PO111978  10.630  15.630  21.290
  500BOLB   GL111979  10.770  15.480  21.750
  500BOLB   GL211980  10.900  15.300  21.960
  500BOLB   C1A11981  10.560  15.620  22.160
  500BOLB   C2A11982  10.670  15.550  22.590
  500BOLB   C3A11983  10.690  15.700  23.030
  500BOLB   C4A11984  10.500  15.570  23.390
  500BOLB   C1B11985  10.820  15.150  22.300
  500BOLB   C2B11986  10.750  15.080  22.710
  500BOLB   C3B11987  10.810  15.190  23.090
  500BOLB   C4B11988  10.760  15.140  23.530
  500BOLB   NC211989  10.610  15.120  25.380
  500BOLB   PO211990  10.400  15.350  25.650
  500BOLB   GL311991  10.140  15.510  25.360
  500BOLB   GL411992  10.220  15.300  25.070
  500BOLB   C1C11993  10.090  15.860  25.020
  500BOLB   C2C11994  10.210  15.780  24.630
  500BOLB   C3C11995  10.290  15.590  24.290
  500BOLB   C4C11996  10.410  15.520  23.820
  500BOLB   C1D11997   9.990  15.300  24.760
  500BOLB   C2D11998   9.780  15.640  24.470
  500BOLB   C3D11999   9.520  15.930  24.290
  500BOLB   C4D12000   9.280  16.300  24.430
  501BOLB   NC112001  12.370  17.170  22.320
  501BOLB   PO112002  12.450  17.560  22.430
  501BOLB   GL112003  12.290  17.390  22.750
  501BOLB   GL212004  12.090  17.640  22.890
  501BOLB   C1A12005  12.400  17.290  23.140
  501BOLB   C2A12006  12.310  17.360  23.570
  501BOLB   C3A12007  12.330  17.510  24.030
  501BOLB   C4A12008  12.330  17.930  24.200
  501BOLB   C1B12009  11.950  17.590  23.200
  501BOLB   C2B12010  11.870  17.700  23.650
  501BOLB   C3B12011  11.800  17.860  24.080
  501BOLB   C4B12012  11.840  17.620  24.540
  501BOLB   NC212013  11.950  17.390  26.860
  501BOLB   PO212014  12.160  17.530  26.520
  501BOLB   GL312015  11.940  17.730  26.150
  501BOLB   GL412016  11.790  17.840  26.250
  501BOLB   C1C12017  12.070  17.790  25.830
  501BOLB   C2C12018  11.910  17.680  25.430
  501BOLB   C3C12019  12.050  17.880  24.990
  501BOLB   C4C12020  12.170  18.070  24.630
  501BOLB   C1D12021  11.540  17.800  25.920
  501BOLB   C2D12022  11.450  17.930  25.450
  501BOLB   C3D12023  11.550  18.050  25.070
  501BOLB   C4D12024  11.650  18.140  24.590
  502BOLB   NC112025  18.710  16.460  18.310
  502BOLB   PO112026  18.430  16.170  18.400
  502BOLB   GL112027  18.600  16.310  18.810
  502BOLB   GL212028  18.880  16.140  18.770
  502BOLB   C1A12029  18.660  16.160  19.250
  502BOLB   C2A12030  18.710  15.880  19.610
  502BOLB   C3A12031  18.910  15.600  20.020
  502BOLB   C4A12032  18.910  15.330  20.360
  502BOLB   C1B12033  18.940  15.810  19.110
  502BOLB   C2B12034  18.970  15.490  19.420
  502BOLB   C3B12035  18.890  15.050  19.530
  502BOLB   C4B12036  18.850  14.750  19.340
  502BOLB   NC212037  19.410  13.230  22.160
  502BOLB   PO212038  19.080  13.410  21.970
  502BOLB   GL312039  19.080  13.660  21.610
  502BOLB   GL412040  18.800  13.650  21.460
  502BOLB   C1C12041  19.090  13.930  21.140
  502BOLB   C2C12042  19.200  14.380  21.160
  502BOLB   C3C12043  19.220  14.700  20.910
  502BOLB   C4C12044  18.950  15.010  20.700
  502BOLB   C1D12045  18.630  13.950  21.060
  502BOLB   C2D12046  18.710  13.870  20.580
  502BOLB   C3D12047  18.690  13.750  20.190
  502BOLB   C4D12048  18.540  13.970  19.800
  503BOLB   NC112049  16.570  14.410   9.800
  503BOLB   PO112050  16.970  14.350  10.060
  503BOLB   GL112051  17.080  14.110   9.650
  503BOLB   GL212052  17.480  14.150   9.670
  503BOLB   C1A12053  17.150  13.970   9.230
  503BOLB   C2A12054  17.420  13.650   9.010
  503BOLB   C3A12055  17.820  13.540   8.850
  503BOLB   C4A12056  17.570  13.390   8.500
  503BOLB   C1B12057  17.590  13.820   9.490
  503BOLB   C2B12058  17.900  13.460   9.320
  503BOLB   C3B12059  17.730  13.070   9.120
  503BOLB   C4B12060  17.920  12.770   9.000
  503BOLB   NC212061  19.760  12.780   7.340
  503BOLB   PO212062  19.370  12.820   7.120
  503BOLB   GL312063  19.070  13.150   7.210
  503BOLB   GL412064  19.170  13.480   7.030
  503BOLB   C1C12065  18.710  13.440   7.320
  503BOLB   C2C12066  18.330  13.430   7.490
  503BOLB   C3C12067  18.040  13.360   7.680
  503BOLB   C4C12068  17.640  13.410   8.010
  503BOLB   C1D12069  19.090  13.810   7.350
  503BOLB   C2D12070  18.690  13.860   7.550
  503BOLB   C3D12071  18.400  14.050   7.820
  503BOLB   C4D12072  18.260  14.120   8.270
  504BOLB   NC112073  12.520  24.040  21.450
  504BOLB   PO112074  12.850  24.150  21.630
  504BOLB   GL112075  12.690  24.360  21.900
  504BOLB   GL212076  12.470  24.260  22.040
  504BOLB   C1A12077  12.890  24.590  22.210
  504BOLB   C2A12078  12.960  25.020  22.440
  504BOLB   C3A12079  12.690  25.300  22.550
  504BOLB   C4A12080  12.450  25.290  22.980
  504BOLB   C1B12081  12.470  24.400  22.470
  504BOLB   C2B12082  12.710  24.320  22.680
  504BOLB   C3B12083  12.940  24.330  22.990
  504BOLB   C4B12084  12.770  24.230  23.430
  504BOLB   NC212085  13.690  25.210  25.600
  504BOLB   PO212086  13.490  25.260  25.200
  504BOLB   GL312087  13.270  25.030  24.950
  504BOLB   GL412088  13.540  24.910  24.720
  504BOLB   C1C12089  13.120  25.050  24.520
  504BOLB   C2C12090  12.830  25.130  24.320
  504BOLB   C3C12091  12.560  24.990  24.050
  504BOLB   C4C12092  12.460  25.160  23.510
  504BOLB   C1D12093  13.580  24.550  24.580
  504BOLB   C2D12094  13.750  24.190  24.580
  504BOLB   C3D12095  13.860  23.820  24.710
  504BOLB   C4D12096  14.050  23.470  24.920
  505BOLB   NC112097  18.020  24.100  14.940
  505BOLB   PO112098  18.020  24.630  14.810
  505BOLB   GL112099  18.140  24.960  14.540
  505BOLB   GL212100  17.990  25.180  14.510
  505BOLB   C1A12101  18.520  25.040  14.380
  505BOLB   C2A12102  18.890  25.120  14.280
  505BOLB   C3A12103  19.150  25.230  13.890
  505BOLB   C4A12104  19.550  25.420  13.680
  505BOLB   C1B12105  18.420  25.360  14.680
  505BOLB   C2B12106  18.750  25.470  14.580
  505BOLB   C3B12107  18.840  25.860  14.740
  505BOLB   C4B12108  19.140  26.160  15.030
  505BOLB   NC212109  22.000  26.240  14.040
  505BOLB   PO212110  21.710  26.160  14.380
  505BOLB   GL312111  21.300  26.350  14.280
  505BOLB   GL412112  21.210  26.430  14.490
  505BOLB   C1C12113  20.940  26.300  14.040
  505BOLB   C2C12114  20.490  26.190  13.990
  505BOLB   C3C12115  20.160  26.010  13.850
  505BOLB   C4C12116  19.910  25.770  13.670
  505BOLB   C1D12117  20.960  26.180  14.700
  505BOLB   C2D12118  20.600  25.980  14.740
  505BOLB   C3D12119  20.120  25.830  14.840
  505BOLB   C4D12120  19.820  25.550  14.920
  506BOLB   NC112121  12.340  19.000  22.540
  506BOLB   PO112122  12.070  18.810  22.950
  506BOLB   GL112123  12.410  18.970  23.230
  506BOLB   GL212124  12.430  19.250  23.040
  506BOLB   C1A12125  12.810  18.940  23.580
  506BOLB   C2A12126  13.140  18.820  23.780
  506BOLB   C3A12127  13.280  18.970  24.080
  506BOLB   C4A12128  13.320  19.070  24.520
  506BOLB   C1B12129  12.490  19.470  23.520
  506BOLB   C2B12130  12.410  19.480  24.020
  506BOLB   C3B12131  12.500  19.590  24.380
  506BOLB   C4B12132  12.690  20.050  24.580
  506BOLB   NC212133  14.410  19.370  26.680
  506BOLB   PO212134  14.450  19.620  26.220
  506BOLB   GL312135  14.030  19.660  26.050
  506BOLB   GL412136  13.760  19.640  26.250
  506BOLB   C1C12137  13.870  19.320  25.780
  506BOLB   C2C12138  13.530  19.290  25.440
  506BOLB   C3C12139  13.320  19.480  25.070
  506BOLB   C4C12140  13.160  19.410  24.690
  506BOLB   C1D12141  13.360  19.620  26.010
  506BOLB   C2D12142  13.210  19.650  25.580
  506BOLB   C3D12143  12.910  19.430  25.320
  506BOLB   C4D12144  12.860  19.160  25.020
  507BOLB   NC112145   7.490  24.780  20.780
  507BOLB   PO112146   7.600  24.670  21.230
  507BOLB   GL112147   7.480  24.970  21.530
  507BOLB   GL212148   7.660  25.000  21.760
  507BOLB   C1A12149   7.280  25.390  21.650
  507BOLB   C2A12150   7.250  25.790  21.560
  507BOLB   C3A12151   7.260  26.170  21.740
  507BOLB   C4A12152   7.620  26.480  21.810
  507BOLB   C1B12153   7.830  25.480  21.870
  507BOLB   C2B12154   7.660  25.780  22.220
  507BOLB   C3B12155   7.540  26.220  22.270
  507BOLB   C4B12156   7.480  26.650  22.400
  507BOLB   NC212157   6.400  28.670  22.700
  507BOLB   PO212158   6.410  28.560  22.240
  507BOLB   GL312159   6.820  28.230  22.240
  507BOLB   GL412160   6.700  28.020  22.010
  507BOLB   C1C12161   7.130  27.840  22.130
  507BOLB   C2C12162   7.430  27.590  22.000
  507BOLB   C3C12163   7.660  27.200  21.970
  507BOLB   C4C12164   7.740  26.870  21.840
  507BOLB   C1D12165   6.650  27.680  21.840
  507BOLB   C2D12166   6.780  27.770  21.430
  507BOLB   C3D12167   6.930  27.810  21.080
  507BOLB   C4D12168   7.170  27.870  20.650
  508BOLB   NC112169  18.260  19.600  18.750
  508BOLB   PO112170  18.530  19.830  18.460
  508BOLB   GL112171  18.980  19.830  18.570
  508BOLB   GL212172  19.080  19.540  18.630
  508BOLB   C1A12173  19.270  20.130  18.770
  508BOLB   C2A12174  19.600  20.100  19.050
  508BOLB   C3A12175  19.960  20.120  19.260
  508BOLB   C4A12176  20.210  20.110  19.680
  508BOLB   C1B12177  19.360  19.680  18.890
  508BOLB   C2B12178  19.790  19.600  19.050
  508BOLB   C3B12179  19.920  19.300  19.130
  508BOLB   C4B12180  19.820  18.920  18.880
  508BOLB   NC212181  20.640  20.170  22.120
  508BOLB   PO212182  20.720  20.590  21.960
  508BOLB   GL312183  20.500  20.450  21.670
  508BOLB   GL412184  20.580  20.170  21.540
  508BOLB   C1C12185  20.110  20.270  21.390
  508BOLB   C2C12186  20.080  20.220  21.000
  508BOLB   C3C12187  20.270  20.190  20.580
  508BOLB   C4C12188  20.270  20.150  20.100
  508BOLB   C1D12189  20.370  19.870  21.310
  508BOLB   C2D12190  20.090  19.680  21.040
  508BOLB   C3D12191  19.920  19.650  20.720
  508BOLB   C4D12192  19.820  19.970  20.420
  509BOLB   NC112193   6.640  17.710  21.540
  509BOLB   PO112194   6.350  17.990  21.800
  509BOLB   GL112195   6.050  17.780  22.080
  509BOLB   GL212196   5.920  17.990  22.440
  509BOLB   C1A12197   5.790  17.470  22.280
  509BOLB   C2A12198   5.610  17.140  22.510
  509BOLB   C3A12199   5.220  16.980  22.800
  509BOLB   C4A12200   4.720  16.810  22.970
  509BOLB   C1B12201   5.730  17.740  22.770
  509BOLB   C2B12202   5.690  17.640  23.170
  509BOLB   C3B12203   5.600  17.410  23.480
  509BOLB   C4B12204   5.510  17.140  23.710
  509BOLB   NC212205   2.950  17.330  24.180
  509BOLB   PO212206   3.030  16.850  24.060
  509BOLB   GL312207   3.160  16.660  23.660
  509BOLB   GL412208   3.540  16.710  23.650
  509BOLB   C1C12209   3.280  16.510  23.200
  509BOLB   C2C12210   3.530  16.500  22.940
  509BOLB   C3C12211   3.880  16.710  22.800
  509BOLB   C4C12212   4.330  16.830  22.970
  509BOLB   C1D12213   3.770  16.790  23.320
  509BOLB   C2D12214   3.940  17.130  23.110
  509BOLB   C3D12215   4.110  17.190  22.630
  509BOLB   C4D12216   4.280  17.320  22.150
  510BOLB   NC112217  17.070  24.350  11.230
  510BOLB   PO112218  16.880  24.560  11.020
  510BOLB   GL112219  17.160  24.780  11.060
  510BOLB   GL212220  17.370  24.710  11.280
  510BOLB   C1A12221  17.380  25.170  11.260
  510BOLB   C2A12222  17.550  25.560  11.140
  510BOLB   C3A12223  17.510  25.920  10.750
  510BOLB   C4A12224  17.680  26.230  10.420
  510BOLB   C1B12225  17.630  24.610  11.100
  510BOLB   C2B12226  18.100  24.760  11.090
  510BOLB   C3B12227  18.390  25.050  11.210
  510BOLB   C4B12228  18.510  25.420  10.960
  510BOLB   NC212229  17.480  28.380   8.500
  510BOLB   PO212230  17.230  27.960   8.650
  510BOLB   GL312231  17.090  27.490   8.890
  510BOLB   GL412232  17.000  27.200   8.710
  510BOLB   C1C12233  17.270  27.330   9.220
  510BOLB   C2C12234  17.520  27.220   9.520
  510BOLB   C3C12235  17.570  26.960   9.950
  510BOLB   C4C12236  17.520  26.510   9.980
  510BOLB   C1D12237  16.760  27.010   9.070
  510BOLB   C2D12238  16.470  27.100   9.420
  510BOLB   C3D12239  16.300  27.260   9.810
  510BOLB   C4D12240  16.070  27.730   9.850
  511BOLB   NC112241  17.330  13.130  15.700
  511BOLB   PO112242  17.170  12.960  16.070
  511BOLB   GL112243  17.370  12.610  15.940
  511BOLB   GL212244  17.280  12.320  15.710
  511BOLB   C1A12245  17.650  12.240  16.050
  511BOLB   C2A12246  18.060  12.040  15.860
  511BOLB   C3A12247  18.440  11.870  15.970
  511BOLB   C4A12248  18.440  11.500  16.200
  511BOLB   C1B12249  17.420  11.860  15.850
  511BOLB   C2B12250  17.400  11.430  15.840
  511BOLB   C3B12251  17.390  10.970  15.720
  511BOLB   C4B12252  17.080  10.680  15.830
  511BOLB   NC212253  19.950   9.610  16.810
  511BOLB   PO212254  20.170   9.890  16.510
  511BOLB   GL312255  19.950  10.130  16.570
  511BOLB   GL412256  19.610   9.990  16.440
  511BOLB   C1C12257  19.660  10.460  16.650
  511BOLB   C2C12258  19.290  10.800  16.520
  511BOLB   C3C12259  19.060  11.080  16.260
  511BOLB   C4C12260  18.720  11.360  16.360
  511BOLB   C1D12261  19.320  10.160  16.370
  511BOLB   C2D12262  19.130  10.540  16.170
  511BOLB   C3D12263  18.780  10.670  16.050
  511BOLB   C4D12264  18.550  10.900  16.260
  512BOLB   NC112265  15.340  16.360  20.860
  512BOLB   PO112266  15.810  16.480  20.730
  512BOLB   GL112267  16.100  16.140  20.880
  512BOLB   GL212268  16.410  15.970  20.820
  512BOLB   C1A12269  16.250  15.980  21.340
  512BOLB   C2A12270  16.240  15.660  21.580
  512BOLB   C3A12271  16.390  15.490  21.900
  512BOLB   C4A12272  16.550  15.590  22.290
  512BOLB   C1B12273  16.530  15.640  21.110
  512BOLB   C2B12274  16.840  15.420  21.240
  512BOLB   C3B12275  17.190  15.450  21.480
  512BOLB   C4B12276  17.520  15.590  21.890
  512BOLB   NC212277  18.430  15.240  24.270
  512BOLB   PO212278  18.080  15.490  24.220
  512BOLB   GL312279  17.940  15.670  23.890
  512BOLB   GL412280  17.790  15.990  23.810
  512BOLB   C1C12281  17.650  15.580  23.480
  512BOLB   C2C12282  17.660  15.400  23.110
  512BOLB   C3C12283  17.280  15.480  22.730
  512BOLB   C4C12284  17.020  15.540  22.440
  512BOLB   C1D12285  17.670  16.250  23.550
  512BOLB   C2D12286  17.640  16.160  23.190
  512BOLB   C3D12287  17.450  16.420  22.820
  512BOLB   C4D12288  17.280  16.580  22.490
  513BOLB   NC112289  16.170  14.500  19.700
  513BOLB   PO112290  15.680  14.430  19.500
  513BOLB   GL112291  15.820  14.060  19.680
  513BOLB   GL212292  15.540  14.020  19.840
  513BOLB   C1A12293  16.020  13.670  19.810
  513BOLB   C2A12294  16.040  13.390  20.220
  513BOLB   C3A12295  16.210  13.100  20.510
  513BOLB   C4A12296  16.290  12.970  20.840
  513BOLB   C1B12297  15.600  13.750  20.210
  513BOLB   C2B12298  15.300  13.440  20.340
  513BOLB   C3B12299  15.130  13.110  20.630
  513BOLB   C4B12300  14.880  12.660  20.570
  513BOLB   NC212301  17.420  12.730  23.020
  513BOLB   PO212302  17.640  12.450  22.880
  513BOLB   GL312303  17.550  12.570  22.500
  513BOLB   GL412304  17.730  12.670  22.350
  513BOLB   C1C12305  17.260  12.520  22.100
  513BOLB   C2C12306  16.950  12.780  21.760
  513BOLB   C3C12307  16.830  12.850  21.420
  513BOLB   C4C12308  16.640  12.980  21.020
  513BOLB   C1D12309  17.480  12.980  22.090
  513BOLB   C2D12310  17.290  13.320  21.980
  513BOLB   C3D12311  16.950  13.350  21.660
  513BOLB   C4D12312  16.900  13.380  21.190
  514BOLB   NC112313  19.740  18.620  15.120
  514BOLB   PO112314  19.830  18.620  14.700
  514BOLB   GL112315  20.200  18.580  14.410
  514BOLB   GL212316  20.190  18.270  14.290
  514BOLB   C1A12317  20.600  18.700  14.380
  514BOLB   C2A12318  21.030  18.800  14.340
  514BOLB   C3A12319  21.420  18.940  14.370
  514BOLB   C4A12320  21.880  19.010  14.340
  514BOLB   C1B12321  20.680  18.060  14.370
  514BOLB   C2B12322  20.990  17.800  14.520
  514BOLB   C3B12323  21.140  17.500  14.810
  514BOLB   C4B12324  21.320  17.520  15.220
  514BOLB   NC212325  24.070  19.800  14.290
  514BOLB   PO212326  23.980  20.250  14.430
  514BOLB   GL312327  23.600  20.000  14.250
  514BOLB   GL412328  23.570  19.730  14.300
  514BOLB   C1C12329  23.140  19.970  14.080
  514BOLB   C2C12330  22.700  19.700  14.110
  514BOLB   C3C12331  22.570  19.290  14.260
  514BOLB   C4C12332  22.260  18.990  14.310
  514BOLB   C1D12333  23.170  19.480  14.290
  514BOLB   C2D12334  22.910  19.280  14.680
  514BOLB   C3D12335  22.570  19.080  14.750
  514BOLB   C4D12336  22.570  18.710  14.680
  515BOLB   NC112337   2.250  21.570  18.010
  515BOLB   PO112338   2.120  21.870  17.750
  515BOLB   GL112339   1.760  22.200  17.880
  515BOLB   GL212340   1.900  22.460  18.040
  515BOLB   C1A12341   1.360  22.420  17.950
  515BOLB   C2A12342   1.160  22.820  18.110
  515BOLB   C3A12343   0.890  22.790  18.490
  515BOLB   C4A12344   0.780  22.980  18.880
  515BOLB   C1B12345   1.700  22.800  18.250
  515BOLB   C2B12346   1.420  22.940  18.610
  515BOLB   C3B12347   1.250  23.210  18.850
  515BOLB   C4B12348   1.180  23.240  19.270
  515BOLB   NC212349  35.940  24.110  20.620
  515BOLB   PO212350  35.780  24.010  20.260
  515BOLB   GL312351  36.110  23.900  20.120
  515BOLB   GL412352  36.230  23.750  20.380
  515BOLB   C1C12353   0.230  23.760  20.040
  515BOLB   C2C12354   0.410  23.450  20.000
  515BOLB   C3C12355   0.450  23.150  19.670
  515BOLB   C4C12356   0.690  22.980  19.350
  515BOLB   C1D12357  36.290  23.410  20.080
  515BOLB   C2D12358  36.290  23.320  19.620
  515BOLB   C3D12359   0.170  23.200  19.220
  515BOLB   C4D12360   0.320  23.270  18.790
  516BOLB   NC112361   7.140  22.610  22.080
  516BOLB   PO112362   6.880  22.710  21.960
  516BOLB   GL112363   6.810  22.730  22.470
  516BOLB   GL212364   6.900  23.020  22.730
  516BOLB   C1A12365   6.490  22.750  22.840
  516BOLB   C2A12366   6.350  23.000  23.140
  516BOLB   C3A12367   6.430  22.950  23.560
  516BOLB   C4A12368   6.300  22.730  23.940
  516BOLB   C1B12369   6.620  23.280  22.710
  516BOLB   C2B12370   6.180  23.420  22.690
  516BOLB   C3B12371   5.890  23.090  22.850
  516BOLB   C4B12372   5.970  22.620  22.900
  516BOLB   NC212373   5.220  23.600  26.060
  516BOLB   PO212374   5.590  23.520  26.020
  516BOLB   GL312375   5.690  23.180  25.760
  516BOLB   GL412376   5.520  23.470  25.500
  516BOLB   C1C12377   5.730  22.830  25.450
  516BOLB   C2C12378   5.810  22.650  25.080
  516BOLB   C3C12379   6.030  22.690  24.680
  516BOLB   C4C12380   6.130  22.650  24.350
  516BOLB   C1D12381   5.650  23.260  25.160
  516BOLB   C2D12382   5.980  23.460  24.850
  516BOLB   C3D12383   6.210  23.150  24.580
  516BOLB   C4D12384   6.380  23.180  24.250
  517BOLB   NC112385   7.930  18.990  22.060
  517BOLB   PO112386   7.720  18.980  22.470
  517BOLB   GL112387   7.650  18.940  22.920
  517BOLB   GL212388   7.400  18.960  22.970
  517BOLB   C1A12389   7.880  18.910  23.340
  517BOLB   C2A12390   7.610  18.730  23.740
  517BOLB   C3A12391   7.590  18.300  23.850
  517BOLB   C4A12392   7.570  17.860  24.080
  517BOLB   C1B12393   7.450  18.590  23.230
  517BOLB   C2B12394   7.310  18.280  23.470
  517BOLB   C3B12395   7.060  18.020  23.800
  517BOLB   C4B12396   6.970  17.800  24.200
  517BOLB   NC212397   6.520  16.570  25.820
  517BOLB   PO212398   6.760  16.810  26.080
  517BOLB   GL312399   6.830  17.030  25.780
  517BOLB   GL412400   7.030  17.330  25.810
  517BOLB   C1C12401   7.220  17.040  25.470
  517BOLB   C2C12402   7.470  17.130  25.150
  517BOLB   C3C12403   7.510  17.260  24.710
  517BOLB   C4C12404   7.450  17.480  24.290
  517BOLB   C1D12405   7.010  17.450  25.420
  517BOLB   C2D12406   7.110  17.550  25.030
  517BOLB   C3D12407   6.990  18.010  25.050
  517BOLB   C4D12408   7.290  18.310  24.900
  518BOLB   NC112409  16.650  22.630  19.750
  518BOLB   PO112410  16.300  22.420  19.950
  518BOLB   GL112411  16.510  22.690  20.270
  518BOLB   GL212412  16.340  22.920  20.450
  518BOLB   C1A12413  16.820  22.630  20.530
  518BOLB   C2A12414  17.020  22.680  20.920
  518BOLB   C3A12415  17.210  22.540  21.340
  518BOLB   C4A12416  17.550  22.650  21.590
  518BOLB   C1B12417  16.610  22.990  20.850
  518BOLB   C2B12418  16.850  23.160  21.230
  518BOLB   C3B12419  17.220  23.100  21.550
  518BOLB   C4B12420  17.650  23.120  21.660
  518BOLB   NC212421  18.720  22.390  23.440
  518BOLB   PO212422  19.250  22.320  23.350
  518BOLB   GL312423  18.950  22.230  23.040
  518BOLB   GL412424  19.070  22.530  22.890
  518BOLB   C1C12425  18.500  22.300  22.820
  518BOLB   C2C12426  18.430  22.300  22.400
  518BOLB   C3C12427  18.200  22.370  21.980
  518BOLB   C4C12428  17.810  22.340  21.720
  518BOLB   C1D12429  18.760  22.680  22.560
  518BOLB   C2D12430  18.610  22.720  22.110
  518BOLB   C3D12431  18.610  22.440  21.750
  518BOLB   C4D12432  18.510  22.160  21.420
  519BOLB   NC112433  13.070  18.200  21.830
  519BOLB   PO112434  13.030  18.260  22.280
  519BOLB   GL112435  13.230  17.990  22.590
  519BOLB   GL212436  13.570  17.950  22.590
  519BOLB   C1A12437  13.200  17.820  22.940
  519BOLB   C2A12438  13.170  17.410  23.120
  519BOLB   C3A12439  13.410  17.090  23.330
  519BOLB   C4A12440  13.670  16.920  23.680
  519BOLB   C1B12441  13.790  17.920  22.950
  519BOLB   C2B12442  13.970  17.850  23.330
  519BOLB   C3B12443  14.160  17.810  23.700
  519BOLB   C4B12444  14.290  17.840  24.200
  519BOLB   NC212445  13.410  17.230  26.390
  519BOLB   PO212446  13.550  16.870  26.140
  519BOLB   GL312447  13.540  17.210  25.890
  519BOLB   GL412448  13.570  17.510  25.930
  519BOLB   C1C12449  13.590  17.180  25.400
  519BOLB   C2C12450  13.830  17.110  24.940
  519BOLB   C3C12451  13.860  17.030  24.510
  519BOLB   C4C12452  13.850  16.910  24.080
  519BOLB   C1D12453  13.300  17.560  25.610
  519BOLB   C2D12454  13.180  17.800  25.220
  519BOLB   C3D12455  13.010  17.680  24.780
  519BOLB   C4D12456  12.770  17.770  24.370
  520BOLB   NC112457   5.100  12.910  13.400
  520BOLB   PO112458   5.090  13.040  12.910
  520BOLB   GL112459   4.960  12.620  13.020
  520BOLB   GL212460   4.740  12.550  12.900
  520BOLB   C1A12461   5.130  12.220  12.840
  520BOLB   C2A12462   5.080  11.790  12.780
  520BOLB   C3A12463   4.680  11.470  12.740
  520BOLB   C4A12464   4.510  11.180  12.680
  520BOLB   C1B12465   4.220  12.520  12.820
  520BOLB   C2B12466   4.060  12.220  12.840
  520BOLB   C3B12467   3.990  11.850  12.960
  520BOLB   C4B12468   3.710  11.640  13.200
  520BOLB   NC212469   3.330   9.530  12.680
  520BOLB   PO212470   3.060   9.710  12.400
  520BOLB   GL312471   3.080   9.940  12.050
  520BOLB   GL412472   3.070  10.200  11.660
  520BOLB   C1C12473   3.290  10.300  12.140
  520BOLB   C2C12474   3.540  10.660  12.350
  520BOLB   C3C12475   3.780  10.970  12.520
  520BOLB   C4C12476   4.140  11.050  12.480
  520BOLB   C1D12477   3.270  10.590  11.420
  520BOLB   C2D12478   3.530  10.910  11.470
  520BOLB   C3D12479   3.380  11.340  11.720
  520BOLB   C4D12480   3.250  11.810  11.790
  521BOLB   NC112481  12.280  27.790  16.110
  521BOLB   PO112482  11.910  27.850  16.150
  521BOLB   GL112483  11.760  28.350  15.990
  521BOLB   GL212484  11.820  28.360  15.780
  521BOLB   C1A12485  11.780  28.810  16.070
  521BOLB   C2A12486  11.680  29.290  16.270
  521BOLB   C3A12487  11.990  29.690  16.320
  521BOLB   C4A12488  11.980  30.140  16.260
  521BOLB   C1B12489  12.030  28.690  15.630
  521BOLB   C2B12490  12.180  29.030  15.620
  521BOLB   C3B12491  12.580  29.230  15.610
  521BOLB   C4B12492  12.800  29.520  15.490
  521BOLB   NC212493  11.530  31.640  17.100
  521BOLB   PO212494  11.830  31.780  17.440
  521BOLB   GL312495  11.790  31.380  17.450
  521BOLB   GL412496  11.410  31.210  17.530
  521BOLB   C1C12497  11.960  30.970  17.390
  521BOLB   C2C12498  12.120  30.600  17.280
  521BOLB   C3C12499  12.140  30.450  16.940
  521BOLB   C4C12500  12.030  30.430  16.540
  521BOLB   C1D12501  11.540  30.830  17.700
  521BOLB   C2D12502  11.570  30.450  17.710
  521BOLB   C3D12503  11.610  30.030  17.810
  521BOLB   C4D12504  11.660  29.790  18.180
  522BOLB   NC112505  13.710  25.500  19.070
  522BOLB   PO112506  14.030  25.750  19.430
  522BOLB   GL112507  14.210  26.220  19.630
  522BOLB   GL212508  14.090  26.520  19.560
  522BOLB   C1A12509  14.380  26.400  20.010
  522BOLB   C2A12510  14.710  26.420  20.340
  522BOLB   C3A12511  14.810  26.620  20.660
  522BOLB   C4A12512  14.640  27.040  20.740
  522BOLB   C1B12513  14.190  26.790  19.740
  522BOLB   C2B12514  14.370  26.980  20.130
  522BOLB   C3B12515  14.560  27.350  20.250
  522BOLB   C4B12516  14.410  27.770  20.010
  522BOLB   NC212517  13.950  29.270  21.770
  522BOLB   PO212518  13.460  29.300  21.770
  522BOLB   GL312519  13.590  28.870  21.570
  522BOLB   GL412520  13.410  28.920  21.400
  522BOLB   C1C12521  13.970  28.560  21.490
  522BOLB   C2C12522  14.250  28.220  21.260
  522BOLB   C3C12523  14.450  27.830  21.040
  522BOLB   C4C12524  14.440  27.320  21.090
  522BOLB   C1D12525  13.500  28.710  21.020
  522BOLB   C2D12526  13.210  28.540  20.690
  522BOLB   C3D12527  13.070  28.770  20.320
  522BOLB   C4D12528  13.160  28.550  19.830
  523BOLB   NC112529   1.900  15.920  14.070
  523BOLB   PO112530   2.210  15.710  14.360
  523BOLB   GL112531   2.080  15.260  14.470
  523BOLB   GL212532   2.300  15.040  14.440
  523BOLB   C1A12533   1.770  14.940  14.380
  523BOLB   C2A12534   1.410  14.900  14.140
  523BOLB   C3A12535   0.900  14.820  13.980
  523BOLB   C4A12536   0.520  14.670  13.700
  523BOLB   C1B12537   2.460  14.750  14.720
  523BOLB   C2B12538   2.560  14.410  14.820
  523BOLB   C3B12539   2.690  13.990  14.760
  523BOLB   C4B12540   2.720  13.620  14.460
  523BOLB   NC212541  35.010  13.890  13.090
  523BOLB   PO212542  35.140  14.340  13.080
  523BOLB   GL312543  35.430  14.640  13.090
  523BOLB   GL412544  35.180  14.890  13.120
  523BOLB   C1C12545  35.880  14.630  12.890
  523BOLB   C2C12546  36.140  14.310  12.800
  523BOLB   C3C12547   0.190  14.410  12.990
  523BOLB   C4C12548   0.340  14.460  13.370
  523BOLB   C1D12549  35.580  15.020  12.850
  523BOLB   C2D12550  36.010  15.340  12.870
  523BOLB   C3D12551  36.290  15.680  12.850
  523BOLB   C4D12552   0.050  16.060  13.030
  524BOLB   NC112553   5.770  25.350  19.040
  524BOLB   PO112554   5.380  25.300  19.240
  524BOLB   GL112555   5.230  25.640  19.590
  524BOLB   GL212556   5.270  25.490  19.950
  524BOLB   C1A12557   5.270  25.960  20.050
  524BOLB   C2A12558   5.380  26.350  20.260
  524BOLB   C3A12559   5.160  26.380  20.700
  524BOLB   C4A12560   5.030  26.510  21.040
  524BOLB   C1B12561   5.430  25.450  20.370
  524BOLB   C2B12562   5.150  25.360  20.720
  524BOLB   C3B12563   4.740  25.240  20.870
  524BOLB   C4B12564   4.400  25.280  20.920
  524BOLB   NC212565   5.360  28.670  21.540
  524BOLB   PO212566   5.620  28.500  21.840
  524BOLB   GL312567   5.580  28.140  21.600
  524BOLB   GL412568   5.710  28.010  21.920
  524BOLB   C1C12569   5.770  27.860  21.440
  524BOLB   C2C12570   5.560  27.520  21.230
  524BOLB   C3C12571   5.210  27.310  21.150
  524BOLB   C4C12572   5.000  26.850  21.260
  524BOLB   C1D12573   5.670  27.550  21.920
  524BOLB   C2D12574   5.760  27.200  21.700
  524BOLB   C3D12575   5.680  26.950  21.270
  524BOLB   C4D12576   5.450  26.950  20.910
  525BOLB   NC112577  11.270  21.610  22.360
  525BOLB   PO112578  10.940  21.530  22.610
  525BOLB   GL112579  10.890  21.570  23.030
  525BOLB   GL212580  11.120  21.360  23.300
  525BOLB   C1A12581  10.920  21.880  23.270
  525BOLB   C2A12582  10.970  21.970  23.750
  525BOLB   C3A12583  10.930  21.950  24.240
  525BOLB   C4A12584  10.840  21.690  24.540
  525BOLB   C1B12585  11.130  21.530  23.610
  525BOLB   C2B12586  11.020  21.480  24.110
  525BOLB   C3B12587  11.400  21.680  24.390
  525BOLB   C4B12588  11.400  21.660  24.820
  525BOLB   NC212589  10.270  22.940  26.610
  525BOLB   PO212590  10.550  22.560  26.650
  525BOLB   GL312591  10.690  22.220  26.390
  525BOLB   GL412592  10.400  22.260  26.210
  525BOLB   C1C12593  10.710  21.920  26.100
  525BOLB   C2C12594  10.910  22.030  25.740
  525BOLB   C3C12595  11.100  22.050  25.410
  525BOLB   C4C12596  10.970  21.890  24.920
  525BOLB   C1D12597  10.020  22.280  26.060
  525BOLB   C2D12598   9.890  22.130  25.590
  525BOLB   C3D12599   9.920  22.040  25.220
  525BOLB   C4D12600   9.960  22.380  24.990
  526BOLB   NC112601  15.720  24.510  18.620
  526BOLB   PO112602  15.730  25.010  18.710
  526BOLB   GL112603  16.000  25.120  19.170
  526BOLB   GL212604  16.050  25.500  19.150
  526BOLB   C1A12605  16.360  25.180  19.600
  526BOLB   C2A12606  16.670  25.480  19.830
  526BOLB   C3A12607  17.140  25.670  19.960
  526BOLB   C4A12608  17.540  25.730  20.240
  526BOLB   C1B12609  16.320  25.880  19.030
  526BOLB   C2B12610  16.340  26.210  18.760
  526BOLB   C3B12611  16.340  26.330  18.510
  526BOLB   C4B12612  15.990  26.450  18.260
  526BOLB   NC212613  18.020  25.680  22.790
  526BOLB   PO212614  18.020  26.150  22.630
  526BOLB   GL312615  17.920  25.880  22.240
  526BOLB   GL412616  17.830  25.560  22.280
  526BOLB   C1C12617  17.930  25.790  21.810
  526BOLB   C2C12618  17.970  25.640  21.380
  526BOLB   C3C12619  17.950  25.450  21.040
  526BOLB   C4C12620  17.780  25.450  20.570
  526BOLB   C1D12621  17.790  25.270  21.900
  526BOLB   C2D12622  18.090  25.050  21.710
  526BOLB   C3D12623  18.120  24.920  21.330
  526BOLB   C4D12624  17.920  24.510  21.220
  527BOLB   NC112625  17.280  20.550  19.030
  527BOLB   PO112626  17.620  20.690  19.370
  527BOLB   GL112627  17.990  20.690  19.510
  527BOLB   GL212628  18.160  20.930  19.480
  527BOLB   C1A12629  18.080  20.750  19.940
  527BOLB   C2A12630  18.270  21.050  20.110
  527BOLB   C3A12631  18.610  21.290  20.420
  527BOLB   C4A12632  18.720  21.310  20.870
  527BOLB   C1B12633  18.230  21.350  19.670
  527BOLB   C2B12634  18.360  21.790  19.960
  527BOLB   C3B12635  18.460  21.760  20.470
  527BOLB   C4B12636  18.520  21.840  20.940
  527BOLB   NC212637  20.360  22.460  22.770
  527BOLB   PO212638  20.010  22.260  22.560
  527BOLB   GL312639  19.740  22.070  22.250
  527BOLB   GL412640  19.720  22.090  21.980
  527BOLB   C1C12641  19.270  21.970  22.100
  527BOLB   C2C12642  18.900  21.740  21.990
  527BOLB   C3C12643  18.620  21.700  21.590
  527BOLB   C4C12644  18.670  21.460  21.270
  527BOLB   C1D12645  19.490  21.930  21.680
  527BOLB   C2D12646  19.240  21.670  21.500
  527BOLB   C3D12647  19.320  21.290  21.330
  527BOLB   C4D12648  19.190  21.110  21.030
  528BOLB   NC112649  17.740  18.880  19.610
  528BOLB   PO112650  17.600  19.330  19.640
  528BOLB   GL112651  17.730  19.420  20.080
  528BOLB   GL212652  17.740  19.850  20.130
  528BOLB   C1A12653  17.940  19.360  20.460
  528BOLB   C2A12654  18.110  19.330  20.880
  528BOLB   C3A12655  18.480  19.290  20.960
  528BOLB   C4A12656  18.840  19.530  20.960
  528BOLB   C1B12657  17.780  20.000  20.510
  528BOLB   C2B12658  18.020  19.860  20.870
  528BOLB   C3B12659  18.020  19.800  21.300
  528BOLB   C4B12660  18.420  20.000  21.400
  528BOLB   NC212661  19.990  19.920  23.830
  528BOLB   PO212662  20.110  19.900  23.330
  528BOLB   GL312663  19.920  19.860  22.940
  528BOLB   GL412664  19.670  20.040  22.880
  528BOLB   C1C12665  19.590  19.700  22.520
  528BOLB   C2C12666  19.360  19.690  22.190
  528BOLB   C3C12667  19.200  19.810  21.760
  528BOLB   C4C12668  18.880  19.740  21.350
  528BOLB   C1D12669  19.680  20.160  22.370
  528BOLB   C2D12670  19.320  20.350  22.070
  528BOLB   C3D12671  19.000  20.130  22.040
  528BOLB   C4D12672  18.650  19.990  21.830
  529BOLB   NC112673   3.630  16.410  10.630
  529BOLB   PO112674   3.500  16.010  10.710
  529BOLB   GL112675   3.260  15.790  10.500
  529BOLB   GL212676   3.140  15.580  10.730
  529BOLB   C1A12677   2.800  15.800  10.420
  529BOLB   C2A12678   2.460  15.620  10.240
  529BOLB   C3A12679   2.200  15.340  10.190
  529BOLB   C4A12680   1.910  15.110   9.980
  529BOLB   C1B12681   2.890  15.310  10.680
  529BOLB   C2B12682   2.590  15.190  10.480
  529BOLB   C3B12683   2.360  14.850  10.500
  529BOLB   C4B12684   1.990  14.770  10.400
  529BOLB   NC212685   0.800  13.280   8.380
  529BOLB   PO212686   1.070  13.470   8.480
  529BOLB   GL312687   1.390  13.470   8.910
  529BOLB   GL412688   1.670  13.270   8.940
  529BOLB   C1C12689   1.670  13.810   8.990
  529BOLB   C2C12690   1.530  14.220   9.130
  529BOLB   C3C12691   1.710  14.470   9.410
  529BOLB   C4C12692   1.760  14.850   9.590
  529BOLB   C1D12693   1.850  13.420   9.300
  529BOLB   C2D12694   1.780  13.410   9.750
  529BOLB   C3D12695   1.550  13.690   9.910
  529BOLB   C4D12696   1.410  14.010  10.130
  530BOLB   NC112697   5.340  18.480  21.180
  530BOLB   PO112698   5.020  18.110  21.160
  530BOLB   GL112699   4.750  17.770  21.240
  530BOLB   GL212700   4.860  17.510  21.220
  530BOLB   C1A12701   4.590  17.680  21.630
  530BOLB   C2A12702   4.220  17.460  21.670
  530BOLB   C3A12703   3.950  17.570  21.880
  530BOLB   C4A12704   3.530  17.850  21.950
  530BOLB   C1B12705   4.500  17.330  21.190
  530BOLB   C2B12706   4.170  17.100  21.340
  530BOLB   C3B12707   3.890  17.080  21.530
  530BOLB   C4B12708   3.480  17.230  21.720
  530BOLB   NC212709   2.890  17.970  24.530
  530BOLB   PO212710   2.690  17.790  24.200
  530BOLB   GL312711   3.150  17.750  23.990
  530BOLB   GL412712   3.340  17.930  24.250
  530BOLB   C1C12713   3.300  17.630  23.550
  530BOLB   C2C12714   3.010  17.620  23.150
  530BOLB   C3C12715   3.080  17.670  22.710
  530BOLB   C4C12716   3.270  17.810  22.300
  530BOLB   C1D12717   3.530  18.100  23.840
  530BOLB   C2D12718   3.630  18.140  23.400
  530BOLB   C3D12719   3.470  17.960  23.130
  530BOLB   C4D12720   3.370  18.090  22.750
  531BOLB   NC112721  12.100  18.170  22.900
  531BOLB   PO112722  12.490  17.950  22.770
  531BOLB   GL112723  12.490  17.870  23.120
  531BOLB   GL212724  12.210  17.980  23.320
  531BOLB   C1A12725  12.790  17.540  23.510
  531BOLB   C2A12726  13.090  17.610  23.880
  531BOLB   C3A12727  13.220  17.720  24.240
  531BOLB   C4A12728  13.250  18.180  24.370
  531BOLB   C1B12729  12.290  18.070  23.720
  531BOLB   C2B12730  12.760  18.020  23.940
  531BOLB   C3B12731  13.090  18.210  23.860
  531BOLB   C4B12732  13.470  18.430  23.990
  531BOLB   NC212733  13.090  18.950  26.530
  531BOLB   PO212734  13.440  18.680  26.530
  531BOLB   GL312735  13.440  18.680  26.120
  531BOLB   GL412736  13.670  18.440  25.810
  531BOLB   C1C12737  13.400  18.890  25.700
  531BOLB   C2C12738  13.410  18.650  25.300
  531BOLB   C3C12739  13.640  18.570  24.940
  531BOLB   C4C12740  13.530  18.590  24.500
  531BOLB   C1D12741  13.980  18.520  25.370
  531BOLB   C2D12742  14.110  18.410  25.030
  531BOLB   C3D12743  13.990  18.350  24.620
  531BOLB   C4D12744  13.880  18.300  24.220
  532BOLB   NC112745  17.570  22.020  19.410
  532BOLB   PO112746  17.780  21.570  19.280
  532BOLB   GL112747  17.930  21.720  19.650
  532BOLB   GL212748  17.780  21.950  19.870
  532BOLB   C1A12749  17.900  21.460  20.050
  532BOLB   C2A12750  18.030  21.420  20.460
  532BOLB   C3A12751  18.040  21.700  20.820
  532BOLB   C4A12752  17.980  21.890  21.220
  532BOLB   C1B12753  17.860  21.930  20.370
  532BOLB   C2B12754  17.760  22.090  20.690
  532BOLB   C3B12755  17.480  22.480  20.900
  532BOLB   C4B12756  17.480  22.910  21.020
  532BOLB   NC212757  19.230  21.810  23.380
  532BOLB   PO212758  19.630  22.070  23.120
  532BOLB   GL312759  19.250  21.850  22.900
  532BOLB   GL412760  19.300  21.870  22.580
  532BOLB   C1C12761  18.800  21.840  22.760
  532BOLB   C2C12762  18.610  21.820  22.430
  532BOLB   C3C12763  18.380  21.790  22.050
  532BOLB   C4C12764  18.090  21.930  21.690
  532BOLB   C1D12765  19.100  22.210  22.490
  532BOLB   C2D12766  18.900  22.290  22.180
  532BOLB   C3D12767  18.980  22.090  21.700
  532BOLB   C4D12768  18.910  21.930  21.250
  533BOLB   NC112769   5.490  13.650  17.530
  533BOLB   PO112770   5.280  13.830  17.210
  533BOLB   GL112771   5.040  13.500  17.180
  533BOLB   GL212772   5.310  13.280  17.170
  533BOLB   C1A12773   4.710  13.300  17.390
  533BOLB   C2A12774   4.640  13.140  17.770
  533BOLB   C3A12775   4.300  12.920  18.030
  533BOLB   C4A12776   3.850  12.750  18.220
  533BOLB   C1B12777   5.220  13.030  17.500
  533BOLB   C2B12778   4.870  12.740  17.540
  533BOLB   C3B12779   4.700  12.480  17.180
  533BOLB   C4B12780   4.960  12.570  16.820
  533BOLB   NC212781   2.130  10.880  18.750
  533BOLB   PO212782   2.300  11.150  18.430
  533BOLB   GL312783   2.600  11.430  18.440
  533BOLB   GL412784   2.880  11.390  18.330
  533BOLB   C1C12785   2.730  11.870  18.570
  533BOLB   C2C12786   2.840  12.220  18.340
  533BOLB   C3C12787   3.050  12.660  18.230
  533BOLB   C4C12788   3.470  12.690  18.110
  533BOLB   C1D12789   2.990  11.770  18.120
  533BOLB   C2D12790   2.930  11.720  17.690
  533BOLB   C3D12791   2.680  11.720  17.390
  533BOLB   C4D12792   2.470  11.410  17.230
  534BOLB   NC112793   5.870  12.770  14.960
  534BOLB   PO112794   5.540  12.510  14.990
  534BOLB   GL112795   5.580  12.180  15.160
  534BOLB   GL212796   5.310  12.080  15.180
  534BOLB   C1A12797   5.840  11.830  15.330
  534BOLB   C2A12798   5.680  11.450  15.520
  534BOLB   C3A12799   5.410  11.030  15.730
  534BOLB   C4A12800   5.160  10.740  15.880
  534BOLB   C1B12801   4.940  11.720  15.060
  534BOLB   C2B12802   4.480  11.580  15.170
  534BOLB   C3B12803   4.320  11.210  15.230
  534BOLB   C4B12804   4.090  10.940  14.990
  534BOLB   NC212805   4.430   8.570  14.810
  534BOLB   PO212806   4.300   8.580  15.330
  534BOLB   GL312807   4.210   9.010  15.460
  534BOLB   GL412808   4.100   9.270  15.300
  534BOLB   C1C12809   4.460   9.380  15.570
  534BOLB   C2C12810   4.650   9.650  15.710
  534BOLB   C3C12811   4.950   9.950  15.950
  534BOLB   C4C12812   5.080  10.350  16.110
  534BOLB   C1D12813   4.310   9.610  15.070
  534BOLB   C2D12814   4.510   9.880  14.830
  534BOLB   C3D12815   4.940  10.060  14.870
  534BOLB   C4D12816   5.330   9.830  15.050
  535BOLB   NC112817   8.260  26.090  19.710
  535BOLB   PO112818   8.790  25.940  19.750
  535BOLB   GL112819   8.740  26.230  20.110
  535BOLB   GL212820   9.040  26.480  20.260
  535BOLB   C1A12821   8.610  26.430  20.530
  535BOLB   C2A12822   8.590  26.670  20.980
  535BOLB   C3A12823   8.520  26.980  21.350
  535BOLB   C4A12824   8.510  27.400  21.460
  535BOLB   C1B12825   9.020  26.730  20.520
  535BOLB   C2B12826   8.900  26.980  20.870
  535BOLB   C3B12827   8.790  27.350  21.060
  535BOLB   C4B12828   9.000  27.460  21.460
  535BOLB   NC212829   8.990  28.080  24.160
  535BOLB   PO212830   8.860  28.370  23.840
  535BOLB   GL312831   8.830  28.160  23.490
  535BOLB   GL412832   8.800  28.310  23.180
  535BOLB   C1C12833   8.900  27.830  23.130
  535BOLB   C2C12834   8.740  27.880  22.690
  535BOLB   C3C12835   8.610  27.830  22.240
  535BOLB   C4C12836   8.630  27.650  21.820
  535BOLB   C1D12837   9.170  28.180  22.850
  535BOLB   C2D12838   9.220  27.980  22.590
  535BOLB   C3D12839   9.080  27.850  22.210
  535BOLB   C4D12840   9.170  27.450  21.990
  536BOLB   NC112841   2.250  19.790  13.450
  536BOLB   PO112842   1.740  19.730  13.540
  536BOLB   GL112843   1.270  19.530  13.410
  536BOLB   GL212844   1.280  19.760  13.070
  536BOLB   C1A12845   0.950  19.140  13.310
  536BOLB   C2A12846   0.590  18.860  13.240
  536BOLB   C3A12847   0.210  18.920  13.150
  536BOLB   C4A12848  36.270  19.060  12.730
  536BOLB   C1B12849   0.840  19.620  12.960
  536BOLB   C2B12850   0.500  19.820  12.780
  536BOLB   C3B12851   0.120  19.770  12.530
  536BOLB   C4B12852  36.220  19.890  12.150
  536BOLB   NC212853  34.030  18.090  12.630
  536BOLB   PO212854  34.370  17.830  12.780
  536BOLB   GL312855  34.630  18.260  12.930
  536BOLB   GL412856  34.760  18.420  13.260
  536BOLB   C1C12857  34.960  18.640  12.790
  536BOLB   C2C12858  35.190  18.930  12.700
  536BOLB   C3C12859  35.550  19.130  12.640
  536BOLB   C4C12860  35.930  19.240  12.570
  536BOLB   C1D12861  35.160  18.420  13.130
  536BOLB   C2D12862  35.440  18.550  12.870
  536BOLB   C3D12863  35.740  18.580  12.550
  536BOLB   C4D12864  36.080  18.330  12.430
  537BOLB   NC112865  11.780  19.800  22.820
  537BOLB   PO112866  11.950  19.340  22.810
  537BOLB   GL112867  12.010  19.320  23.290
  537BOLB   GL212868  11.740  19.180  23.340
  537BOLB   C1A12869  12.140  19.080  23.610
  537BOLB   C2A12870  12.230  18.950  24.050
  537BOLB   C3A12871  12.400  18.790  24.430
  537BOLB   C4A12872  12.610  18.710  24.770
  537BOLB   C1B12873  11.560  19.320  23.710
  537BOLB   C2B12874  11.440  19.110  23.980
  537BOLB   C3B12875  11.450  19.210  24.390
  537BOLB   C4B12876  11.470  19.080  24.780
  537BOLB   NC212877  14.830  18.490  26.220
  537BOLB   PO212878  14.350  18.720  26.200
  537BOLB   GL312879  14.320  19.060  25.880
  537BOLB   GL412880  14.480  19.320  25.860
  537BOLB   C1C12881  14.110  19.130  25.430
  537BOLB   C2C12882  13.850  18.960  25.120
  537BOLB   C3C12883  13.470  19.040  24.980
  537BOLB   C4C12884  13.070  18.740  24.830
  537BOLB   C1D12885  14.260  19.640  25.590
  537BOLB   C2D12886  14.270  19.960  25.280
  537BOLB   C3D12887  14.320  19.950  24.890
  537BOLB   C4D12888  14.150  19.940  24.540
  538BOLB   NC112889   2.530  18.760  19.050
  538BOLB   PO112890   2.830  18.640  19.350
  538BOLB   GL112891   2.710  18.350  19.520
  538BOLB   GL212892   2.600  18.150  19.190
  538BOLB   C1A12893   2.350  18.210  19.660
  538BOLB   C2A12894   2.270  18.050  20.010
  538BOLB   C3A12895   2.230  17.980  20.440
  538BOLB   C4A12896   2.120  17.820  20.960
  538BOLB   C1B12897   2.480  17.800  19.450
  538BOLB   C2B12898   2.270  17.710  19.690
  538BOLB   C3B12899   2.040  17.330  19.680
  538BOLB   C4B12900   1.780  16.980  19.670
  538BOLB   NC212901   2.090  16.930  22.840
  538BOLB   PO212902   1.750  16.630  22.980
  538BOLB   GL312903   1.700  16.710  22.510
  538BOLB   GL412904   1.930  16.380  22.360
  538BOLB   C1C12905   1.830  16.920  22.130
  538BOLB   C2C12906   2.100  16.880  21.860
  538BOLB   C3C12907   2.140  17.290  21.630
  538BOLB   C4C12908   2.190  17.660  21.390
  538BOLB   C1D12909   2.280  16.540  22.310
  538BOLB   C2D12910   2.550  16.740  22.040
  538BOLB   C3D12911   2.890  17.070  21.960
  538BOLB   C4D12912   3.080  17.540  21.900
  539BOLB   NC112913   9.600  16.190  21.750
  539BOLB   PO112914   9.140  16.110  21.750
  539BOLB   GL112915   8.880  15.800  22.060
  539BOLB   GL212916   8.620  15.770  21.920
  539BOLB   C1A12917   8.970  15.540  22.370
  539BOLB   C2A12918   8.830  15.450  22.790
  539BOLB   C3A12919   8.740  15.200  23.130
  539BOLB   C4A12920   8.650  15.070  23.500
  539BOLB   C1B12921   8.440  15.630  22.340
  539BOLB   C2B12922   8.270  15.460  22.750
  539BOLB   C3B12923   8.240  15.220  23.120
  539BOLB   C4B12924   8.160  14.980  23.530
  539BOLB   NC212925   8.810  13.440  24.960
  539BOLB   PO212926   9.250  13.490  25.050
  539BOLB   GL312927   9.250  13.760  24.720
  539BOLB   GL412928   9.550  13.840  24.580
  539BOLB   C1C12929   9.130  14.030  24.320
  539BOLB   C2C12930   8.790  14.030  24.170
  539BOLB   C3C12931   8.720  14.470  23.970
  539BOLB   C4C12932   8.730  14.830  23.720
  539BOLB   C1D12933   9.750  14.110  24.350
  539BOLB   C2D12934   9.640  14.290  24.000
  539BOLB   C3D12935   9.830  14.580  23.580
  539BOLB   C4D12936   9.990  14.620  23.310
  540BOLB   NC112937   9.700  20.950  22.960
  540BOLB   PO112938   9.800  20.480  22.800
  540BOLB   GL112939   9.890  20.540  23.150
  540BOLB   GL212940   9.700  20.440  23.440
  540BOLB   C1A12941  10.220  20.520  23.470
  540BOLB   C2A12942  10.210  20.680  23.940
  540BOLB   C3A12943  10.350  20.820  24.420
  540BOLB   C4A12944  10.220  20.980  24.770
  540BOLB   C1B12945   9.690  20.530  23.870
  540BOLB   C2B12946   9.840  20.630  24.310
  540BOLB   C3B12947   9.790  20.630  24.830
  540BOLB   C4B12948   9.820  20.460  25.180
  540BOLB   NC212949  10.290  21.130  27.140
  540BOLB   PO212950  10.540  21.300  26.880
  540BOLB   GL312951  10.450  21.330  26.380
  540BOLB   GL412952  10.890  21.320  26.250
  540BOLB   C1C12953  10.180  21.230  26.110
  540BOLB   C2C12954  10.270  20.990  25.740
  540BOLB   C3C12955  10.190  20.750  25.470
  540BOLB   C4C12956  10.250  20.650  25.040
  540BOLB   C1D12957  10.650  20.970  26.040
  540BOLB   C2D12958  10.350  20.540  25.960
  540BOLB   C3D12959  10.270  20.250  25.540
  540BOLB   C4D12960   9.950  20.000  25.400
  541BOLB   NC112961   5.660  17.810  20.690
  541BOLB   PO112962   5.710  17.380  20.700
  541BOLB   GL112963   5.530  17.100  20.960
  541BOLB   GL212964   5.310  17.130  21.070
  541BOLB   C1A12965   5.610  16.690  21.040
  541BOLB   C2A12966   5.500  16.430  21.410
  541BOLB   C3A12967   5.250  16.170  21.650
  541BOLB   C4A12968   4.960  16.250  21.950
  541BOLB   C1B12969   5.390  16.970  21.480
  541BOLB   C2B12970   5.400  16.710  21.820
  541BOLB   C3B12971   5.380  16.390  22.140
  541BOLB   C4B12972   5.320  16.060  22.520
  541BOLB   NC212973   4.120  15.950  24.150
  541BOLB   PO212974   3.800  16.240  24.180
  541BOLB   GL312975   3.940  16.250  23.770
  541BOLB   GL412976   3.990  16.590  23.840
  541BOLB   C1C12977   4.140  16.350  23.350
  541BOLB   C2C12978   4.460  16.330  22.980
  541BOLB   C3C12979   4.650  16.500  22.570
  541BOLB   C4C12980   4.960  16.380  22.380
  541BOLB   C1D12981   3.930  17.050  23.800
  541BOLB   C2D12982   3.700  17.310  23.610
  541BOLB   C3D12983   3.710  17.550  23.290
  541BOLB   C4D12984   4.070  17.610  22.960
  542BOLB   NC112985  14.930  26.270  16.640
  542BOLB   PO112986  14.680  26.630  17.000
  542BOLB   GL112987  14.730  27.150  17.050
  542BOLB   GL212988  14.530  27.230  17.270
  542BOLB   C1A12989  15.070  27.540  17.050
  542BOLB   C2A12990  15.440  27.560  17.200
  542BOLB   C3A12991  15.810  27.790  17.240
  542BOLB   C4A12992  16.290  27.910  17.140
  542BOLB   C1B12993  14.740  27.520  17.450
  542BOLB   C2B12994  15.120  27.700  17.600
  542BOLB   C3B12995  15.530  28.030  17.540
  542BOLB   C4B12996  15.690  28.280  17.760
  542BOLB   NC212997  18.760  29.430  16.960
  542BOLB   PO212998  18.340  29.390  17.100
  542BOLB   GL312999  18.050  29.150  17.260
  542BOLB   GL413000  18.070  28.740  17.120
  542BOLB   C1C13001  17.760  28.910  17.500
  542BOLB   C2C13002  17.400  28.710  17.400
  542BOLB   C3C13003  17.020  28.500  17.290
  542BOLB   C4C13004  16.620  28.210  17.390
  542BOLB   C1D13005  17.790  28.490  17.170
  542BOLB   C2D13006  17.680  28.060  17.060
  542BOLB   C3D13007  17.620  27.730  16.850
  542BOLB   C4D13008  17.540  27.510  16.450
  543BOLB   NC113009  17.090  17.330  19.800
  543BOLB   PO113010  16.990  17.060  20.180
  543BOLB   GL113011  17.350  16.730  20.380
  543BOLB   GL213012  17.580  16.980  20.290
  543BOLB   C1A13013  17.530  16.470  20.760
  543BOLB   C2A13014  17.560  16.470  21.230
  543BOLB   C3A13015  17.620  16.150  21.570
  543BOLB   C4A13016  17.870  16.010  22.000
  543BOLB   C1B13017  17.610  17.100  20.670
  543BOLB   C2B13018  17.770  17.130  21.150
  543BOLB   C3B13019  17.770  17.210  21.540
  543BOLB   C4B13020  17.940  17.060  21.870
  543BOLB   NC213021  18.990  14.310  23.110
  543BOLB   PO213022  19.000  14.800  23.110
  543BOLB   GL313023  18.940  14.860  22.660
  543BOLB   GL413024  19.010  14.570  22.620
  543BOLB   C1C13025  18.800  15.300  22.430
  543BOLB   C2C13026  18.470  15.650  22.620
  543BOLB   C3C13027  18.170  15.820  22.720
  543BOLB   C4C13028  17.910  16.040  22.500
  543BOLB   C1D13029  18.880  14.480  22.300
  543BOLB   C2D13030  18.580  14.290  22.190
  543BOLB   C3D13031  18.210  14.110  22.020
  543BOLB   C4D13032  17.960  14.290  21.750
  544BOLB   NC113033  19.470  19.010  15.350
  544BOLB   PO113034  19.770  19.140  15.000
  544BOLB   GL113035  20.190  19.140  15.280
  544BOLB   GL213036  20.070  18.850  15.490
  544BOLB   C1A13037  20.610  19.110  15.310
  544BOLB   C2A13038  20.770  18.570  15.330
  544BOLB   C3A13039  21.030  18.230  15.510
  544BOLB   C4A13040  21.380  17.920  15.550
  544BOLB   C1B13041  20.370  18.550  15.820
  544BOLB   C2B13042  20.870  18.520  15.890
  544BOLB   C3B13043  21.150  18.760  15.610
  544BOLB   C4B13044  21.170  19.010  15.290
  544BOLB   NC213045  23.650  17.610  16.330
  544BOLB   PO213046  23.640  17.960  15.990
  544BOLB   GL313047  23.220  17.900  16.220
  544BOLB   GL413048  23.270  17.850  16.570
  544BOLB   C1C13049  22.820  17.680  16.170
  544BOLB   C2C13050  22.370  17.740  15.940
  544BOLB   C3C13051  22.020  17.460  15.900
  544BOLB   C4C13052  21.680  17.570  15.690
  544BOLB   C1D13053  22.760  17.930  16.770
  544BOLB   C2D13054  22.400  17.920  16.930
  544BOLB   C3D13055  22.000  17.690  16.860
  544BOLB   C4D13056  21.550  17.500  16.720
  545BOLB   NC113057  15.200  13.260  18.460
  545BOLB   PO113058  15.490  13.020  18.230
  545BOLB   GL113059  15.550  12.910  18.660
  545BOLB   GL213060  15.490  12.530  18.720
  545BOLB   C1A13061  15.530  12.660  19.130
  545BOLB   C2A13062  15.830  12.700  19.560
  545BOLB   C3A13063  16.210  12.560  19.770
  545BOLB   C4A13064  16.630  12.500  19.940
  545BOLB   C1B13065  15.460  12.170  19.150
  545BOLB   C2B13066  15.670  12.030  19.440
  545BOLB   C3B13067  15.890  12.100  19.760
  545BOLB   C4B13068  15.990  12.100  20.120
  545BOLB   NC213069  18.080  11.020  21.350
  545BOLB   PO213070  17.700  11.030  21.050
  545BOLB   GL313071  17.390  11.340  21.050
  545BOLB   GL413072  17.100  11.420  21.160
  545BOLB   C1C13073  17.460  11.710  20.980
  545BOLB   C2C13074  17.310  12.140  20.830
  545BOLB   C3C13075  17.180  12.520  20.560
  545BOLB   C4C13076  16.860  12.510  20.250
  545BOLB   C1D13077  16.970  11.900  21.050
  545BOLB   C2D13078  16.740  12.080  20.700
  545BOLB   C3D13079  16.400  12.250  20.380
  545BOLB   C4D13080  16.390  12.650  20.310
  546BOLB   NC113081  14.150  11.710  14.090
  546BOLB   PO113082  13.980  11.350  14.110
  546BOLB   GL113083  14.120  10.940  14.130
  546BOLB   GL213084  13.950  10.780  14.340
  546BOLB   C1A13085  14.290  10.560  14.060
  546BOLB   C2A13086  14.260  10.200  14.150
  546BOLB   C3A13087  14.180   9.760  14.120
  546BOLB   C4A13088  14.420   9.340  14.010
  546BOLB   C1B13089  13.820  10.450  14.450
  546BOLB   C2B13090  13.710   9.970  14.260
  546BOLB   C3B13091  13.660   9.560  14.150
  546BOLB   C4B13092  13.590   9.120  13.970
  546BOLB   NC213093  14.060   7.070  12.720
  546BOLB   PO213094  14.290   7.260  13.060
  546BOLB   GL313095  14.200   7.750  12.990
  546BOLB   GL413096  13.950   7.860  13.160
  546BOLB   C1C13097  14.300   8.190  12.960
  546BOLB   C2C13098  14.500   8.500  13.180
  546BOLB   C3C13099  14.460   8.860  13.430
  546BOLB   C4C13100  14.560   9.140  13.610
  546BOLB   C1D13101  13.920   8.320  13.350
  546BOLB   C2D13102  13.660   8.550  13.710
  546BOLB   C3D13103  13.440   8.690  14.160
  546BOLB   C4D13104  13.610   8.870  14.500
  547BOLB   NC113105   3.160  14.070  13.180
  547BOLB   PO113106   2.990  14.130  13.560
  547BOLB   GL113107   2.610  13.960  13.440
  547BOLB   GL213108   2.670  14.130  13.120
  547BOLB   C1A13109   2.260  13.760  13.490
  547BOLB   C2A13110   1.830  13.980  13.410
  547BOLB   C3A13111   1.500  13.760  13.130
  547BOLB   C4A13112   1.240  13.750  13.200
  547BOLB   C1B13113   2.570  13.690  13.050
  547BOLB   C2B13114   2.370  13.400  13.160
  547BOLB   C3B13115   2.170  12.990  13.180
  547BOLB   C4B13116   1.840  12.790  12.990
  547BOLB   NC213117  36.250  12.300  12.520
  547BOLB   PO213118  36.130  12.300  12.840
  547BOLB   GL313119  36.010  12.730  12.910
  547BOLB   GL413120  35.920  12.780  13.220
  547BOLB   C1C13121  36.180  13.220  13.010
  547BOLB   C2C13122   0.150  13.330  13.000
  547BOLB   C3C13123   0.480  13.350  12.840
  547BOLB   C4C13124   0.790  13.630  12.940
  547BOLB   C1D13125  36.170  12.950  13.490
  547BOLB   C2D13126   0.170  12.930  13.700
  547BOLB   C3D13127   0.590  12.840  13.770
  547BOLB   C4D13128   0.820  13.200  13.940
  548BOLB   NC113129   9.060  11.480  17.590
  548BOLB   PO113130   9.380  11.240  17.350
  548BOLB   GL113131   9.410  10.950  17.740
  548BOLB   GL213132   9.150  11.150  17.920
  548BOLB   C1A13133   9.310  10.590  18.010
  548BOLB   C2A13134   8.870  10.450  18.120
  548BOLB   C3A13135   8.670  10.150  18.080
  548BOLB   C4A13136   8.390   9.810  18.020
  548BOLB   C1B13137   8.830  10.850  17.870
  548BOLB   C2B13138   8.560  10.620  17.740
  548BOLB   C3B13139   8.280  10.350  17.740
  548BOLB   C4B13140   7.980  10.150  17.780
  548BOLB   NC213141   6.820   7.720  18.060
  548BOLB   PO213142   7.000   8.070  17.910
  548BOLB   GL313143   7.160   8.270  17.690
  548BOLB   GL413144   7.270   8.180  17.440
  548BOLB   C1C13145   7.310   8.710  17.620
  548BOLB   C2C13146   7.690   8.950  17.660
  548BOLB   C3C13147   8.090   9.200  17.740
  548BOLB   C4C13148   8.210   9.580  17.690
  548BOLB   C1D13149   7.210   8.380  17.080
  548BOLB   C2D13150   6.960   8.560  16.770
  548BOLB   C3D13151   7.140   8.990  16.570
  548BOLB   C4D13152   7.530   9.230  16.610
  549BOLB   NC113153   5.120  13.650  10.540
  549BOLB   PO113154   5.210  13.330  10.890
  549BOLB   GL113155   4.910  13.010  10.770
  549BOLB   GL213156   4.670  13.180  10.910
  549BOLB   C1A13157   4.520  12.750  10.520
  549BOLB   C2A13158   4.320  12.590  10.130
  549BOLB   C3A13159   4.370  12.450   9.660
  549BOLB   C4A13160   4.210  12.680   9.420
  549BOLB   C1B13161   4.300  13.180  10.640
  549BOLB   C2B13162   4.390  13.070  10.160
  549BOLB   C3B13163   4.580  12.980   9.700
  549BOLB   C4B13164   4.730  12.900   9.260
  549BOLB   NC213165   3.700  11.970   7.470
  549BOLB   PO213166   3.610  12.310   7.300
  549BOLB   GL313167   3.930  12.610   7.530
  549BOLB   GL413168   3.970  12.940   7.560
  549BOLB   C1C13169   4.020  12.800   8.030
  549BOLB   C2C13170   4.430  12.990   8.220
  549BOLB   C3C13171   4.550  13.010   8.740
  549BOLB   C4C13172   4.220  12.910   9.070
  549BOLB   C1D13173   4.240  13.210   7.740
  549BOLB   C2D13174   4.640  13.380   7.900
  549BOLB   C3D13175   5.180  13.420   7.810
  549BOLB   C4D13176   5.450  13.720   7.790
  550BOLB   NC113177  12.530  12.310  25.090
  550BOLB   PO113178  12.280  12.720  25.130
  550BOLB   GL113179  12.430  12.970  24.700
  550BOLB   GL213180  12.460  13.260  24.640
  550BOLB   C1A13181  12.290  13.040  24.270
  550BOLB   C2A13182  12.250  13.270  23.840
  550BOLB   C3A13183  12.340  13.420  23.460
  550BOLB   C4A13184  12.450  13.470  22.980
  550BOLB   C1B13185  12.530  13.710  24.460
  550BOLB   C2B13186  12.280  14.170  24.350
  550BOLB   C3B13187  12.160  14.520  24.580
  550BOLB   C4B13188  12.250  14.890  24.400
  550BOLB   NC213189  11.850  15.600  21.720
  550BOLB   PO213190  12.180  15.220  21.440
  550BOLB   GL313191  12.170  14.840  21.680
  550BOLB   GL413192  12.520  14.850  21.810
  550BOLB   C1C13193  12.270  14.450  21.800
  550BOLB   C2C13194  12.250  14.230  22.100
  550BOLB   C3C13195  12.550  14.020  22.450
  550BOLB   C4C13196  12.690  13.770  22.740
  550BOLB   C1D13197  12.330  14.820  22.190
  550BOLB   C2D13198  12.040  14.630  22.490
  550BOLB   C3D13199  12.090  14.230  22.620
  550BOLB   C4D13200  12.200  13.840  22.800
  551BOLB   NC113201  13.040  26.950  18.590
  551BOLB   PO113202  13.370  27.080  18.290
  551BOLB   GL113203  13.360  27.480  18.510
  551BOLB   GL213204  13.060  27.450  18.910
  551BOLB   C1A13205  13.660  27.790  18.750
  551BOLB   C2A13206  13.670  28.060  19.010
  551BOLB   C3A13207  13.630  28.190  19.380
  551BOLB   C4A13208  13.610  28.500  19.630
  551BOLB   C1B13209  13.410  27.600  19.120
  551BOLB   C2B13210  13.460  27.740  19.550
  551BOLB   C3B13211  13.410  28.080  19.870
  551BOLB   C4B13212  13.260  28.320  20.220
  551BOLB   NC213213  13.390  30.960  19.120
  551BOLB   PO213214  13.400  31.000  19.580
  551BOLB   GL313215  13.290  30.560  19.510
  551BOLB   GL413216  13.020  30.380  19.500
  551BOLB   C1C13217  13.490  30.140  19.480
  551BOLB   C2C13218  13.440  29.680  19.420
  551BOLB   C3C13219  13.710  29.370  19.420
  551BOLB   C4C13220  13.680  28.940  19.590
  551BOLB   C1D13221  12.750  30.220  19.760
  551BOLB   C2D13222  12.640  29.860  19.990
  551BOLB   C3D13223  12.350  29.560  20.180
  551BOLB   C4D13224  12.320  29.220  20.580
  552BOLB   NC113225  10.680  27.700  16.620
  552BOLB   PO113226  10.980  27.770  16.390
  552BOLB   GL113227  11.040  28.190  16.350
  552BOLB   GL213228  11.380  28.240  16.490
  552BOLB   C1A13229  11.000  28.650  16.350
  552BOLB   C2A13230  11.150  29.010  16.160
  552BOLB   C3A13231  11.230  29.490  16.080
  552BOLB   C4A13232  11.170  29.900  16.070
  552BOLB   C1B13233  11.540  28.690  16.470
  552BOLB   C2B13234  11.390  29.120  16.640
  552BOLB   C3B13235  11.420  29.550  16.710
  552BOLB   C4B13236  11.230  29.910  16.770
  552BOLB   NC213237  12.360  31.890  15.480
  552BOLB   PO213238  12.230  31.770  15.850
  552BOLB   GL313239  11.920  31.580  15.730
  552BOLB   GL413240  11.830  31.360  15.860
  552BOLB   C1C13241  11.600  31.200  15.490
  552BOLB   C2C13242  11.500  30.870  15.740
  552BOLB   C3C13243  11.290  30.650  15.940
  552BOLB   C4C13244  11.070  30.230  15.880
  552BOLB   C1D13245  11.980  30.980  15.790
  552BOLB   C2D13246  11.870  30.640  15.990
  552BOLB   C3D13247  11.540  30.280  16.100
  552BOLB   C4D13248  11.580  29.850  16.350
  553BOLB   NC113249  19.250  15.390  15.030
  553BOLB   PO113250  19.490  15.750  15.040
  553BOLB   GL113251  19.880  15.840  15.160
  553BOLB   GL213252  19.890  15.490  15.420
  553BOLB   C1A13253  20.310  15.840  15.330
  553BOLB   C2A13254  20.670  15.760  15.640
  553BOLB   C3A13255  21.020  15.600  15.910
  553BOLB   C4A13256  21.450  15.590  15.860
  553BOLB   C1B13257  19.830  15.150  15.250
  553BOLB   C2B13258  20.090  14.800  15.400
  553BOLB   C3B13259  20.430  14.680  15.590
  553BOLB   C4B13260  20.820  14.890  15.650
  553BOLB   NC213261  22.770  13.760  15.240
  553BOLB   PO213262  22.960  13.520  15.520
  553BOLB   GL313263  22.680  13.930  15.690
  553BOLB   GL413264  22.310  13.820  15.700
  553BOLB   C1C13265  22.500  14.410  15.770
  553BOLB   C2C13266  22.410  14.780  15.680
  553BOLB   C3C13267  22.050  15.040  15.660
  553BOLB   C4C13268  21.790  15.280  15.840
  553BOLB   C1D13269  21.980  14.160  15.590
  553BOLB   C2D13270  21.540  14.100  15.540
  553BOLB   C3D13271  21.210  14.170  15.680
  553BOLB   C4D13272  20.750  14.160  15.650
  554BOLB   NC113273   2.210  15.780  14.900
  554BOLB   PO113274   1.990  16.130  15.040
  554BOLB   GL113275   1.730  15.860  14.980
  554BOLB   GL213276   1.450  15.950  15.080
  554BOLB   C1A13277   1.530  15.450  14.920
  554BOLB   C2A13278   1.360  15.020  14.740
  554BOLB   C3A13279   1.440  14.520  14.630
  554BOLB   C4A13280   1.240  14.110  14.570
  554BOLB   C1B13281   1.090  15.660  15.130
  554BOLB   C2B13282   0.810  15.490  15.430
  554BOLB   C3B13283   0.320  15.490  15.420
  554BOLB   C4B13284  36.300  15.370  15.160
  554BOLB   NC213285  35.790  13.250  15.730
  554BOLB   PO213286  36.150  13.150  15.990
  554BOLB   GL313287   0.140  13.260  15.790
  554BOLB   GL413288   0.350  12.930  15.760
  554BOLB   C1C13289   0.230  13.300  15.380
  554BOLB   C2C13290   0.450  13.590  15.050
  554BOLB   C3C13291   0.970  13.570  14.960
  554BOLB   C4C13292   1.140  13.660  14.580
  554BOLB   C1D13293   0.900  12.940  15.780
  554BOLB   C2D13294   1.360  12.960  15.980
  554BOLB   C3D13295   1.880  13.000  16.270
  554BOLB   C4D13296   2.310  12.830  16.330
  555BOLB   NC113297  13.270  15.990  21.690
  555BOLB   PO113298  13.560  15.920  21.390
  555BOLB   GL113299  13.800  15.920  21.750
  555BOLB   GL213300  14.020  15.970  21.610
  555BOLB   C1A13301  13.970  15.720  22.090
  555BOLB   C2A13302  14.230  15.400  22.040
  555BOLB   C3A13303  14.410  15.300  22.350
  555BOLB   C4A13304  14.750  15.530  22.780
  555BOLB   C1B13305  14.440  15.860  21.920
  555BOLB   C2B13306  14.610  15.740  22.300
  555BOLB   C3B13307  14.990  15.870  22.500
  555BOLB   C4B13308  15.250  16.050  22.710
  555BOLB   NC213309  15.560  15.060  24.940
  555BOLB   PO213310  15.500  15.440  25.140
  555BOLB   GL313311  15.440  15.510  24.640
  555BOLB   GL413312  15.610  15.270  24.390
  555BOLB   C1C13313  15.120  15.540  24.300
  555BOLB   C2C13314  15.210  15.710  23.900
  555BOLB   C3C13315  15.100  15.610  23.540
  555BOLB   C4C13316  14.950  15.510  23.180
  555BOLB   C1D13317  15.480  15.350  23.910
  555BOLB   C2D13318  15.470  15.270  23.570
  555BOLB   C3D13319  15.440  15.200  23.150
  555BOLB   C4D13320  15.290  15.530  22.850
  556BOLB   NC113321  11.440  17.420  22.240
  556BOLB   PO113322  10.980  17.570  22.090
  556BOLB   GL113323  10.860  17.330  22.520
  556BOLB   GL213324  10.590  17.420  22.710
  556BOLB   C1A13325  11.100  17.260  22.830
  556BOLB   C2A13326  11.120  17.010  23.170
  556BOLB   C3A13327  11.260  16.870  23.620
  556BOLB   C4A13328  11.460  16.920  24.090
  556BOLB   C1B13329  10.480  17.160  23.110
  556BOLB   C2B13330  10.480  17.090  23.520
  556BOLB   C3B13331  10.570  17.340  23.850
  556BOLB   C4B13332  10.380  17.390  24.240
  556BOLB   NC213333  12.050  16.690  26.760
  556BOLB   PO213334  12.080  17.010  26.500
  556BOLB   GL313335  12.100  17.120  26.110
  556BOLB   GL413336  12.260  17.380  26.050
  556BOLB   C1C13337  12.140  16.850  25.760
  556BOLB   C2C13338  11.980  16.740  25.320
  556BOLB   C3C13339  11.750  16.870  24.910
  556BOLB   C4C13340  11.680  16.720  24.460
  556BOLB   C1D13341  12.560  17.710  25.730
  556BOLB   C2D13342  12.710  17.820  25.300
  556BOLB   C3D13343  12.650  17.990  24.940
  556BOLB   C4D13344  12.730  18.290  24.560
  557BOLB   NC113345  18.590  23.450  14.210
  557BOLB   PO113346  18.580  23.310  13.770
  557BOLB   GL113347  19.000  23.560  13.720
  557BOLB   GL213348  19.170  23.660  14.010
  557BOLB   C1A13349  19.080  23.970  13.580
  557BOLB   C2A13350  19.400  24.230  13.570
  557BOLB   C3A13351  19.690  24.560  13.430
  557BOLB   C4A13352  20.030  24.820  13.500
  557BOLB   C1B13353  19.500  23.740  13.790
  557BOLB   C2B13354  19.850  23.890  13.620
  557BOLB   C3B13355  20.270  24.000  13.540
  557BOLB   C4B13356  20.640  23.880  13.360
  557BOLB   NC213357  22.390  25.780  12.570
  557BOLB   PO213358  21.920  25.570  12.480
  557BOLB   GL313359  21.770  25.390  12.830
  557BOLB   GL413360  21.900  25.050  12.730
  557BOLB   C1C13361  21.380  25.270  12.550
  557BOLB   C2C13362  20.940  25.250  12.610
  557BOLB   C3C13363  20.550  25.190  12.880
  557BOLB   C4C13364  20.330  25.140  13.290
  557BOLB   C1D13365  21.540  24.860  12.750
  557BOLB   C2D13366  21.100  24.820  12.620
  557BOLB   C3D13367  20.860  24.610  12.870
  557BOLB   C4D13368  20.790  24.340  13.170
  558BOLB   NC113369   8.860  21.860  23.020
  558BOLB   PO113370   8.400  21.870  22.900
  558BOLB   GL113371   8.310  22.040  23.360
  558BOLB   GL213372   8.610  21.830  23.500
  558BOLB   C1A13373   8.450  22.120  23.830
  558BOLB   C2A13374   8.360  22.110  24.210
  558BOLB   C3A13375   8.180  22.020  24.630
  558BOLB   C4A13376   7.870  21.980  24.870
  558BOLB   C1B13377   8.520  21.630  23.940
  558BOLB   C2B13378   8.560  21.730  24.400
  558BOLB   C3B13379   8.650  22.130  24.690
  558BOLB   C4B13380   8.930  22.420  24.850
  558BOLB   NC213381   7.010  23.880  27.050
  558BOLB   PO213382   7.260  23.740  26.660
  558BOLB   GL313383   7.410  23.350  26.330
  558BOLB   GL413384   7.610  23.560  26.190
  558BOLB   C1C13385   7.350  22.910  26.270
  558BOLB   C2C13386   7.380  22.630  25.910
  558BOLB   C3C13387   7.400  22.330  25.610
  558BOLB   C4C13388   7.650  22.220  25.190
  558BOLB   C1D13389   7.770  23.130  26.050
  558BOLB   C2D13390   7.860  22.870  25.730
  558BOLB   C3D13391   7.850  22.650  25.290
  558BOLB   C4D13392   8.150  22.330  25.080
  559BOLB   NC113393  11.230  16.310  21.730
  559BOLB   PO113394  10.760  16.410  21.600
  559BOLB   GL113395  10.830  16.030  21.950
  559BOLB   GL213396  11.110  15.880  21.990
  559BOLB   C1A13397  10.820  16.010  22.410
  559BOLB   C2A13398  11.010  15.990  22.730
  559BOLB   C3A13399  11.120  16.070  23.150
  559BOLB   C4A13400  11.090  15.730  23.430
  559BOLB   C1B13401  11.120  15.610  22.350
  559BOLB   C2B13402  11.180  15.480  22.780
  559BOLB   C3B13403  11.310  15.280  23.160
  559BOLB   C4B13404  11.250  14.940  23.440
  559BOLB   NC213405  11.230  15.860  26.030
  559BOLB   PO213406  11.110  15.440  25.870
  559BOLB   GL313407  11.020  15.510  25.370
  559BOLB   GL413408  10.750  15.550  25.220
  559BOLB   C1C13409  11.160  15.260  25.060
  559BOLB   C2C13410  10.970  15.340  24.570
  559BOLB   C3C13411  11.010  15.370  24.160
  559BOLB   C4C13412  10.960  15.560  23.820
  559BOLB   C1D13413  10.650  15.640  24.830
  559BOLB   C2D13414  10.550  16.010  24.410
  559BOLB   C3D13415  10.590  16.440  24.260
  559BOLB   C4D13416  10.520  16.870  24.090
  560BOLB   NC113417  13.140  13.610  19.900
  560BOLB   PO113418  13.390  13.780  20.290
  560BOLB   GL113419  13.500  13.700  20.660
  560BOLB   GL213420  13.480  13.960  21.020
  560BOLB   C1A13421  13.530  13.340  20.950
  560BOLB   C2A13422  13.490  12.890  20.910
  560BOLB   C3A13423  13.520  12.480  21.100
  560BOLB   C4A13424  13.180  12.350  21.360
  560BOLB   C1B13425  13.550  13.650  21.340
  560BOLB   C2B13426  13.830  13.250  21.410
  560BOLB   C3B13427  14.140  13.010  21.580
  560BOLB   C4B13428  14.230  12.690  21.750
  560BOLB   NC213429  13.460  10.450  22.420
  560BOLB   PO213430  13.190  10.290  22.200
  560BOLB   GL313431  13.260  10.730  22.090
  560BOLB   GL413432  13.520  10.800  21.860
  560BOLB   C1C13433  13.520  11.200  22.160
  560BOLB   C2C13434  13.380  11.560  22.150
  560BOLB   C3C13435  13.130  11.710  21.860
  560BOLB   C4C13436  12.960  12.080  21.640
  560BOLB   C1D13437  13.640  11.120  21.620
  560BOLB   C2D13438  13.510  11.610  21.590
  560BOLB   C3D13439  13.380  11.930  21.330
  560BOLB   C4D13440  12.960  11.850  21.160
  561BOLB   NC113441   7.110  12.060  16.290
  561BOLB   PO113442   7.030  12.280  16.680
  561BOLB   GL113443   6.860  12.110  17.080
  561BOLB   GL213444   6.720  12.280  17.360
  561BOLB   C1A13445   6.600  11.800  17.200
  561BOLB   C2A13446   6.560  11.450  17.420
  561BOLB   C3A13447   6.440  10.990  17.710
  561BOLB   C4A13448   6.300  10.650  17.930
  561BOLB   C1B13449   6.710  11.820  17.670
  561BOLB   C2B13450   6.650  11.480  17.930
  561BOLB   C3B13451   6.670  11.090  18.200
  561BOLB   C4B13452   6.780  10.690  18.310
  561BOLB   NC213453   5.900   8.800  19.590
  561BOLB   PO213454   6.200   9.110  19.470
  561BOLB   GL313455   6.200   9.500  19.420
  561BOLB   GL413456   6.320   9.560  19.190
  561BOLB   C1C13457   6.110  10.030  19.350
  561BOLB   C2C13458   6.250  10.320  19.120
  561BOLB   C3C13459   6.450  10.290  18.620
  561BOLB   C4C13460   6.390  10.360  18.220
  561BOLB   C1D13461   6.280   9.800  18.780
  561BOLB   C2D13462   6.160   9.920  18.420
  561BOLB   C3D13463   6.100  10.050  18.020
  561BOLB   C4D13464   6.340  10.230  17.700
  562BOLB   NC113465   6.160  11.360  22.340
  562BOLB   PO113466   5.710  11.650  22.410
  562BOLB   GL113467   6.040  11.810  22.220
  562BOLB   GL213468   6.360  11.800  22.330
  562BOLB   C1A13469   6.130  12.160  21.830
  562BOLB   C2A13470   6.430  12.320  21.420
  562BOLB   C3A13471   6.770  12.530  21.150
  562BOLB   C4A13472   6.650  12.910  20.850
  562BOLB   C1B13473   6.550  12.020  22.040
  562BOLB   C2B13474   6.720  12.030  21.660
  562BOLB   C3B13475   6.870  12.070  21.320
  562BOLB   C4B13476   7.120  12.190  21.020
  562BOLB   NC213477   7.330  14.400  19.570
  562BOLB   PO213478   7.600  14.730  19.680
  562BOLB   GL313479   7.430  14.500  20.050
  562BOLB   GL413480   7.440  14.550  20.320
  562BOLB   C1C13481   7.100  14.200  20.270
  562BOLB   C2C13482   6.810  13.790  20.410
  562BOLB   C3C13483   6.520  13.540  20.420
  562BOLB   C4C13484   6.420  13.240  20.640
  562BOLB   C1D13485   7.150  14.440  20.680
  562BOLB   C2D13486   6.910  14.210  20.680
  562BOLB   C3D13487   6.620  13.880  20.830
  562BOLB   C4D13488   6.230  13.650  20.820
  563BOLB   NC113489   6.700  19.250  22.410
  563BOLB   PO113490   6.480  19.610  22.210
  563BOLB   GL113491   6.330  19.540  22.700
  563BOLB   GL213492   6.580  19.530  22.820
  563BOLB   C1A13493   6.190  19.440  23.110
  563BOLB   C2A13494   5.900  19.540  23.390
  563BOLB   C3A13495   5.810  19.770  23.760
  563BOLB   C4A13496   5.850  19.620  24.130
  563BOLB   C1B13497   6.620  19.220  23.140
  563BOLB   C2B13498   6.550  18.970  23.450
  563BOLB   C3B13499   6.360  18.760  23.830
  563BOLB   C4B13500   6.270  18.410  24.120
  563BOLB   NC213501   5.410  19.930  26.790
  563BOLB   PO213502   5.760  19.970  26.620
  563BOLB   GL313503   5.850  19.870  26.240
  563BOLB   GL413504   6.250  19.930  26.240
  563BOLB   C1C13505   5.870  19.770  25.780
  563BOLB   C2C13506   5.660  19.790  25.340
  563BOLB   C3C13507   5.600  19.540  24.970
  563BOLB   C4C13508   5.710  19.670  24.600
  563BOLB   C1D13509   6.270  20.120  25.890
  563BOLB   C2D13510   6.320  20.270  25.420
  563BOLB   C3D13511   6.360  20.330  24.950
  563BOLB   C4D13512   6.440  20.130  24.540
  564BOLB   NC113513   4.510  14.150  10.950
  564BOLB   PO113514   4.430  13.990  11.280
  564BOLB   GL113515   4.240  13.730  11.080
  564BOLB   GL213516   4.440  13.620  10.760
  564BOLB   C1A13517   4.160  13.270  11.180
  564BOLB   C2A13518   4.260  12.900  11.030
  564BOLB   C3A13519   4.230  12.550  10.910
  564BOLB   C4A13520   3.860  12.400  10.760
  564BOLB   C1B13521   4.210  13.550  10.350
  564BOLB   C2B13522   4.050  13.390   9.960
  564BOLB   C3B13523   3.940  13.040   9.800
  564BOLB   C4B13524   3.820  12.630  10.040
  564BOLB   NC213525   1.830  11.380  10.200
  564BOLB   PO213526   1.970  11.680   9.900
  564BOLB   GL313527   2.280  11.890  10.240
  564BOLB   GL413528   2.520  12.090  10.060
  564BOLB   C1C13529   2.410  12.050  10.530
  564BOLB   C2C13530   2.590  12.250  10.940
  564BOLB   C3C13531   2.980  12.580  11.040
  564BOLB   C4C13532   3.510  12.660  11.000
  564BOLB   C1D13533   2.590  12.530   9.930
  564BOLB   C2D13534   2.690  12.980   9.950
  564BOLB   C3D13535   2.630  13.240   9.790
  564BOLB   C4D13536   2.690  13.770   9.830
  565BOLB   NC113537  15.280  21.700  21.010
  565BOLB   PO113538  14.870  21.850  21.250
  565BOLB   GL113539  15.160  22.150  21.440
  565BOLB   GL213540  15.400  21.880  21.430
  565BOLB   C1A13541  15.340  22.090  21.870
  565BOLB   C2A13542  15.610  22.080  22.230
  565BOLB   C3A13543  15.910  21.870  22.520
  565BOLB   C4A13544  16.220  21.580  22.780
  565BOLB   C1B13545  15.800  22.060  21.550
  565BOLB   C2B13546  16.000  22.190  21.920
  565BOLB   C3B13547  16.210  22.230  22.270
  565BOLB   C4B13548  16.380  22.550  22.510
  565BOLB   NC213549  18.110  22.320  24.370
  565BOLB   PO213550  18.030  22.740  24.080
  565BOLB   GL313551  17.680  22.680  23.880
  565BOLB   GL413552  17.700  22.890  23.640
  565BOLB   C1C13553  17.360  22.490  23.650
  565BOLB   C2C13554  17.150  22.180  23.330
  565BOLB   C3C13555  17.050  22.110  22.860
  565BOLB   C4C13556  16.680  21.670  22.850
  565BOLB   C1D13557  17.350  22.950  23.440
  565BOLB   C2D13558  17.230  23.090  23.060
  565BOLB   C3D13559  16.970  23.010  22.700
  565BOLB   C4D13560  16.590  23.020  22.620
  566BOLB   NC113561  17.260  13.640  17.060
  566BOLB   PO113562  17.250  14.090  17.240
  566BOLB   GL113563  17.450  13.910  17.550
  566BOLB   GL213564  17.300  14.000  17.860
  566BOLB   C1A13565  17.660  13.730  17.930
  566BOLB   C2A13566  18.060  13.690  18.130
  566BOLB   C3A13567  18.430  13.490  17.940
  566BOLB   C4A13568  18.760  13.300  17.770
  566BOLB   C1B13569  17.260  13.580  18.250
  566BOLB   C2B13570  17.220  13.300  18.540
  566BOLB   C3B13571  17.320  13.060  18.940
  566BOLB   C4B13572  17.490  12.990  19.390
  566BOLB   NC213573  20.260  11.640  19.120
  566BOLB   PO213574  20.630  11.650  18.830
  566BOLB   GL313575  20.500  12.060  18.630
  566BOLB   GL413576  20.620  12.180  18.230
  566BOLB   C1C13577  20.080  12.330  18.380
  566BOLB   C2C13578  19.840  12.340  17.980
  566BOLB   C3C13579  19.380  12.600  17.870
  566BOLB   C4C13580  19.000  12.850  17.830
  566BOLB   C1D13581  20.200  11.930  18.160
  566BOLB   C2D13582  19.740  11.950  18.370
  566BOLB   C3D13583  19.440  12.270  18.390
  566BOLB   C4D13584  19.000  12.480  18.280
  567BOLB   NC113585  17.180  16.110  18.750
  567BOLB   PO113586  17.210  15.830  19.110
  567BOLB   GL113587  17.540  15.830  19.400
  567BOLB   GL213588  17.470  15.520  19.490
  567BOLB   C1A13589  17.880  15.820  19.720
  567BOLB   C2A13590  18.300  15.690  19.940
  567BOLB   C3A13591  18.500  15.810  20.280
  567BOLB   C4A13592  18.910  15.780  20.540
  567BOLB   C1B13593  17.590  15.260  19.770
  567BOLB   C2B13594  17.960  15.340  20.010
  567BOLB   C3B13595  18.080  15.410  20.420
  567BOLB   C4B13596  18.410  15.540  20.680
  567BOLB   NC213597  19.820  14.300  21.870
  567BOLB   PO213598  20.210  14.540  21.800
  567BOLB   GL313599  19.890  14.650  21.430
  567BOLB   GL413600  19.630  14.530  21.440
  567BOLB   C1C13601  19.560  15.040  21.540
  567BOLB   C2C13602  19.560  15.430  21.450
  567BOLB   C3C13603  19.540  15.710  21.190
  567BOLB   C4C13604  19.200  15.880  20.870
  567BOLB   C1D13605  19.160  14.740  21.590
  567BOLB   C2D13606  18.830  14.620  21.340
  567BOLB   C3D13607  18.770  14.440  20.950
  567BOLB   C4D13608  19.010  14.190  20.710
  568BOLB   NC113609   5.960  21.480  22.230
  568BOLB   PO113610   6.180  20.970  22.060
  568BOLB   GL113611   6.050  20.750  22.470
  568BOLB   GL213612   6.090  20.410  22.660
  568BOLB   C1A13613   5.960  20.780  22.910
  568BOLB   C2A13614   5.970  20.930  23.320
  568BOLB   C3A13615   6.090  21.260  23.690
  568BOLB   C4A13616   6.120  21.290  24.100
  568BOLB   C1B13617   5.900  20.350  23.090
  568BOLB   C2B13618   5.830  20.340  23.520
  568BOLB   C3B13619   5.580  20.480  23.920
  568BOLB   C4B13620   5.180  20.400  23.950
  568BOLB   NC213621   5.970  20.840  26.760
  568BOLB   PO213622   5.840  21.170  26.650
  568BOLB   GL313623   5.850  21.240  26.210
  568BOLB   GL413624   6.000  21.500  25.990
  568BOLB   C1C13625   5.940  21.110  25.760
  568BOLB   C2C13626   5.980  21.270  25.340
  568BOLB   C3C13627   6.200  21.260  24.960
  568BOLB   C4C13628   6.060  21.190  24.500
  568BOLB   C1D13629   6.430  21.310  25.860
  568BOLB   C2D13630   6.830  21.100  25.840
  568BOLB   C3D13631   7.160  20.930  26.100
  568BOLB   C4D13632   7.520  21.030  25.840
  569BOLB   NC113633  17.080  15.810  19.550
  569BOLB   PO113634  16.870  15.830  19.970
  569BOLB   GL113635  16.980  16.010  20.320
  569BOLB   GL213636  17.280  15.790  20.510
  569BOLB   C1A13637  16.980  16.070  20.810
  569BOLB   C2A13638  17.070  15.990  21.310
  569BOLB   C3A13639  17.160  15.910  21.730
  569BOLB   C4A13640  17.390  15.990  22.150
  569BOLB   C1B13641  17.510  16.000  20.750
  569BOLB   C2B13642  17.860  16.150  21.060
  569BOLB   C3B13643  18.040  16.410  21.300
  569BOLB   C4B13644  18.520  16.330  21.290
  569BOLB   NC213645  18.190  14.860  23.630
  569BOLB   PO213646  18.490  14.590  23.440
  569BOLB   GL313647  18.480  14.590  23.040
  569BOLB   GL413648  18.120  14.470  22.980
  569BOLB   C1C13649  18.520  15.040  22.780
  569BOLB   C2C13650  18.170  15.290  22.520
  569BOLB   C3C13651  17.820  15.510  22.600
  569BOLB   C4C13652  17.540  15.680  22.370
  569BOLB   C1D13653  17.710  14.490  22.710
  569BOLB   C2D13654  17.520  14.650  22.280
  569BOLB   C3D13655  17.770  14.730  21.800
  569BOLB   C4D13656  17.680  14.610  21.370
  570BOLB   NC113657   5.720  12.880  16.040
  570BOLB   PO113658   5.710  13.080  16.500
  570BOLB   GL113659   5.650  12.620  16.500
  570BOLB   GL213660   5.490  12.450  16.250
  570BOLB   C1A13661   5.360  12.320  16.710
  570BOLB   C2A13662   5.180  12.210  17.130
  570BOLB   C3A13663   4.920  12.020  17.520
  570BOLB   C4A13664   4.620  11.980  17.810
  570BOLB   C1B13665   5.340  12.070  16.220
  570BOLB   C2B13666   4.930  11.860  16.130
  570BOLB   C3B13667   4.630  11.540  16.210
  570BOLB   C4B13668   4.410  11.280  16.500
  570BOLB   NC213669   3.540  10.680  19.690
  570BOLB   PO213670   3.900  10.430  19.550
  570BOLB   GL313671   4.180  10.630  19.230
  570BOLB   GL413672   4.150  10.530  18.890
  570BOLB   C1C13673   4.300  11.040  19.000
  570BOLB   C2C13674   4.630  11.300  18.850
  570BOLB   C3C13675   4.690  11.560  18.480
  570BOLB   C4C13676   4.680  11.870  18.290
  570BOLB   C1D13677   4.480  10.750  18.670
  570BOLB   C2D13678   4.580  11.020  18.310
  570BOLB   C3D13679   4.760  11.290  18.130
  570BOLB   C4D13680   4.980  11.510  17.890
  571BOLB   NC113681  19.230  21.210  16.570
  571BOLB   PO113682  19.150  21.510  16.850
  571BOLB   GL113683  19.430  21.400  17.180
  571BOLB   GL213684  19.660  21.300  17.020
  571BOLB   C1A13685  19.670  21.440  17.570
  571BOLB   C2A13686  19.890  21.290  17.910
  571BOLB   C3A13687  19.930  21.250  18.320
  571BOLB   C4A13688  20.260  21.270  18.580
  571BOLB   C1B13689  19.980  20.860  17.010
  571BOLB   C2B13690  20.320  20.510  17.020
  571BOLB   C3B13691  20.740  20.660  17.040
  571BOLB   C4B13692  20.990  20.910  17.220
  571BOLB   NC213693  22.100  22.700  19.790
  571BOLB   PO213694  22.090  22.310  19.550
  571BOLB   GL313695  21.680  22.180  19.490
  571BOLB   GL413696  21.560  22.130  19.900
  571BOLB   C1C13697  21.610  21.880  19.110
  571BOLB   C2C13698  21.240  21.920  18.730
  571BOLB   C3C13699  21.000  21.710  18.550
  571BOLB   C4C13700  20.560  21.720  18.600
  571BOLB   C1D13701  21.080  22.130  19.760
  571BOLB   C2D13702  20.780  22.460  19.570
  571BOLB   C3D13703  20.390  22.420  19.360
  571BOLB   C4D13704  19.980  22.300  19.250
  572BOLB   NC113705  16.190  13.120  12.220
  572BOLB   PO113706  16.350  12.670  12.250
  572BOLB   GL113707  16.700  12.450  12.170
  572BOLB   GL213708  16.490  12.130  12.240
  572BOLB   C1A13709  16.950  12.040  12.050
  572BOLB   C2A13710  17.220  11.960  11.690
  572BOLB   C3A13711  17.470  11.650  11.650
  572BOLB   C4A13712  17.900  11.550  11.760
  572BOLB   C1B13713  16.740  11.680  12.460
  572BOLB   C2B13714  17.080  11.410  12.600
  572BOLB   C3B13715  17.210  10.860  12.520
  572BOLB   C4B13716  17.240  10.430  12.360
  572BOLB   NC213717  19.500   9.790  11.320
  572BOLB   PO213718  19.220   9.890  10.990
  572BOLB   GL313719  18.970  10.280  10.970
  572BOLB   GL413720  18.920  10.510  10.720
  572BOLB   C1C13721  18.810  10.390  11.330
  572BOLB   C2C13722  18.580  10.810  11.310
  572BOLB   C3C13723  18.380  11.140  11.460
  572BOLB   C4C13724  18.190  11.260  11.760
  572BOLB   C1D13725  18.830  10.920  10.920
  572BOLB   C2D13726  18.700  11.380  11.140
  572BOLB   C3D13727  18.670  11.780  11.030
  572BOLB   C4D13728  18.450  11.910  10.620
  573BOLB   NC113729  15.930  21.600  20.120
  573BOLB   PO113730  16.070  21.750  20.530
  573BOLB   GL113731  16.270  21.980  20.850
  573BOLB   GL213732  16.250  22.320  20.720
  573BOLB   C1A13733  16.500  21.800  21.230
  573BOLB   C2A13734  16.780  21.580  21.500
  573BOLB   C3A13735  17.000  21.690  21.860
  573BOLB   C4A13736  16.920  21.580  22.340
  573BOLB   C1B13737  16.540  22.490  21.020
  573BOLB   C2B13738  16.680  22.690  21.400
  573BOLB   C3B13739  16.950  22.710  21.760
  573BOLB   C4B13740  17.320  22.920  22.000
  573BOLB   NC213741  17.860  21.460  24.280
  573BOLB   PO213742  17.920  21.880  24.350
  573BOLB   GL313743  17.690  21.830  24.000
  573BOLB   GL413744  17.450  22.050  23.900
  573BOLB   C1C13745  17.800  21.680  23.590
  573BOLB   C2C13746  17.530  21.480  23.340
  573BOLB   C3C13747  17.510  21.650  22.980
  573BOLB   C4C13748  17.190  21.680  22.570
  573BOLB   C1D13749  17.720  22.170  23.490
  573BOLB   C2D13750  17.640  22.190  22.910
  573BOLB   C3D13751  17.360  22.250  22.490
  573BOLB   C4D13752  17.010  22.120  22.260
  574BOLB   NC113753  17.390  15.470   9.650
  574BOLB   PO113754  17.650  15.830   9.570
  574BOLB   GL113755  18.020  15.820   9.700
  574BOLB   GL213756  18.310  15.940   9.790
  574BOLB   C1A13757  18.340  15.600   9.490
  574BOLB   C2A13758  18.750  15.510   9.520
  574BOLB   C3A13759  19.160  15.270   9.450
  574BOLB   C4A13760  19.490  14.920   9.480
  574BOLB   C1B13761  18.690  15.890   9.820
  574BOLB   C2B13762  18.860  15.900  10.270
  574BOLB   C3B13763  18.970  15.520  10.420
  574BOLB   C4B13764  19.090  15.410  10.750
  574BOLB   NC213765  21.810  14.290   8.480
  574BOLB   PO213766  21.470  14.010   8.410
  574BOLB   GL313767  21.060  14.010   8.590
  574BOLB   GL413768  20.880  14.300   8.610
  574BOLB   C1C13769  20.770  13.980   9.000
  574BOLB   C2C13770  20.580  14.280   9.200
  574BOLB   C3C13771  20.170  14.440   9.080
  574BOLB   C4C13772  19.770  14.610   9.340
  574BOLB   C1D13773  20.560  14.560   8.640
  574BOLB   C2D13774  20.200  14.830   8.520
  574BOLB   C3D13775  19.820  15.120   8.600
  574BOLB   C4D13776  19.660  15.330   9.050
  575BOLB   NC113777   8.860  12.010  18.300
  575BOLB   PO113778   9.040  12.260  18.610
  575BOLB   GL113779   9.130  12.300  18.960
  575BOLB   GL213780   8.880  12.390  19.140
  575BOLB   C1A13781   9.150  12.070  19.340
  575BOLB   C2A13782   8.920  11.590  19.330
  575BOLB   C3A13783   8.950  11.160  19.470
  575BOLB   C4A13784   8.740  10.860  19.710
  575BOLB   C1B13785   8.440  12.510  19.220
  575BOLB   C2B13786   8.090  12.220  19.320
  575BOLB   C3B13787   8.050  11.900  19.620
  575BOLB   C4B13788   8.160  11.560  19.730
  575BOLB   NC213789   7.490   9.540  21.010
  575BOLB   PO213790   7.400   9.380  20.680
  575BOLB   GL313791   7.240   9.680  20.470
  575BOLB   GL413792   7.220   9.570  20.160
  575BOLB   C1C13793   7.340  10.070  20.440
  575BOLB   C2C13794   7.750  10.210  20.310
  575BOLB   C3C13795   8.050  10.540  20.050
  575BOLB   C4C13796   8.550  10.660  20.000
  575BOLB   C1D13797   7.450   9.950  19.930
  575BOLB   C2D13798   7.530  10.370  19.700
  575BOLB   C3D13799   7.750  10.770  19.600
  575BOLB   C4D13800   8.170  11.030  19.640
  576BOLB   NC113801  14.250  18.120  21.660
  576BOLB   PO113802  14.540  17.780  21.670
  576BOLB   GL113803  14.810  17.680  22.040
  576BOLB   GL213804  14.900  17.380  21.940
  576BOLB   C1A13805  15.030  17.650  22.450
  576BOLB   C2A13806  15.170  17.510  22.800
  576BOLB   C3A13807  14.960  17.580  23.130
  576BOLB   C4A13808  15.080  17.630  23.510
  576BOLB   C1B13809  15.200  17.250  22.220
  576BOLB   C2B13810  15.420  17.010  22.300
  576BOLB   C3B13811  15.730  16.760  22.530
  576BOLB   C4B13812  16.080  16.440  22.310
  576BOLB   NC213813  15.640  15.840  25.380
  576BOLB   PO213814  15.780  16.280  25.150
  576BOLB   GL313815  15.830  16.770  24.890
  576BOLB   GL413816  16.000  17.060  24.940
  576BOLB   C1C13817  15.620  16.930  24.570
  576BOLB   C2C13818  15.410  17.290  24.440
  576BOLB   C3C13819  15.230  17.490  24.250
  576BOLB   C4C13820  15.100  17.600  23.930
  576BOLB   C1D13821  15.910  17.340  24.570
  576BOLB   C2D13822  16.210  17.690  24.300
  576BOLB   C3D13823  16.150  17.900  23.920
  576BOLB   C4D13824  16.150  17.750  23.420
  577BOLB   NC113825  10.880  22.930  22.190
  577BOLB   PO113826  10.810  23.300  21.820
  577BOLB   GL113827  10.530  23.360  22.240
  577BOLB   GL213828  10.610  23.230  22.440
  577BOLB   C1A13829  10.480  23.630  22.660
  577BOLB   C2A13830  10.350  24.060  22.760
  577BOLB   C3A13831  10.430  24.410  23.140
  577BOLB   C4A13832  10.720  24.290  23.430
  577BOLB   C1B13833  10.590  23.110  22.830
  577BOLB   C2B13834  10.460  23.440  23.150
  577BOLB   C3B13835  10.560  23.840  23.170
  577BOLB   C4B13836  10.820  24.110  23.000
  577BOLB   NC213837  12.040  25.880  25.310
  577BOLB   PO213838  11.770  25.480  25.340
  577BOLB   GL313839  11.690  25.170  24.960
  577BOLB   GL413840  11.890  24.860  25.130
  577BOLB   C1C13841  11.790  25.140  24.540
  577BOLB   C2C13842  11.700  24.710  24.230
  577BOLB   C3C13843  11.570  24.480  23.860
  577BOLB   C4C13844  11.180  24.370  23.670
  577BOLB   C1D13845  12.190  24.870  24.810
  577BOLB   C2D13846  12.210  24.940  24.430
  577BOLB   C3D13847  12.210  24.640  24.090
  577BOLB   C4D13848  12.420  24.690  23.690
  578BOLB   NC113849   2.830  18.140  18.250
  578BOLB   PO113850   2.630  18.250  18.650
  578BOLB   GL113851   2.240  18.220  18.750
  578BOLB   GL213852   2.080  18.510  18.650
  578BOLB   C1A13853   2.040  18.250  19.180
  578BOLB   C2A13854   1.910  17.960  19.450
  578BOLB   C3A13855   1.780  17.840  19.920
  578BOLB   C4A13856   1.510  18.160  20.150
  578BOLB   C1B13857   1.630  18.690  18.660
  578BOLB   C2B13858   1.390  18.990  18.720
  578BOLB   C3B13859   1.230  19.400  18.950
  578BOLB   C4B13860   0.990  19.600  19.250
  578BOLB   NC213861   0.260  18.200  21.800
  578BOLB   PO213862   0.090  17.870  21.590
  578BOLB   GL313863   0.210  18.020  21.180
  578BOLB   GL413864   0.080  17.810  20.950
  578BOLB   C1C13865   0.490  18.330  21.060
  578BOLB   C2C13866   0.460  18.470  20.620
  578BOLB   C3C13867   0.740  18.460  20.340
  578BOLB   C4C13868   1.010  18.210  20.150
  578BOLB   C1D13869   0.380  17.940  20.670
  578BOLB   C2D13870   0.650  17.910  20.360
  578BOLB   C3D13871   0.910  17.620  20.160
  578BOLB   C4D13872   1.220  17.690  20.090
  579BOLB   NC113873   8.710  25.040  21.020
  579BOLB   PO113874   8.700  25.260  20.630
  579BOLB   GL113875   8.870  25.600  20.800
  579BOLB   GL213876   8.580  25.940  20.790
  579BOLB   C1A13877   9.040  25.930  21.130
  579BOLB   C2A13878   9.080  26.170  21.470
  579BOLB   C3A13879   9.060  26.550  21.770
  579BOLB   C4A13880   9.020  26.660  22.090
  579BOLB   C1B13881   8.590  26.180  21.110
  579BOLB   C2B13882   8.540  26.410  21.470
  579BOLB   C3B13883   8.580  26.630  21.750
  579BOLB   C4B13884   8.290  26.950  21.750
  579BOLB   NC213885   9.610  28.770  23.820
  579BOLB   PO213886   9.780  28.480  23.490
  579BOLB   GL313887   9.700  28.170  23.180
  579BOLB   GL413888  10.050  28.100  23.130
  579BOLB   C1C13889   9.450  27.800  23.070
  579BOLB   C2C13890   9.170  27.540  22.840
  579BOLB   C3C13891   9.010  27.470  22.480
  579BOLB   C4C13892   9.030  27.040  22.280
  579BOLB   C1D13893  10.030  27.680  23.270
  579BOLB   C2D13894  10.410  27.430  23.230
  579BOLB   C3D13895  10.640  27.510  22.960
  579BOLB   C4D13896  10.520  27.350  22.520
  580BOLB   NC113897   1.900  18.380  12.840
  580BOLB   PO113898   2.100  18.430  12.440
  580BOLB   GL113899   1.710  18.100  12.500
  580BOLB   GL213900   1.780  17.770  12.570
  580BOLB   C1A13901   1.320  18.120  12.310
  580BOLB   C2A13902   0.870  17.960  12.110
  580BOLB   C3A13903   0.510  17.690  12.060
  580BOLB   C4A13904   0.140  17.600  11.890
  580BOLB   C1B13905   1.440  17.630  12.270
  580BOLB   C2B13906   1.080  17.490  12.030
  580BOLB   C3B13907   0.890  17.630  11.690
  580BOLB   C4B13908   0.520  17.730  11.560
  580BOLB   NC213909  35.080  17.020  10.730
  580BOLB   PO213910  34.840  16.740  10.900
  580BOLB   GL313911  35.180  16.870  11.180
  580BOLB   GL413912  35.330  16.620  11.400
  580BOLB   C1C13913  35.320  17.200  11.330
  580BOLB   C2C13914  35.490  17.610  11.420
  580BOLB   C3C13915  35.760  17.710  11.600
  580BOLB   C4C13916  36.140  17.700  11.790
  580BOLB   C1D13917  35.550  16.890  11.640
  580BOLB   C2D13918  35.580  17.320  11.880
  580BOLB   C3D13919  35.820  17.210  12.230
  580BOLB   C4D13920  35.750  16.980  12.570
  581BOLB   NC113921  10.970  14.030  20.870
  581BOLB   PO113922  10.650  14.360  20.930
  581BOLB   GL113923  10.510  14.080  21.150
  581BOLB   GL213924  10.220  13.930  21.120
  581BOLB   C1A13925  10.550  13.840  21.430
  581BOLB   C2A13926  10.630  13.390  21.650
  581BOLB   C3A13927  10.370  13.030  21.840
  581BOLB   C4A13928  10.100  12.680  21.960
  581BOLB   C1B13929  10.210  13.460  21.250
  581BOLB   C2B13930  10.000  13.130  21.120
  581BOLB   C3B13931   9.890  12.780  21.340
  581BOLB   C4B13932   9.680  12.700  21.750
  581BOLB   NC213933   8.940  10.860  22.670
  581BOLB   PO213934   9.020  11.080  22.240
  581BOLB   GL313935   9.100  11.270  22.030
  581BOLB   GL413936   9.440  11.200  21.980
  581BOLB   C1C13937   9.100  11.730  22.060
  581BOLB   C2C13938   9.010  12.100  22.250
  581BOLB   C3C13939   9.210  12.440  22.240
  581BOLB   C4C13940   9.690  12.480  22.160
  581BOLB   C1D13941   9.350  11.550  21.670
  581BOLB   C2D13942   9.160  11.880  21.460
  581BOLB   C3D13943   9.240  12.200  21.090
  581BOLB   C4D13944   8.890  12.330  20.770
  582BOLB   NC113945  11.120  25.850  19.610
  582BOLB   PO113946  10.670  26.040  19.530
  582BOLB   GL113947  10.840  26.340  19.890
  582BOLB   GL213948  10.990  26.090  20.110
  582BOLB   C1A13949  10.790  26.760  20.140
  582BOLB   C2A13950  10.690  27.220  20.080
  582BOLB   C3A13951  10.740  27.650  20.090
  582BOLB   C4A13952  10.700  28.040  20.290
  582BOLB   C1B13953  10.910  26.420  20.430
  582BOLB   C2B13954  10.460  26.430  20.740
  582BOLB   C3B13955  10.250  26.490  21.090
  582BOLB   C4B13956  10.050  26.690  21.380
  582BOLB   NC213957  10.670  30.090  21.310
  582BOLB   PO213958  10.830  29.670  21.570
  582BOLB   GL313959  10.910  29.280  21.460
  582BOLB   GL413960  11.060  29.220  21.180
  582BOLB   C1C13961  10.850  28.780  21.390
  582BOLB   C2C13962  10.510  28.620  21.140
  582BOLB   C3C13963  10.240  28.520  20.740
  582BOLB   C4C13964  10.370  28.260  20.520
  582BOLB   C1D13965  10.990  28.980  20.800
  582BOLB   C2D13966  10.950  29.030  20.320
  582BOLB   C3D13967  10.730  28.860  20.040
  582BOLB   C4D13968  10.430  28.850  19.740
  583BOLB   NC113969  13.140  21.600  22.050
  583BOLB   PO113970  12.860  21.330  22.360
  583BOLB   GL113971  12.920  21.570  22.700
  583BOLB   GL213972  12.920  21.450  23.050
  583BOLB   C1A13973  13.180  21.900  22.950
  583BOLB   C2A13974  13.250  22.070  23.290
  583BOLB   C3A13975  13.540  22.130  23.550
  583BOLB   C4A13976  13.600  22.120  23.970
  583BOLB   C1B13977  13.200  21.580  23.340
  583BOLB   C2B13978  13.200  21.720  23.720
  583BOLB   C3B13979  13.070  22.140  23.970
  583BOLB   C4B13980  12.870  22.390  24.200
  583BOLB   NC213981  13.680  21.310  26.680
  583BOLB   PO213982  13.750  21.680  26.390
  583BOLB   GL313983  13.740  21.600  25.970
  583BOLB   GL413984  13.850  21.370  25.830
  583BOLB   C1C13985  13.590  21.850  25.630
  583BOLB   C2C13986  13.570  22.060  25.220
  583BOLB   C3C13987  13.610  21.980  24.840
  583BOLB   C4C13988  13.670  22.130  24.400
  583BOLB   C1D13989  13.810  21.000  25.710
  583BOLB   C2D13990  13.450  20.730  25.590
  583BOLB   C3D13991  13.340  20.610  25.120
  583BOLB   C4D13992  13.350  20.570  24.580
  584BOLB   NC113993  18.080  15.300  18.040
  584BOLB   PO113994  17.820  15.430  18.280
  584BOLB   GL113995  18.230  15.260  18.500
  584BOLB   GL213996  18.530  15.090  18.310
  584BOLB   C1A13997  18.580  15.040  18.810
  584BOLB   C2A13998  18.870  14.700  18.820
  584BOLB   C3A13999  19.150  14.350  18.710
  584BOLB   C4A14000  19.640  14.450  18.530
  584BOLB   C1B14001  18.890  14.980  18.150
  584BOLB   C2B14002  19.210  14.690  18.260
  584BOLB   C3B14003  19.540  14.480  18.030
  584BOLB   C4B14004  19.790  14.330  17.810
  584BOLB   NC214005  22.010  13.460  17.730
  584BOLB   PO214006  22.000  13.680  18.090
  584BOLB   GL314007  21.550  13.550  18.140
  584BOLB   GL414008  21.540  13.540  17.840
  584BOLB   C1C14009  21.330  13.690  18.520
  584BOLB   C2C14010  20.800  13.760  18.670
  584BOLB   C3C14011  20.410  14.120  18.510
  584BOLB   C4C14012  19.920  14.120  18.610
  584BOLB   C1D14013  21.190  13.770  17.520
  584BOLB   C2D14014  20.840  14.120  17.700
  584BOLB   C3D14015  20.400  14.130  17.800
  584BOLB   C4D14016  20.060  14.030  17.550
  585BOLB   NC114017  10.800  11.730  17.650
  585BOLB   PO114018  10.570  11.410  18.000
  585BOLB   GL114019  10.570  11.010  17.960
  585BOLB   GL214020  10.340  10.710  17.950
  585BOLB   C1A14021  10.730  10.580  18.200
  585BOLB   C2A14022  10.950  10.160  18.280
  585BOLB   C3A14023  10.940   9.710  18.440
  585BOLB   C4A14024  10.980   9.330  18.470
  585BOLB   C1B14025  10.300  10.380  18.250
  585BOLB   C2B14026  10.440   9.950  18.420
  585BOLB   C3B14027  10.550   9.600  18.700
  585BOLB   C4B14028  10.800   9.380  19.120
  585BOLB   NC214029  10.130   7.120  18.950
  585BOLB   PO214030   9.800   7.410  18.910
  585BOLB   GL314031   9.740   7.720  18.510
  585BOLB   GL414032   9.640   8.000  18.450
  585BOLB   C1C14033  10.140   7.860  18.240
  585BOLB   C2C14034  10.450   8.160  18.150
  585BOLB   C3C14035  10.680   8.480  18.410
  585BOLB   C4C14036  10.860   8.930  18.540
  585BOLB   C1D14037   9.600   8.360  18.460
  585BOLB   C2D14038   9.500   8.810  18.380
  585BOLB   C3D14039   9.510   9.120  18.020
  585BOLB   C4D14040   9.750   9.560  18.070
  586BOLB   NC114041   3.400  20.070  19.550
  586BOLB   PO114042   3.390  20.390  19.790
  586BOLB   GL114043   3.120  20.510  20.110
  586BOLB   GL214044   3.210  20.230  20.260
  586BOLB   C1A14045   3.080  20.640  20.490
  586BOLB   C2A14046   2.890  20.590  20.920
  586BOLB   C3A14047   2.580  20.710  21.140
  586BOLB   C4A14048   2.170  20.700  21.070
  586BOLB   C1B14049   2.880  20.130  20.370
  586BOLB   C2B14050   2.620  20.130  20.720
  586BOLB   C3B14051   2.240  20.140  21.040
  586BOLB   C4B14052   1.950  20.210  21.350
  586BOLB   NC214053   0.650  21.740  22.600
  586BOLB   PO214054   0.820  22.230  22.590
  586BOLB   GL314055   1.220  21.970  22.490
  586BOLB   GL414056   1.500  21.900  22.770
  586BOLB   C1C14057   1.430  21.810  22.090
  586BOLB   C2C14058   1.810  21.490  22.110
  586BOLB   C3C14059   1.870  21.230  21.790
  586BOLB   C4C14060   1.990  21.030  21.320
  586BOLB   C1D14061   1.750  21.950  22.380
  586BOLB   C2D14062   1.890  21.980  21.980
  586BOLB   C3D14063   1.740  21.680  21.610
  586BOLB   C4D14064   1.740  21.460  21.260
  587BOLB   NC114065  10.430  14.880  20.910
  587BOLB   PO114066  10.230  15.300  21.000
  587BOLB   GL114067  10.170  15.100  21.410
  587BOLB   GL214068  10.210  14.760  21.370
  587BOLB   C1A14069   9.990  14.880  21.830
  587BOLB   C2A14070  10.050  14.570  22.170
  587BOLB   C3A14071   9.910  14.230  22.410
  587BOLB   C4A14072   9.790  13.880  22.760
  587BOLB   C1B14073  10.360  14.510  21.740
  587BOLB   C2B14074  10.480  14.390  22.120
  587BOLB   C3B14075  10.610  14.260  22.430
  587BOLB   C4B14076  10.670  13.950  22.700
  587BOLB   NC214077   9.200  11.840  23.880
  587BOLB   PO214078   9.290  12.160  24.150
  587BOLB   GL314079   9.310  12.430  23.940
  587BOLB   GL414080   9.410  12.320  23.610
  587BOLB   C1C14081   9.130  12.710  23.580
  587BOLB   C2C14082   8.950  13.100  23.350
  587BOLB   C3C14083   9.120  13.410  22.980
  587BOLB   C4C14084   9.410  13.660  22.870
  587BOLB   C1D14085   9.550  12.480  23.270
  587BOLB   C2D14086   9.870  12.740  23.120
  587BOLB   C3D14087  10.210  12.780  22.870
  587BOLB   C4D14088  10.220  13.200  22.730
  588BOLB   NC114089   9.930   6.830  18.030
  588BOLB   PO114090  10.150   6.890  17.620
  588BOLB   GL114091  10.120   7.280  17.380
  588BOLB   GL214092   9.770   7.370  17.380
  588BOLB   C1A14093  10.190   7.670  17.200
  588BOLB   C2A14094  10.170   8.150  17.300
  588BOLB   C3A14095  10.200   8.630  17.330
  588BOLB   C4A14096  10.190   8.820  17.000
  588BOLB   C1B14097   9.820   7.840  17.430
  588BOLB   C2B14098   9.620   8.200  17.520
  588BOLB   C3B14099   9.150   8.300  17.460
  588BOLB   C4B14100   8.880   8.010  17.720
  588BOLB   NC214101  10.560  10.760  15.610
  588BOLB   PO214102  10.480  10.800  16.140
  588BOLB   GL314103  10.500  10.330  16.150
  588BOLB   GL414104  10.500  10.110  16.440
  588BOLB   C1C14105  10.230  10.010  16.050
  588BOLB   C2C14106   9.990   9.630  16.130
  588BOLB   C3C14107  10.260   9.370  16.390
  588BOLB   C4C14108  10.400   9.000  16.620
  588BOLB   C1D14109  10.650   9.670  16.380
  588BOLB   C2D14110  10.770   9.280  16.410
  588BOLB   C3D14111  10.750   8.860  16.250
  588BOLB   C4D14112  10.480   8.540  16.340
  589BOLB   NC114113  18.370  15.560  17.340
  589BOLB   PO114114  18.320  15.210  17.660
  589BOLB   GL114115  18.470  14.840  17.860
  589BOLB   GL214116  18.610  14.550  17.740
  589BOLB   C1A14117  18.390  14.520  18.190
  589BOLB   C2A14118  18.570  14.300  18.640
  589BOLB   C3A14119  18.790  14.130  18.950
  589BOLB   C4A14120  18.790  13.850  19.340
  589BOLB   C1B14121  18.880  14.390  18.100
  589BOLB   C2B14122  19.230  14.050  18.210
  589BOLB   C3B14123  19.650  14.000  18.140
  589BOLB   C4B14124  20.060  14.080  18.120
  589BOLB   NC214125  19.440  12.440  20.660
  589BOLB   PO214126  19.270  12.380  21.040
  589BOLB   GL314127  18.910  12.460  20.940
  589BOLB   GL414128  18.840  12.770  20.920
  589BOLB   C1C14129  18.790  12.610  20.470
  589BOLB   C2C14130  18.890  12.990  20.170
  589BOLB   C3C14131  18.850  13.330  20.060
  589BOLB   C4C14132  18.830  13.490  19.680
  589BOLB   C1D14133  18.560  12.850  21.330
  589BOLB   C2D14134  18.110  12.890  21.300
  589BOLB   C3D14135  17.920  13.110  21.070
  589BOLB   C4D14136  18.010  13.230  20.710
  590BOLB   NC114137   4.590  16.950  19.420
  590BOLB   PO114138   5.000  16.820  19.570
  590BOLB   GL114139   4.630  16.490  19.650
  590BOLB   GL214140   4.440  16.380  19.450
  590BOLB   C1A14141   4.300  16.280  19.990
  590BOLB   C2A14142   4.170  15.910  20.200
  590BOLB   C3A14143   3.910  15.600  20.300
  590BOLB   C4A14144   3.830  15.330  20.600
  590BOLB   C1B14145   4.210  15.990  19.570
  590BOLB   C2B14146   4.120  15.670  19.760
  590BOLB   C3B14147   4.270  15.330  20.020
  590BOLB   C4B14148   4.030  15.080  20.170
  590BOLB   NC214149   2.700  13.430  21.790
  590BOLB   PO214150   3.060  13.240  22.050
  590BOLB   GL314151   3.150  13.540  21.610
  590BOLB   GL414152   3.560  13.600  21.550
  590BOLB   C1C14153   3.100  14.000  21.370
  590BOLB   C2C14154   3.410  14.380  21.260
  590BOLB   C3C14155   3.460  14.790  21.330
  590BOLB   C4C14156   3.660  15.130  21.000
  590BOLB   C1D14157   3.520  13.860  21.200
  590BOLB   C2D14158   3.680  14.160  20.870
  590BOLB   C3D14159   3.920  14.300  20.490
  590BOLB   C4D14160   4.130  14.590  20.210
  591BOLB   NC114161   4.510  14.500  17.280
  591BOLB   PO114162   4.580  14.320  17.600
  591BOLB   GL114163   4.290  14.020  17.710
  591BOLB   GL214164   4.490  13.690  17.680
  591BOLB   C1A14165   3.930  13.860  17.900
  591BOLB   C2A14166   3.750  13.660  18.230
  591BOLB   C3A14167   3.850  13.450  18.530
  591BOLB   C4A14168   3.780  13.070  18.760
  591BOLB   C1B14169   4.250  13.410  17.880
  591BOLB   C2B14170   3.880  13.250  17.940
  591BOLB   C3B14171   3.510  13.170  18.190
  591BOLB   C4B14172   3.250  13.530  18.210
  591BOLB   NC214173   2.060  11.380  19.590
  591BOLB   PO214174   1.910  11.500  19.230
  591BOLB   GL314175   2.140  11.870  19.060
  591BOLB   GL414176   2.230  11.970  18.610
  591BOLB   C1C14177   2.560  12.040  19.080
  591BOLB   C2C14178   2.880  12.270  18.910
  591BOLB   C3C14179   3.240  12.500  18.720
  591BOLB   C4C14180   3.560  12.720  18.690
  591BOLB   C1D14181   2.440  12.410  18.670
  591BOLB   C2D14182   2.460  12.800  18.420
  591BOLB   C3D14183   2.750  13.160  18.390
  591BOLB   C4D14184   2.920  13.550  18.570
  592BOLB   NC114185  10.510  21.280  22.700
  592BOLB   PO114186  10.040  21.360  22.900
  592BOLB   GL114187  10.170  21.520  23.300
  592BOLB   GL214188  10.500  21.470  23.350
  592BOLB   C1A14189  10.130  21.450  23.800
  592BOLB   C2A14190  10.400  21.170  24.130
  592BOLB   C3A14191  10.730  21.190  24.400
  592BOLB   C4A14192  11.060  21.270  24.590
  592BOLB   C1B14193  10.650  21.550  23.780
  592BOLB   C2B14194  10.490  21.680  24.130
  592BOLB   C3B14195  10.360  22.030  24.380
  592BOLB   C4B14196  10.420  22.030  24.830
  592BOLB   NC214197  12.440  20.570  26.760
  592BOLB   PO214198  12.420  21.020  26.760
  592BOLB   GL314199  12.080  21.150  26.390
  592BOLB   GL414200  11.770  21.030  26.210
  592BOLB   C1C14201  12.030  21.240  25.900
  592BOLB   C2C14202  11.650  21.280  25.780
  592BOLB   C3C14203  11.460  21.470  25.340
  592BOLB   C4C14204  11.200  21.130  25.010
  592BOLB   C1D14205  11.780  20.770  25.870
  592BOLB   C2D14206  12.030  20.800  25.560
  592BOLB   C3D14207  12.350  20.660  25.170
  592BOLB   C4D14208  12.480  20.270  25.010
  593BOLB   NC114209   3.810  15.370  16.350
  593BOLB   PO114210   3.390  15.410  16.280
  593BOLB   GL114211   3.010  15.050  16.220
  593BOLB   GL214212   2.730  15.140  16.160
  593BOLB   C1A14213   2.880  14.690  16.440
  593BOLB   C2A14214   2.680  14.360  16.650
  593BOLB   C3A14215   2.710  14.070  16.960
  593BOLB   C4A14216   2.580  13.710  17.180
  593BOLB   C1B14217   2.450  14.900  16.240
  593BOLB   C2B14218   2.270  14.450  16.300
  593BOLB   C3B14219   2.240  14.070  16.200
  593BOLB   C4B14220   2.000  13.730  16.290
  593BOLB   NC214221   1.100  11.350  18.470
  593BOLB   PO214222   1.190  11.730  18.050
  593BOLB   GL314223   1.490  12.190  17.960
  593BOLB   GL414224   1.310  12.480  18.070
  593BOLB   C1C14225   1.790  12.580  18.070
  593BOLB   C2C14226   2.120  12.900  18.080
  593BOLB   C3C14227   2.340  13.270  17.940
  593BOLB   C4C14228   2.410  13.440  17.490
  593BOLB   C1D14229   1.430  12.520  17.640
  593BOLB   C2D14230   1.460  12.640  17.230
  593BOLB   C3D14231   1.840  12.750  17.210
  593BOLB   C4D14232   2.260  12.650  17.160
  594BOLB   NC114233   9.130  21.630  22.650
  594BOLB   PO114234   8.780  21.400  22.790
  594BOLB   GL114235   8.710  21.420  23.270
  594BOLB   GL214236   8.950  21.260  23.290
  594BOLB   C1A14237   8.610  21.230  23.680
  594BOLB   C2A14238   8.400  21.080  23.960
  594BOLB   C3A14239   8.120  21.140  24.290
  594BOLB   C4A14240   7.960  21.080  24.800
  594BOLB   C1B14241   9.100  21.440  23.740
  594BOLB   C2B14242   9.080  21.390  24.220
  594BOLB   C3B14243   9.350  21.510  24.500
  594BOLB   C4B14244   9.580  21.670  24.810
  594BOLB   NC214245   8.280  20.810  27.250
  594BOLB   PO214246   8.180  21.200  27.110
  594BOLB   GL314247   8.030  21.270  26.610
  594BOLB   GL414248   7.810  21.060  26.490
  594BOLB   C1C14249   7.910  21.560  26.360
  594BOLB   C2C14250   7.710  21.430  26.050
  594BOLB   C3C14251   7.730  21.350  25.530
  594BOLB   C4C14252   7.710  21.070  25.180
  594BOLB   C1D14253   8.160  21.300  25.980
  594BOLB   C2D14254   8.200  21.200  25.580
  594BOLB   C3D14255   8.010  21.450  25.120
  594BOLB   C4D14256   8.150  21.530  24.630
  595BOLB   NC114257   4.390  16.440  18.780
  595BOLB   PO114258   4.360  15.960  18.590
  595BOLB   GL114259   4.020  15.770  18.840
  595BOLB   GL214260   4.100  15.430  18.770
  595BOLB   C1A14261   3.690  15.540  19.120
  595BOLB   C2A14262   3.430  15.230  19.220
  595BOLB   C3A14263   3.100  15.160  19.360
  595BOLB   C4A14264   2.740  15.400  19.550
  595BOLB   C1B14265   3.650  15.200  18.740
  595BOLB   C2B14266   3.570  14.900  18.740
  595BOLB   C3B14267   3.290  14.560  18.760
  595BOLB   C4B14268   3.110  14.170  18.870
  595BOLB   NC214269   1.760  14.760  21.680
  595BOLB   PO214270   1.820  14.400  21.350
  595BOLB   GL314271   1.780  14.630  21.040
  595BOLB   GL414272   1.890  14.940  21.160
  595BOLB   C1C14273   2.010  14.680  20.730
  595BOLB   C2C14274   2.340  14.880  20.560
  595BOLB   C3C14275   2.330  15.200  20.320
  595BOLB   C4C14276   2.390  15.290  19.890
  595BOLB   C1D14277   2.140  15.220  20.850
  595BOLB   C2D14278   2.420  15.430  20.770
  595BOLB   C3D14279   2.570  15.860  20.570
  595BOLB   C4D14280   2.750  16.070  20.160
  596BOLB   NC114281   5.180  13.130  14.200
  596BOLB   PO114282   4.880  13.410  14.520
  596BOLB   GL114283   4.740  13.020  14.450
  596BOLB   GL214284   4.920  12.830  14.480
  596BOLB   C1A14285   4.420  12.800  14.450
  596BOLB   C2A14286   4.000  12.530  14.400
  596BOLB   C3A14287   3.630  12.380  14.350
  596BOLB   C4A14288   3.580  11.960  14.400
  596BOLB   C1B14289   4.800  12.480  14.380
  596BOLB   C2B14290   4.620  11.980  14.130
  596BOLB   C3B14291   4.240  11.770  13.970
  596BOLB   C4B14292   3.770  11.750  14.000
  596BOLB   NC214293   1.030  10.900  14.170
  596BOLB   PO214294   1.420  10.680  14.180
  596BOLB   GL314295   1.810  10.950  14.200
  596BOLB   GL414296   2.180  10.780  14.180
  596BOLB   C1C14297   2.100  11.300  14.220
  596BOLB   C2C14298   2.540  11.550  14.400
  596BOLB   C3C14299   3.000  11.580  14.490
  596BOLB   C4C14300   3.320  11.640  14.310
  596BOLB   C1D14301   2.330  10.760  13.810
  596BOLB   C2D14302   2.410  11.220  13.820
  596BOLB   C3D14303   2.550  11.590  13.680
  596BOLB   C4D14304   3.010  11.790  13.650
  597BOLB   NC114305  16.160  12.880  17.610
  597BOLB   PO114306  15.840  12.620  17.320
  597BOLB   GL114307  15.960  12.410  17.640
  597BOLB   GL214308  15.940  12.480  17.950
  597BOLB   C1A14309  16.160  12.010  17.720
  597BOLB   C2A14310  16.460  11.900  17.790
  597BOLB   C3A14311  16.740  11.560  17.910
  597BOLB   C4A14312  16.940  11.320  18.120
  597BOLB   C1B14313  16.180  12.220  18.200
  597BOLB   C2B14314  16.310  11.850  18.370
  597BOLB   C3B14315  16.610  11.650  18.710
  597BOLB   C4B14316  16.580  11.500  19.150
  597BOLB   NC214317  17.770  10.770  20.570
  597BOLB   PO214318  17.980  10.460  20.240
  597BOLB   GL314319  17.730  10.690  20.030
  597BOLB   GL414320  17.870  10.980  19.830
  597BOLB   C1C14321  17.620  10.600  19.590
  597BOLB   C2C14322  17.520  10.680  19.150
  597BOLB   C3C14323  17.180  10.800  18.860
  597BOLB   C4C14324  16.960  11.010  18.440
  597BOLB   C1D14325  17.660  11.320  19.700
  597BOLB   C2D14326  17.500  11.640  20.040
  597BOLB   C3D14327  17.560  11.940  20.310
  597BOLB   C4D14328  17.800  12.200  20.670
  598BOLB   NC114329   9.870  13.690   8.890
  598BOLB   PO114330   9.690  13.490   8.970
  598BOLB   GL114331   9.490  13.330   8.670
  598BOLB   GL214332   9.270  13.390   8.620
  598BOLB   C1A14333   9.290  12.920   8.320
  598BOLB   C2A14334   8.960  12.940   8.020
  598BOLB   C3A14335   8.510  12.830   7.700
  598BOLB   C4A14336   8.410  12.940   7.260
  598BOLB   C1B14337   8.960  13.410   8.250
  598BOLB   C2B14338   8.640  13.340   8.030
  598BOLB   C3B14339   8.440  13.390   7.540
  598BOLB   C4B14340   8.320  13.430   7.160
  598BOLB   NC214341   8.030  11.820   5.380
  598BOLB   PO214342   8.290  12.070   5.290
  598BOLB   GL314343   8.370  11.980   5.670
  598BOLB   GL414344   8.350  11.640   5.850
  598BOLB   C1C14345   8.270  12.240   6.060
  598BOLB   C2C14346   8.440  12.550   6.370
  598BOLB   C3C14347   8.500  12.900   6.450
  598BOLB   C4C14348   8.580  12.900   6.850
  598BOLB   C1D14349   8.730  11.730   5.990
  598BOLB   C2D14350   8.810  12.150   6.170
  598BOLB   C3D14351   9.100  12.340   6.450
  598BOLB   C4D14352   9.080  12.710   6.820
  599BOLB   NC114353  16.490  13.100  14.510
  599BOLB   PO114354  16.860  12.990  14.760
  599BOLB   GL114355  17.290  12.760  14.770
  599BOLB   GL214356  17.340  12.870  14.420
  599BOLB   C1A14357  17.700  12.470  14.580
  599BOLB   C2A14358  17.760  12.100  14.720
  599BOLB   C3A14359  17.880  11.710  14.880
  599BOLB   C4A14360  17.980  11.430  15.250
  599BOLB   C1B14361  17.720  12.670  14.150
  599BOLB   C2B14362  18.010  12.370  14.230
  599BOLB   C3B14363  18.240  12.150  14.630
  599BOLB   C4B14364  18.540  11.980  14.670
  599BOLB   NC214365  19.280   9.800  15.290
  599BOLB   PO214366  19.590   9.950  15.130
  599BOLB   GL314367  19.350  10.330  15.060
  599BOLB   GL414368  19.400  10.540  15.280
  599BOLB   C1C14369  19.180  10.610  14.820
  599BOLB   C2C14370  18.810  10.870  14.910
  599BOLB   C3C14371  18.670  11.070  15.240
  599BOLB   C4C14372  18.290  11.200  15.330
  599BOLB   C1D14373  19.390  10.980  15.050
  599BOLB   C2D14374  19.020  11.400  15.210
  599BOLB   C3D14375  18.710  11.510  15.380
  599BOLB   C4D14376  18.360  11.650  15.540
  600BOLB   NC114377   4.410  24.220  19.770
  600BOLB   PO114378   3.980  24.010  19.670
  600BOLB   GL114379   3.960  24.270  20.090
  600BOLB   GL214380   4.340  24.480  20.180
  600BOLB   C1A14381   3.840  24.620  20.320
  600BOLB   C2A14382   3.650  24.680  20.760
  600BOLB   C3A14383   3.700  25.000  21.020
  600BOLB   C4A14384   3.600  25.430  21.240
  600BOLB   C1B14385   4.410  24.940  20.150
  600BOLB   C2B14386   4.230  25.270  20.340
  600BOLB   C3B14387   4.360  25.610  20.110
  600BOLB   C4B14388   4.280  26.000  20.120
  600BOLB   NC214389   3.340  26.210  23.450
  600BOLB   PO214390   3.230  26.640  23.370
  600BOLB   GL314391   3.210  26.510  22.970
  600BOLB   GL414392   3.240  26.270  23.010
  600BOLB   C1C14393   3.160  26.350  22.460
  600BOLB   C2C14394   3.030  26.060  22.160
  600BOLB   C3C14395   3.200  25.870  21.760
  600BOLB   C4C14396   3.400  25.510  21.620
  600BOLB   C1D14397   3.480  26.020  22.800
  600BOLB   C2D14398   3.590  26.010  22.430
  600BOLB   C3D14399   3.740  25.710  22.010
  600BOLB   C4D14400   4.000  25.770  21.660
  601BOLB   NC114401  10.290  20.510  22.730
  601BOLB   PO114402  10.230  20.910  22.700
  601BOLB   GL114403  10.340  20.950  23.190
  601BOLB   GL214404  10.080  21.060  23.310
  601BOLB   C1A14405  10.490  21.060  23.660
  601BOLB   C2A14406  10.900  21.020  23.910
  601BOLB   C3A14407  11.040  20.750  24.260
  601BOLB   C4A14408  11.280  20.560  24.510
  601BOLB   C1B14409   9.860  20.950  23.670
  601BOLB   C2B14410   9.880  21.120  24.090
  601BOLB   C3B14411   9.890  21.190  24.440
  601BOLB   C4B14412   9.790  21.190  24.810
  601BOLB   NC214413  11.540  19.970  27.240
  601BOLB   PO214414  11.210  20.060  26.910
  601BOLB   GL314415  11.260  20.220  26.550
  601BOLB   GL414416  11.470  20.490  26.420
  601BOLB   C1C14417  10.920  20.090  26.170
  601BOLB   C2C14418  11.000  20.200  25.700
  601BOLB   C3C14419  11.240  20.270  25.350
  601BOLB   C4C14420  11.290  20.380  24.910
  601BOLB   C1D14421  11.410  20.490  25.940
  601BOLB   C2D14422  11.310  20.660  25.650
  601BOLB   C3D14423  11.480  20.950  25.470
  601BOLB   C4D14424  11.800  21.140  25.110
  602BOLB   NC114425   5.450  22.780  20.520
  602BOLB   PO114426   5.100  22.770  20.640
  602BOLB   GL114427   4.860  22.900  21.060
  602BOLB   GL214428   4.670  23.230  21.040
  602BOLB   C1A14429   4.710  22.880  21.430
  602BOLB   C2A14430   4.680  22.880  21.870
  602BOLB   C3A14431   4.370  22.850  22.100
  602BOLB   C4A14432   4.000  22.800  22.330
  602BOLB   C1B14433   4.400  23.360  21.270
  602BOLB   C2B14434   4.200  23.420  21.600
  602BOLB   C3B14435   4.050  23.230  22.000
  602BOLB   C4B14436   4.000  23.370  22.390
  602BOLB   NC214437   3.570  23.420  24.870
  602BOLB   PO214438   3.180  23.310  24.870
  602BOLB   GL314439   3.260  23.100  24.500
  602BOLB   GL414440   3.550  23.070  24.460
  602BOLB   C1C14441   3.280  23.260  24.040
  602BOLB   C2C14442   3.500  23.230  23.640
  602BOLB   C3C14443   3.810  23.230  23.240
  602BOLB   C4C14444   3.920  23.020  22.740
  602BOLB   C1D14445   3.750  23.210  24.060
  602BOLB   C2D14446   4.040  23.160  23.690
  602BOLB   C3D14447   4.500  23.320  23.630
  602BOLB   C4D14448   4.620  23.520  24.100
  603BOLB   NC114449   4.290  20.410  20.980
  603BOLB   PO114450   4.210  20.840  20.930
  603BOLB   GL114451   4.090  20.800  21.290
  603BOLB   GL214452   4.190  21.140  21.410
  603BOLB   C1A14453   3.800  20.630  21.550
  603BOLB   C2A14454   3.520  20.690  21.800
  603BOLB   C3A14455   3.190  20.580  21.980
  603BOLB   C4A14456   2.870  20.400  22.320
  603BOLB   C1B14457   3.830  21.180  21.540
  603BOLB   C2B14458   3.590  21.440  21.940
  603BOLB   C3B14459   3.590  21.530  22.480
  603BOLB   C4B14460   3.560  21.300  22.850
  603BOLB   NC214461   0.740  19.840  23.140
  603BOLB   PO214462   1.020  19.590  23.520
  603BOLB   GL314463   1.280  19.910  23.240
  603BOLB   GL414464   1.590  19.910  23.190
  603BOLB   C1C14465   1.430  20.360  23.040
  603BOLB   C2C14466   1.870  20.230  22.810
  603BOLB   C3C14467   2.210  19.970  22.640
  603BOLB   C4C14468   2.630  20.050  22.400
  603BOLB   C1D14469   1.490  19.890  22.780
  603BOLB   C2D14470   1.200  20.080  22.600
  603BOLB   C3D14471   1.020  20.420  22.320
  603BOLB   C4D14472   0.660  20.570  22.010
  604BOLB   NC114473  12.810  19.180  22.570
  604BOLB   PO114474  12.720  18.800  22.870
  604BOLB   GL114475  13.000  18.650  23.140
  604BOLB   GL214476  13.250  18.770  23.070
  604BOLB   C1A14477  13.190  18.460  23.420
  604BOLB   C2A14478  13.540  18.560  23.550
  604BOLB   C3A14479  13.670  18.850  23.790
  604BOLB   C4A14480  13.750  19.270  24.100
  604BOLB   C1B14481  13.420  19.060  23.320
  604BOLB   C2B14482  13.480  19.310  23.710
  604BOLB   C3B14483  13.310  19.510  24.100
  604BOLB   C4B14484  12.980  19.630  24.270
  604BOLB   NC214485  15.290  18.800  25.830
  604BOLB   PO214486  15.060  19.240  25.750
  604BOLB   GL314487  14.920  19.330  25.430
  604BOLB   GL414488  14.660  19.070  25.440
  604BOLB   C1C14489  14.930  19.400  25.000
  604BOLB   C2C14490  14.810  19.310  24.650
  604BOLB   C3C14491  14.320  19.480  24.570
  604BOLB   C4C14492  14.050  19.510  24.170
  604BOLB   C1D14493  14.650  18.770  24.970
  604BOLB   C2D14494  14.460  18.450  24.690
  604BOLB   C3D14495  14.420  18.360  24.250
  604BOLB   C4D14496  14.460  18.270  23.830
  605BOLB   NC114497  12.840  16.840  21.790
  605BOLB   PO114498  13.170  17.210  21.970
  605BOLB   GL114499  13.320  16.960  22.180
  605BOLB   GL214500  13.310  17.020  22.480
  605BOLB   C1A14501  13.380  16.500  22.350
  605BOLB   C2A14502  13.650  16.080  22.440
  605BOLB   C3A14503  14.040  15.800  22.590
  605BOLB   C4A14504  14.300  15.670  22.920
  605BOLB   C1B14505  13.290  16.920  22.880
  605BOLB   C2B14506  13.070  16.720  23.240
  605BOLB   C3B14507  13.100  16.290  23.300
  605BOLB   C4B14508  13.180  15.890  23.470
  605BOLB   NC214509  14.770  14.950  25.490
  605BOLB   PO214510  14.590  15.000  25.160
  605BOLB   GL314511  14.620  14.850  24.660
  605BOLB   GL414512  14.410  14.850  24.450
  605BOLB   C1C14513  14.760  15.130  24.310
  605BOLB   C2C14514  15.000  15.190  23.940
  605BOLB   C3C14515  14.760  15.080  23.520
  605BOLB   C4C14516  14.480  15.500  23.260
  605BOLB   C1D14517  14.250  15.140  24.050
  605BOLB   C2D14518  14.220  15.240  23.610
  605BOLB   C3D14519  13.970  15.290  23.170
  605BOLB   C4D14520  13.700  15.190  22.890
  606BOLB   NC114521   8.450  11.500  12.090
  606BOLB   PO114522   8.050  11.390  12.290
  606BOLB   GL114523   7.790  11.270  12.000
  606BOLB   GL214524   7.540  11.310  12.180
  606BOLB   C1A14525   7.750  10.960  11.880
  606BOLB   C2A14526   7.540  10.630  11.740
  606BOLB   C3A14527   7.780  10.320  11.550
  606BOLB   C4A14528   8.020  10.280  11.190
  606BOLB   C1B14529   7.350  10.850  12.170
  606BOLB   C2B14530   7.350  10.390  12.150
  606BOLB   C3B14531   7.210   9.940  12.130
  606BOLB   C4B14532   7.000   9.580  12.250
  606BOLB   NC214533   8.790  12.860  10.850
  606BOLB   PO214534   8.810  12.400  10.700
  606BOLB   GL314535   8.750  11.990  10.690
  606BOLB   GL414536   8.850  11.790  10.560
  606BOLB   C1C14537   8.440  11.650  10.330
  606BOLB   C2C14538   8.120  11.240  10.420
  606BOLB   C3C14539   8.110  10.830  10.680
  606BOLB   C4C14540   8.000  10.640  10.930
  606BOLB   C1D14541   8.960  11.450  10.340
  606BOLB   C2D14542   8.760  11.160  10.070
  606BOLB   C3D14543   8.610  10.760   9.890
  606BOLB   C4D14544   8.460  10.440   9.590
  607BOLB   NC114545   7.200  24.540  21.480
  607BOLB   PO114546   7.450  24.360  21.790
  607BOLB   GL114547   7.440  24.720  22.130
  607BOLB   GL214548   7.200  24.950  21.960
  607BOLB   C1A14549   7.590  25.050  22.360
  607BOLB   C2A14550   7.550  25.170  22.830
  607BOLB   C3A14551   7.800  25.090  23.210
  607BOLB   C4A14552   8.130  25.260  23.310
  607BOLB   C1B14553   7.230  25.390  22.150
  607BOLB   C2B14554   7.270  25.570  22.500
  607BOLB   C3B14555   7.270  25.580  23.010
  607BOLB   C4B14556   7.330  25.250  23.320
  607BOLB   NC214557   8.210  25.640  25.680
  607BOLB   PO214558   8.360  26.000  25.330
  607BOLB   GL314559   8.340  25.590  25.200
  607BOLB   GL414560   8.430  25.670  24.920
  607BOLB   C1C14561   7.990  25.360  24.890
  607BOLB   C2C14562   8.090  25.220  24.550
  607BOLB   C3C14563   8.350  25.290  24.120
  607BOLB   C4C14564   8.150  25.490  23.810
  607BOLB   C1D14565   8.210  25.680  24.550
  607BOLB   C2D14566   7.910  25.590  24.230
  607BOLB   C3D14567   7.770  25.890  23.940
  607BOLB   C4D14568   7.700  26.360  23.970
  608BOLB   NC114569   9.350  14.370  20.210
  608BOLB   PO114570   9.320  14.320  20.630
  608BOLB   GL114571   9.200  14.080  21.030
  608BOLB   GL214572   9.400  13.830  20.920
  608BOLB   C1A14573   8.800  13.970  21.230
  608BOLB   C2A14574   8.710  13.660  21.460
  608BOLB   C3A14575   8.520  13.530  21.710
  608BOLB   C4A14576   8.190  13.380  21.820
  608BOLB   C1B14577   9.210  13.660  21.240
  608BOLB   C2B14578   9.160  13.770  21.600
  608BOLB   C3B14579   9.100  13.970  22.070
  608BOLB   C4B14580   9.450  13.890  22.350
  608BOLB   NC214581   7.570  11.140  22.190
  608BOLB   PO214582   7.340  11.220  22.500
  608BOLB   GL314583   7.460  11.600  22.370
  608BOLB   GL414584   7.220  11.480  22.110
  608BOLB   C1C14585   7.660  11.830  22.030
  608BOLB   C2C14586   7.790  12.140  21.640
  608BOLB   C3C14587   7.960  12.560  21.530
  608BOLB   C4C14588   8.010  12.910  21.690
  608BOLB   C1D14589   7.270  11.610  21.740
  608BOLB   C2D14590   7.370  11.860  21.330
  608BOLB   C3D14591   7.650  12.320  21.210
  608BOLB   C4D14592   7.900  12.550  21.050
  609BOLB   NC114593  10.120  26.860  13.440
  609BOLB   PO114594   9.900  27.270  13.350
  609BOLB   GL114595   9.970  27.710  13.300
  609BOLB   GL214596   9.670  27.760  13.250
  609BOLB   C1A14597  10.130  28.080  13.170
  609BOLB   C2A14598  10.180  28.520  13.220
  609BOLB   C3A14599  10.240  28.890  13.040
  609BOLB   C4A14600  10.130  29.330  13.020
  609BOLB   C1B14601   9.310  27.990  13.110
  609BOLB   C2B14602   9.100  28.350  13.160
  609BOLB   C3B14603   9.080  28.680  12.920
  609BOLB   C4B14604   9.360  29.000  12.660
  609BOLB   NC214605   9.970  30.890  12.060
  609BOLB   PO214606  10.210  31.220  12.150
  609BOLB   GL314607  10.380  31.110  12.440
  609BOLB   GL414608  10.770  31.230  12.360
  609BOLB   C1C14609  10.480  30.750  12.760
  609BOLB   C2C14610  10.660  30.420  12.810
  609BOLB   C3C14611  10.630  29.980  12.800
  609BOLB   C4C14612  10.390  29.710  12.940
  609BOLB   C1D14613  10.830  30.900  12.440
  609BOLB   C2D14614  11.010  30.520  12.440
  609BOLB   C3D14615  10.980  30.150  12.400
  609BOLB   C4D14616  11.020  29.740  12.450
  610BOLB   NC114617   8.010  26.560  19.070
  610BOLB   PO114618   8.450  26.610  18.970
  610BOLB   GL114619   8.200  27.010  19.110
  610BOLB   GL214620   7.900  27.270  19.110
  610BOLB   C1A14621   8.330  27.400  19.330
  610BOLB   C2A14622   8.620  27.680  19.590
  610BOLB   C3A14623   8.690  27.940  19.930
  610BOLB   C4A14624   8.740  28.180  20.340
  610BOLB   C1B14625   7.940  27.780  19.250
  610BOLB   C2B14626   8.000  28.200  19.310
  610BOLB   C3B14627   7.880  28.510  19.100
  610BOLB   C4B14628   7.890  28.610  18.700
  610BOLB   NC214629   7.430  29.770  21.460
  610BOLB   PO214630   7.530  29.890  21.900
  610BOLB   GL314631   7.760  29.510  21.820
  610BOLB   GL414632   7.480  29.290  21.620
  610BOLB   C1C14633   8.120  29.180  21.520
  610BOLB   C2C14634   8.140  28.810  21.260
  610BOLB   C3C14635   8.430  28.420  21.060
  610BOLB   C4C14636   8.610  28.270  20.670
  610BOLB   C1D14637   7.770  28.950  21.680
  610BOLB   C2D14638   7.900  28.540  21.670
  610BOLB   C3D14639   8.040  28.260  21.420
  610BOLB   C4D14640   7.890  28.080  20.990
  611BOLB   NC114641  12.800  23.070  21.320
  611BOLB   PO114642  13.080  23.300  21.760
  611BOLB   GL114643  13.130  23.410  22.210
  611BOLB   GL214644  13.390  23.720  22.100
  611BOLB   C1A14645  13.200  23.430  22.680
  611BOLB   C2A14646  13.210  23.470  23.040
  611BOLB   C3A14647  13.520  23.590  23.350
  611BOLB   C4A14648  13.930  23.470  23.430
  611BOLB   C1B14649  13.720  23.720  22.380
  611BOLB   C2B14650  13.810  23.980  22.600
  611BOLB   C3B14651  13.830  24.410  22.530
  611BOLB   C4B14652  13.660  24.600  22.180
  611BOLB   NC214653  15.950  24.650  24.920
  611BOLB   PO214654  15.690  24.310  24.760
  611BOLB   GL314655  15.460  24.270  24.390
  611BOLB   GL414656  15.080  24.360  24.360
  611BOLB   C1C14657  15.340  24.040  24.090
  611BOLB   C2C14658  15.180  23.830  23.750
  611BOLB   C3C14659  14.770  23.670  23.660
  611BOLB   C4C14660  14.330  23.480  23.600
  611BOLB   C1D14661  14.750  24.220  24.030
  611BOLB   C2D14662  14.230  24.330  23.960
  611BOLB   C3D14663  13.800  24.310  23.890
  611BOLB   C4D14664  13.460  24.640  23.790
  612BOLB   NC114665   5.570  20.760  21.710
  612BOLB   PO114666   5.750  20.340  21.670
  612BOLB   GL114667   5.560  20.300  22.000
  612BOLB   GL214668   5.740  20.270  22.300
  612BOLB   C1A14669   5.210  20.420  22.300
  612BOLB   C2A14670   5.040  20.410  22.770
  612BOLB   C3A14671   4.710  20.320  22.980
  612BOLB   C4A14672   4.620  19.920  23.110
  612BOLB   C1B14673   5.570  20.310  22.650
  612BOLB   C2B14674   5.410  20.330  23.120
  612BOLB   C3B14675   5.390  20.590  23.460
  612BOLB   C4B14676   5.010  20.610  23.580
  612BOLB   NC214677   2.980  18.670  24.710
  612BOLB   PO214678   3.220  18.340  24.620
  612BOLB   GL314679   3.490  18.440  24.200
  612BOLB   GL414680   3.740  18.250  24.310
  612BOLB   C1C14681   3.710  18.770  23.970
  612BOLB   C2C14682   3.940  19.070  23.720
  612BOLB   C3C14683   4.160  19.470  23.700
  612BOLB   C4C14684   4.520  19.700  23.460
  612BOLB   C1D14685   4.040  18.320  23.980
  612BOLB   C2D14686   4.050  18.530  23.610
  612BOLB   C3D14687   4.230  18.870  23.350
  612BOLB   C4D14688   4.100  19.340  23.230
  613BOLB   NC114689   8.850  14.510  20.760
  613BOLB   PO114690   8.620  14.820  20.690
  613BOLB   GL114691   8.400  14.510  21.000
  613BOLB   GL214692   8.460  14.600  21.300
  613BOLB   C1A14693   8.350  14.140  21.210
  613BOLB   C2A14694   8.130  13.850  21.470
  613BOLB   C3A14695   7.750  13.750  21.820
  613BOLB   C4A14696   7.660  13.700  22.210
  613BOLB   C1B14697   8.110  14.380  21.540
  613BOLB   C2B14698   7.820  14.390  21.860
  613BOLB   C3B14699   7.780  14.180  22.220
  613BOLB   C4B14700   7.930  14.100  22.610
  613BOLB   NC214701   7.570  11.900  24.100
  613BOLB   PO214702   7.750  12.320  23.980
  613BOLB   GL314703   7.990  12.430  23.600
  613BOLB   GL414704   8.050  12.150  23.300
  613BOLB   C1C14705   7.950  12.770  23.420
  613BOLB   C2C14706   8.220  13.040  23.190
  613BOLB   C3C14707   8.040  13.230  22.820
  613BOLB   C4C14708   7.820  13.590  22.610
  613BOLB   C1D14709   7.960  12.460  23.000
  613BOLB   C2D14710   7.700  12.800  22.990
  613BOLB   C3D14711   7.560  13.070  22.700
  613BOLB   C4D14712   7.360  13.390  22.480
  614BOLB   NC114713  10.480  10.870  22.720
  614BOLB   PO114714  10.120  10.700  22.640
  614BOLB   GL114715  10.180  11.090  22.340
  614BOLB   GL214716  10.380  10.920  22.140
  614BOLB   C1A14717  10.320  11.460  22.120
  614BOLB   C2A14718  10.390  11.690  21.760
  614BOLB   C3A14719  10.410  11.860  21.390
  614BOLB   C4A14720  10.290  12.090  21.000
  614BOLB   C1B14721  10.570  11.170  21.810
  614BOLB   C2B14722  10.730  11.430  21.490
  614BOLB   C3B14723  10.950  11.830  21.510
  614BOLB   C4B14724  11.180  12.250  21.290
  614BOLB   NC214725   9.400  12.580  18.530
  614BOLB   PO214726   9.230  12.910  18.810
  614BOLB   GL314727   9.480  12.730  19.320
  614BOLB   GL414728   9.600  12.410  19.210
  614BOLB   C1C14729   9.590  12.650  19.750
  614BOLB   C2C14730   9.690  12.480  20.070
  614BOLB   C3C14731   9.780  12.340  20.440
  614BOLB   C4C14732  10.120  12.230  20.690
  614BOLB   C1D14733   9.550  12.210  19.530
  614BOLB   C2D14734   9.370  12.160  19.930
  614BOLB   C3D14735   9.160  11.960  20.100
  614BOLB   C4D14736   8.900  11.590  20.260
  615BOLB   NC114737   5.400  26.160  17.810
  615BOLB   PO114738   5.460  26.430  18.100
  615BOLB   GL114739   5.210  26.720  18.310
  615BOLB   GL214740   5.210  26.680  18.690
  615BOLB   C1A14741   4.880  27.030  18.150
  615BOLB   C2A14742   4.850  27.530  18.190
  615BOLB   C3A14743   4.870  27.880  17.960
  615BOLB   C4A14744   5.020  28.240  17.810
  615BOLB   C1B14745   5.050  27.100  18.600
  615BOLB   C2B14746   4.910  27.520  18.770
  615BOLB   C3B14747   4.560  27.660  18.940
  615BOLB   C4B14748   4.090  27.420  18.960
  615BOLB   NC214749   4.940  30.430  18.820
  615BOLB   PO214750   5.030  30.770  18.610
  615BOLB   GL314751   4.940  30.400  18.270
  615BOLB   GL414752   5.180  30.230  18.030
  615BOLB   C1C14753   4.790  29.880  18.090
  615BOLB   C2C14754   4.920  29.400  18.090
  615BOLB   C3C14755   4.820  29.030  17.990
  615BOLB   C4C14756   5.020  28.670  17.810
  615BOLB   C1D14757   5.330  29.790  18.040
  615BOLB   C2D14758   5.390  29.400  17.870
  615BOLB   C3D14759   5.460  29.010  18.020
  615BOLB   C4D14760   5.250  28.680  18.270
  616BOLB   NC114761  14.620  24.990  20.030
  616BOLB   PO114762  14.900  24.960  20.320
  616BOLB   GL114763  15.230  24.990  20.620
  616BOLB   GL214764  15.440  24.770  20.390
  616BOLB   C1A14765  15.480  25.220  20.740
  616BOLB   C2A14766  15.610  25.610  20.720
  616BOLB   C3A14767  15.950  25.880  20.790
  616BOLB   C4A14768  16.180  26.200  20.940
  616BOLB   C1B14769  15.890  24.820  20.640
  616BOLB   C2B14770  16.320  25.080  20.650
  616BOLB   C3B14771  16.660  25.070  20.530
  616BOLB   C4B14772  16.990  25.050  20.880
  616BOLB   NC214773  17.260  27.220  22.810
  616BOLB   PO214774  16.850  27.020  22.800
  616BOLB   GL314775  16.870  27.290  22.340
  616BOLB   GL414776  16.610  27.490  22.310
  616BOLB   C1C14777  16.690  27.020  22.080
  616BOLB   C2C14778  16.360  26.900  21.820
  616BOLB   C3C14779  16.240  26.870  21.420
  616BOLB   C4C14780  16.090  26.520  21.180
  616BOLB   C1D14781  16.320  27.420  21.970
  616BOLB   C2D14782  16.180  27.360  21.580
  616BOLB   C3D14783  16.240  27.370  21.080
  616BOLB   C4D14784  16.010  27.060  20.800
  617BOLB   NC114785   0.450  12.490  10.950
  617BOLB   PO114786   0.400  12.290  11.430
  617BOLB   GL114787   0.620  12.580  11.730
  617BOLB   GL214788   0.490  12.880  11.920
  617BOLB   C1A14789   0.960  12.820  11.620
  617BOLB   C2A14790   1.230  12.960  11.980
  617BOLB   C3A14791   1.230  13.280  12.260
  617BOLB   C4A14792   1.220  13.670  12.260
  617BOLB   C1B14793   0.790  13.260  11.700
  617BOLB   C2B14794   1.200  13.420  11.780
  617BOLB   C3B14795   1.380  13.690  11.750
  617BOLB   C4B14796   1.750  13.770  11.540
  617BOLB   NC214797  35.370  12.760  11.970
  617BOLB   PO214798  35.590  13.170  12.140
  617BOLB   GL314799  36.010  13.320  12.040
  617BOLB   GL414800  36.290  13.210  12.110
  617BOLB   C1C14801  36.280  13.700  11.980
  617BOLB   C2C14802   0.290  13.970  12.010
  617BOLB   C3C14803   0.650  14.200  12.090
  617BOLB   C4C14804   1.070  14.070  12.060
  617BOLB   C1D14805   0.230  13.350  11.870
  617BOLB   C2D14806   0.420  13.610  11.580
  617BOLB   C3D14807   0.690  13.600  11.260
  617BOLB   C4D14808   1.070  13.630  11.290
  618BOLB   NC114809  10.320  15.790  20.890
  618BOLB   PO114810  10.080  16.030  21.040
  618BOLB   GL114811  10.120  15.610  21.350
  618BOLB   GL214812  10.010  15.730  21.680
  618BOLB   C1A14813  10.310  15.350  21.810
  618BOLB   C2A14814  10.470  14.970  22.030
  618BOLB   C3A14815  10.430  14.750  22.450
  618BOLB   C4A14816  10.220  14.480  22.750
  618BOLB   C1B14817   9.820  15.330  21.850
  618BOLB   C2B14818   9.850  15.060  22.230
  618BOLB   C3B14819   9.730  14.770  22.510
  618BOLB   C4B14820   9.610  14.880  23.020
  618BOLB   NC214821   9.550  13.310  24.640
  618BOLB   PO214822   9.830  13.610  24.910
  618BOLB   GL314823  10.010  13.580  24.500
  618BOLB   GL414824   9.960  13.380  24.270
  618BOLB   C1C14825  10.160  13.820  24.140
  618BOLB   C2C14826  10.080  14.020  23.780
  618BOLB   C3C14827  10.190  14.210  23.430
  618BOLB   C4C14828  10.230  14.140  22.950
  618BOLB   C1D14829   9.730  13.630  23.960
  618BOLB   C2D14830   9.660  13.550  23.570
  618BOLB   C3D14831   9.530  13.120  23.370
  618BOLB   C4D14832   9.500  13.080  22.950
  619BOLB   NC114833  18.250  20.950  18.170
  619BOLB   PO114834  18.700  20.870  18.250
  619BOLB   GL114835  19.010  21.010  18.590
  619BOLB   GL214836  18.870  20.940  18.890
  619BOLB   C1A14837  19.300  21.220  18.690
  619BOLB   C2A14838  19.540  21.580  18.590
  619BOLB   C3A14839  19.970  21.660  18.680
  619BOLB   C4A14840  20.220  22.030  18.860
  619BOLB   C1B14841  19.290  20.910  19.100
  619BOLB   C2B14842  19.530  20.850  19.460
  619BOLB   C3B14843  19.760  20.980  19.740
  619BOLB   C4B14844  20.090  21.090  19.500
  619BOLB   NC214845  22.490  23.080  18.980
  619BOLB   PO214846  22.180  23.370  18.950
  619BOLB   GL314847  21.760  23.260  18.830
  619BOLB   GL414848  21.540  23.360  18.520
  619BOLB   C1C14849  21.360  23.050  18.950
  619BOLB   C2C14850  21.200  22.740  18.710
  619BOLB   C3C14851  20.940  22.310  18.700
  619BOLB   C4C14852  20.680  22.070  18.890
  619BOLB   C1D14853  21.350  23.070  18.290
  619BOLB   C2D14854  21.110  22.810  18.150
  619BOLB   C3D14855  20.760  22.620  18.400
  619BOLB   C4D14856  20.490  22.250  18.400
  620BOLB   NC114857  12.690  26.540  19.750
  620BOLB   PO114858  12.870  26.790  19.540
  620BOLB   GL114859  12.950  27.050  19.910
  620BOLB   GL214860  12.860  26.740  20.140
  620BOLB   C1A14861  12.800  27.330  20.200
  620BOLB   C2A14862  12.790  27.620  20.440
  620BOLB   C3A14863  12.480  27.390  20.650
  620BOLB   C4A14864  12.250  27.210  20.990
  620BOLB   C1B14865  12.990  26.890  20.430
  620BOLB   C2B14866  12.990  27.180  20.620
  620BOLB   C3B14867  12.920  27.520  20.930
  620BOLB   C4B14868  12.840  27.490  21.300
  620BOLB   NC214869  12.680  28.260  23.320
  620BOLB   PO214870  12.660  28.670  23.190
  620BOLB   GL314871  12.790  28.450  22.840
  620BOLB   GL414872  13.070  28.650  22.650
  620BOLB   C1C14873  12.890  28.070  22.500
  620BOLB   C2C14874  12.710  27.680  22.160
  620BOLB   C3C14875  12.630  27.380  21.800
  620BOLB   C4C14876  12.350  27.250  21.380
  620BOLB   C1D14877  13.270  28.300  22.380
  620BOLB   C2D14878  13.430  28.330  21.880
  620BOLB   C3D14879  13.420  28.370  21.480
  620BOLB   C4D14880  13.650  28.230  21.140
  621BOLB   NC114881   8.910  26.350  19.310
  621BOLB   PO114882   8.650  26.470  19.650
  621BOLB   GL114883   8.580  26.730  20.040
  621BOLB   GL214884   8.520  27.020  19.770
  621BOLB   C1A14885   8.530  26.980  20.350
  621BOLB   C2A14886   8.500  27.250  20.670
  621BOLB   C3A14887   8.320  27.340  21.050
  621BOLB   C4A14888   7.970  27.430  21.380
  621BOLB   C1B14889   8.610  27.420  20.060
  621BOLB   C2B14890   8.610  27.690  20.420
  621BOLB   C3B14891   8.450  27.750  20.820
  621BOLB   C4B14892   8.290  27.810  21.310
  621BOLB   NC214893   6.880  28.780  22.100
  621BOLB   PO214894   6.850  29.150  21.860
  621BOLB   GL314895   7.050  29.030  21.460
  621BOLB   GL414896   6.880  29.080  21.210
  621BOLB   C1C14897   7.370  28.720  21.530
  621BOLB   C2C14898   7.440  28.430  21.930
  621BOLB   C3C14899   7.720  28.130  21.910
  621BOLB   C4C14900   7.860  27.760  21.640
  621BOLB   C1D14901   6.810  28.600  21.330
  621BOLB   C2D14902   7.130  28.120  21.560
  621BOLB   C3D14903   7.360  27.670  21.540
  621BOLB   C4D14904   7.450  27.320  21.270
  622BOLB   NC114905   6.560  18.730  21.800
  622BOLB   PO114906   6.550  18.390  22.050
  622BOLB   GL114907   6.310  18.360  22.470
  622BOLB   GL214908   6.410  18.300  22.760
  622BOLB   C1A14909   6.020  18.660  22.750
  622BOLB   C2A14910   5.720  18.620  23.080
  622BOLB   C3A14911   5.630  18.740  23.510
  622BOLB   C4A14912   5.640  19.150  23.820
  622BOLB   C1B14913   6.020  18.180  22.910
  622BOLB   C2B14914   5.770  18.110  23.200
  622BOLB   C3B14915   5.340  18.200  23.370
  622BOLB   C4B14916   5.310  18.430  23.740
  622BOLB   NC214917   5.480  19.060  26.310
  622BOLB   PO214918   5.110  19.300  26.160
  622BOLB   GL314919   5.140  19.540  25.790
  622BOLB   GL414920   5.380  19.440  25.650
  622BOLB   C1C14921   5.140  19.580  25.230
  622BOLB   C2C14922   4.980  19.520  24.870
  622BOLB   C3C14923   5.210  19.570  24.500
  622BOLB   C4C14924   5.450  19.350  24.170
  622BOLB   C1D14925   5.630  19.150  25.320
  622BOLB   C2D14926   6.030  19.360  25.070
  622BOLB   C3D14927   6.370  19.120  24.810
  622BOLB   C4D14928   6.840  19.050  24.690
  623BOLB   NC114929  13.420  11.610  17.700
  623BOLB   PO114930  13.360  11.590  17.320
  623BOLB   GL114931  13.500  11.190  17.400
  623BOLB   GL214932  13.330  10.850  17.400
  623BOLB   C1A14933  13.840  10.870  17.320
  623BOLB   C2A14934  13.970  10.470  17.450
  623BOLB   C3A14935  14.490  10.360  17.680
  623BOLB   C4A14936  14.660  10.010  17.870
  623BOLB   C1B14937  13.250  10.620  17.810
  623BOLB   C2B14938  13.210  10.440  18.200
  623BOLB   C3B14939  13.270  10.250  18.630
  623BOLB   C4B14940  13.400  10.180  19.010
  623BOLB   NC214941  15.880   7.930  18.510
  623BOLB   PO214942  15.820   8.150  18.120
  623BOLB   GL314943  15.500   8.220  18.310
  623BOLB   GL414944  15.160   8.040  18.440
  623BOLB   C1C14945  15.120   8.500  18.350
  623BOLB   C2C14946  15.150   8.900  18.370
  623BOLB   C3C14947  14.960   9.360  18.210
  623BOLB   C4C14948  14.690   9.620  17.990
  623BOLB   C1D14949  15.130   8.170  17.980
  623BOLB   C2D14950  15.340   8.330  17.670
  623BOLB   C3D14951  15.550   8.640  17.270
  623BOLB   C4D14952  15.430   9.020  17.010
  624BOLB   NC114953   6.530  20.640  22.320
  624BOLB   PO114954   6.760  20.390  22.430
  624BOLB   GL114955   6.580  20.480  22.800
  624BOLB   GL214956   6.440  20.850  22.800
  624BOLB   C1A14957   6.350  20.550  23.200
  624BOLB   C2A14958   6.350  20.610  23.750
  624BOLB   C3A14959   5.970  20.800  23.960
  624BOLB   C4A14960   5.640  20.980  23.810
  624BOLB   C1B14961   6.440  21.020  23.260
  624BOLB   C2B14962   6.580  21.130  23.650
  624BOLB   C3B14963   6.550  21.470  23.890
  624BOLB   C4B14964   6.380  21.780  24.150
  624BOLB   NC214965   4.440  22.420  25.570
  624BOLB   PO214966   4.590  21.960  25.680
  624BOLB   GL314967   4.790  21.950  25.280
  624BOLB   GL414968   4.660  22.270  25.140
  624BOLB   C1C14969   4.600  21.750  24.920
  624BOLB   C2C14970   4.790  21.610  24.590
  624BOLB   C3C14971   5.080  21.330  24.310
  624BOLB   C4C14972   5.280  21.070  23.970
  624BOLB   C1D14973   4.730  22.520  24.770
  624BOLB   C2D14974   4.650  22.540  24.350
  624BOLB   C3D14975   4.710  22.430  23.960
  624BOLB   C4D14976   4.950  22.160  23.810
  625BOLB   NC114977   0.170  12.390  11.880
  625BOLB   PO114978  36.300  12.760  11.930
  625BOLB   GL114979   0.100  12.760  12.340
  625BOLB   GL214980   0.050  12.830  12.700
  625BOLB   C1A14981   0.470  13.000  12.480
  625BOLB   C2A14982   0.700  13.350  12.240
  625BOLB   C3A14983   0.780  13.670  11.970
  625BOLB   C4A14984   0.770  13.940  11.680
  625BOLB   C1B14985   0.140  12.820  13.130
  625BOLB   C2B14986   0.360  13.000  13.250
  625BOLB   C3B14987   0.510  13.360  13.400
  625BOLB   C4B14988   0.790  13.640  13.530
  625BOLB   NC214989  35.920  13.330  10.380
  625BOLB   PO214990  35.880  13.130  10.740
  625BOLB   GL314991  36.230  13.330  10.770
  625BOLB   GL414992   0.010  13.240  11.090
  625BOLB   C1C14993   0.270  13.570  10.620
  625BOLB   C2C14994   0.660  13.850  10.670
  625BOLB   C3C14995   0.880  14.060  10.970
  625BOLB   C4C14996   0.940  14.200  11.380
  625BOLB   C1D14997   0.430  13.170  11.270
  625BOLB   C2D14998   0.840  13.110  11.190
  625BOLB   C3D14999   1.270  13.100  11.300
  625BOLB   C4D15000   1.530  13.480  11.260
  626BOLB   NC115001   5.050  14.420  18.310
  626BOLB   PO115002   4.670  14.460  18.100
  626BOLB   GL115003   4.310  14.200  18.190
  626BOLB   GL215004   4.040  14.390  18.030
  626BOLB   C1A15005   4.350  13.820  18.430
  626BOLB   C2A15006   4.240  13.550  18.820
  626BOLB   C3A15007   4.250  13.220  19.040
  626BOLB   C4A15008   4.280  13.140  19.510
  626BOLB   C1B15009   3.850  14.240  18.420
  626BOLB   C2B15010   3.960  13.950  18.690
  626BOLB   C3B15011   3.840  13.680  19.010
  626BOLB   C4B15012   3.650  13.330  19.160
  626BOLB   NC215013   2.350  12.950  20.860
  626BOLB   PO215014   2.450  13.310  20.950
  626BOLB   GL315015   2.830  13.140  20.760
  626BOLB   GL415016   2.960  13.250  21.140
  626BOLB   C1C15017   3.170  13.210  20.620
  626BOLB   C2C15018   3.550  13.020  20.440
  626BOLB   C3C15019   3.930  13.140  20.260
  626BOLB   C4C15020   4.240  13.110  19.930
  626BOLB   C1D15021   3.140  13.630  20.990
  626BOLB   C2D15022   3.240  13.950  20.670
  626BOLB   C3D15023   3.360  14.210  20.350
  626BOLB   C4D15024   3.600  14.520  20.160
  627BOLB   NC115025   3.640  14.910  11.760
  627BOLB   PO115026   3.350  14.720  11.910
  627BOLB   GL115027   3.080  14.400  11.880
  627BOLB   GL215028   2.900  14.560  12.110
  627BOLB   C1A15029   2.790  14.270  11.690
  627BOLB   C2A15030   2.760  14.170  11.240
  627BOLB   C3A15031   3.000  13.890  11.010
  627BOLB   C4A15032   3.300  13.570  10.940
  627BOLB   C1B15033   2.840  14.140  12.190
  627BOLB   C2B15034   2.760  13.780  11.910
  627BOLB   C3B15035   2.540  13.520  11.600
  627BOLB   C4B15036   2.100  13.450  11.440
  627BOLB   NC215037   1.340  12.590   9.930
  627BOLB   PO215038   1.550  12.160   9.950
  627BOLB   GL315039   1.970  12.260  10.190
  627BOLB   GL415040   1.740  12.360  10.440
  627BOLB   C1C15041   2.330  12.520  10.350
  627BOLB   C2C15042   2.670  12.790  10.350
  627BOLB   C3C15043   3.070  13.090  10.430
  627BOLB   C4C15044   3.310  13.320  10.530
  627BOLB   C1D15045   1.830  12.250  10.820
  627BOLB   C2D15046   1.940  12.440  11.200
  627BOLB   C3D15047   1.520  12.390  11.520
  627BOLB   C4D15048   1.370  12.070  11.860
  628BOLB   NC115049   9.360  17.070  22.020
  628BOLB   PO115050   9.440  16.660  22.110
  628BOLB   GL115051   9.570  16.460  22.450
  628BOLB   GL215052   9.720  16.210  22.250
  628BOLB   C1A15053   9.430  16.330  22.940
  628BOLB   C2A15054   9.000  16.130  23.080
  628BOLB   C3A15055   8.850  16.120  23.460
  628BOLB   C4A15056   8.620  16.040  23.820
  628BOLB   C1B15057   9.730  15.910  22.630
  628BOLB   C2B15058  10.090  15.600  22.830
  628BOLB   C3B15059  10.310  15.310  23.040
  628BOLB   C4B15060  10.180  15.090  23.450
  628BOLB   NC215061   8.200  16.820  25.950
  628BOLB   PO215062   8.270  16.400  26.190
  628BOLB   GL315063   8.330  16.330  25.830
  628BOLB   GL415064   8.080  16.470  25.620
  628BOLB   C1C15065   8.610  16.240  25.400
  628BOLB   C2C15066   8.640  16.150  24.940
  628BOLB   C3C15067   8.790  16.130  24.590
  628BOLB   C4C15068   8.610  16.110  24.220
  628BOLB   C1D15069   8.400  16.820  25.370
  628BOLB   C2D15070   8.520  17.190  25.340
  628BOLB   C3D15071   8.730  17.530  25.360
  628BOLB   C4D15072   8.820  17.730  25.750
  629BOLB   NC115073   6.380  25.010  20.130
  629BOLB   PO115074   5.990  25.290  20.040
  629BOLB   GL115075   5.910  25.520  20.440
  629BOLB   GL215076   6.060  25.660  20.720
  629BOLB   C1A15077   5.570  25.620  20.870
  629BOLB   C2A15078   5.240  25.660  21.160
  629BOLB   C3A15079   4.710  25.610  21.290
  629BOLB   C4A15080   4.450  25.510  21.610
  629BOLB   C1B15081   6.000  26.030  21.000
  629BOLB   C2B15082   5.800  26.120  21.360
  629BOLB   C3B15083   5.880  26.530  21.580
  629BOLB   C4B15084   5.810  26.710  22.020
  629BOLB   NC215085   4.190  26.990  23.010
  629BOLB   PO215086   4.150  27.070  23.430
  629BOLB   GL315087   4.240  26.540  23.300
  629BOLB   GL415088   4.310  26.440  22.940
  629BOLB   C1C15089   4.140  26.040  23.150
  629BOLB   C2C15090   3.960  25.860  22.740
  629BOLB   C3C15091   4.190  25.710  22.330
  629BOLB   C4C15092   4.480  25.570  22.000
  629BOLB   C1D15093   4.600  26.520  22.700
  629BOLB   C2D15094   4.890  26.480  22.430
  629BOLB   C3D15095   5.200  26.550  22.030
  629BOLB   C4D15096   5.500  26.280  21.790
  630BOLB   NC115097  18.140  20.250  19.410
  630BOLB   PO115098  18.350  19.820  19.310
  630BOLB   GL115099  18.560  20.070  19.590
  630BOLB   GL215100  18.630  20.340  19.600
  630BOLB   C1A15101  18.530  20.260  20.070
  630BOLB   C2A15102  18.470  20.550  20.340
  630BOLB   C3A15103  18.800  20.850  20.360
  630BOLB   C4A15104  19.130  21.100  20.540
  630BOLB   C1B15105  18.690  20.670  19.850
  630BOLB   C2B15106  19.010  20.490  20.140
  630BOLB   C3B15107  19.120  20.460  20.550
  630BOLB   C4B15108  19.160  20.600  20.950
  630BOLB   NC215109  21.190  21.950  22.000
  630BOLB   PO215110  20.950  21.890  21.550
  630BOLB   GL315111  20.690  21.890  21.200
  630BOLB   GL415112  20.820  22.030  20.870
  630BOLB   C1C15113  20.360  21.820  21.020
  630BOLB   C2C15114  20.080  21.620  20.800
  630BOLB   C3C15115  19.830  21.490  20.600
  630BOLB   C4C15116  19.440  21.360  20.640
  630BOLB   C1D15117  20.610  21.810  20.580
  630BOLB   C2D15118  20.290  21.560  20.280
  630BOLB   C3D15119  20.120  21.590  19.930
  630BOLB   C4D15120  19.800  21.470  19.640
  631BOLB   NC115121  11.660  19.150  22.470
  631BOLB   PO115122  11.400  19.440  22.820
  631BOLB   GL115123  11.270  19.450  23.230
  631BOLB   GL215124  11.210  19.150  23.460
  631BOLB   C1A15125  11.280  19.670  23.640
  631BOLB   C2A15126  11.250  19.690  24.060
  631BOLB   C3A15127  11.600  19.670  24.340
  631BOLB   C4A15128  11.750  19.900  24.740
  631BOLB   C1B15129  11.020  18.800  23.710
  631BOLB   C2B15130  10.990  18.490  24.120
  631BOLB   C3B15131  10.700  18.530  24.460
  631BOLB   C4B15132  10.460  18.280  24.760
  631BOLB   NC215133  12.490  19.670  26.950
  631BOLB   PO215134  12.650  20.170  27.030
  631BOLB   GL315135  12.460  20.140  26.610
  631BOLB   GL415136  12.680  20.310  26.350
  631BOLB   C1C15137  12.190  19.980  26.270
  631BOLB   C2C15138  12.140  19.990  25.750
  631BOLB   C3C15139  12.060  20.030  25.300
  631BOLB   C4C15140  11.650  20.090  25.110
  631BOLB   C1D15141  12.570  20.110  25.930
  631BOLB   C2D15142  12.660  20.090  25.520
  631BOLB   C3D15143  12.910  19.910  25.150
  631BOLB   C4D15144  12.760  19.610  24.850
  632BOLB   NC115145  17.160  16.410  20.000
  632BOLB   PO115146  17.500  16.610  19.900
  632BOLB   GL115147  17.760  16.420  20.040
  632BOLB   GL215148  17.610  16.290  20.290
  632BOLB   C1A15149  18.110  16.320  20.180
  632BOLB   C2A15150  18.370  16.540  20.430
  632BOLB   C3A15151  18.570  16.590  20.800
  632BOLB   C4A15152  18.970  16.550  21.130
  632BOLB   C1B15153  17.910  16.620  20.490
  632BOLB   C2B15154  18.110  16.760  20.830
  632BOLB   C3B15155  18.300  16.870  21.270
  632BOLB   C4B15156  18.730  16.810  21.510
  632BOLB   NC215157  21.200  17.490  22.050
  632BOLB   PO215158  21.390  17.050  22.000
  632BOLB   GL315159  21.070  17.150  21.620
  632BOLB   GL415160  21.110  17.050  21.330
  632BOLB   C1C15161  20.550  17.140  21.500
  632BOLB   C2C15162  20.120  17.050  21.180
  632BOLB   C3C15163  19.770  16.720  21.150
  632BOLB   C4C15164  19.340  16.790  21.170
  632BOLB   C1D15165  20.940  17.480  21.210
  632BOLB   C2D15166  21.100  17.890  21.020
  632BOLB   C3D15167  21.320  18.040  20.630
  632BOLB   C4D15168  21.330  18.430  20.320
  633BOLB   NC115169  12.620  25.700  20.060
  633BOLB   PO115170  12.950  25.680  20.270
  633BOLB   GL115171  12.680  26.020  20.480
  633BOLB   GL215172  12.350  25.970  20.600
  633BOLB   C1A15173  12.690  26.400  20.490
  633BOLB   C2A15174  12.810  26.510  20.950
  633BOLB   C3A15175  12.980  26.510  21.310
  633BOLB   C4A15176  13.150  26.730  21.660
  633BOLB   C1B15177  12.290  26.370  20.930
  633BOLB   C2B15178  12.370  26.720  21.160
  633BOLB   C3B15179  12.570  26.830  21.490
  633BOLB   C4B15180  12.700  26.760  21.900
  633BOLB   NC215181  13.750  29.070  22.350
  633BOLB   PO215182  13.390  28.970  22.230
  633BOLB   GL315183  13.170  28.730  22.160
  633BOLB   GL415184  12.890  28.940  21.960
  633BOLB   C1C15185  12.950  28.320  22.030
  633BOLB   C2C15186  13.220  27.900  22.120
  633BOLB   C3C15187  13.130  27.460  22.140
  633BOLB   C4C15188  13.100  27.050  22.030
  633BOLB   C1D15189  12.970  28.740  21.680
  633BOLB   C2D15190  12.840  28.330  21.540
  633BOLB   C3D15191  12.740  27.990  21.350
  633BOLB   C4D15192  12.420  27.680  21.100
  634BOLB   NC115193   2.920  20.470  19.550
  634BOLB   PO115194   2.970  20.770  19.230
  634BOLB   GL115195   2.730  21.160  19.400
  634BOLB   GL215196   2.770  21.410  19.600
  634BOLB   C1A15197   2.330  21.310  19.650
  634BOLB   C2A15198   2.000  21.420  20.070
  634BOLB   C3A15199   1.840  21.250  20.320
  634BOLB   C4A15200   1.560  20.890  20.310
  634BOLB   C1B15201   2.700  21.430  20.080
  634BOLB   C2B15202   2.420  21.270  20.330
  634BOLB   C3B15203   2.160  20.920  20.460
  634BOLB   C4B15204   2.020  21.090  20.810
  634BOLB   NC215205  35.860  20.600  21.010
  634BOLB   PO215206  35.700  20.370  20.680
  634BOLB   GL315207  36.150  20.180  20.600
  634BOLB   GL415208  36.320  20.560  20.760
  634BOLB   C1C15209   0.230  20.130  20.660
  634BOLB   C2C15210   0.690  20.030  20.490
  634BOLB   C3C15211   1.170  20.110  20.420
  634BOLB   C4C15212   1.440  20.480  20.440
  634BOLB   C1D15213   0.270  20.510  20.370
  634BOLB   C2D15214   0.540  20.290  20.060
  634BOLB   C3D15215   0.540  20.180  19.640
  634BOLB   C4D15216   0.590  19.920  19.290
  635BOLB   NC115217   3.430  22.020  19.420
  635BOLB   PO115218   3.610  21.880  19.770
  635BOLB   GL115219   3.260  21.980  20.030
  635BOLB   GL215220   3.120  21.980  19.850
  635BOLB   C1A15221   3.110  22.060  20.420
  635BOLB   C2A15222   3.360  22.260  20.780
  635BOLB   C3A15223   3.290  22.260  21.210
  635BOLB   C4A15224   2.960  21.990  21.410
  635BOLB   C1B15225   2.600  21.980  19.900
  635BOLB   C2B15226   2.310  21.960  20.210
  635BOLB   C3B15227   1.960  21.870  20.330
  635BOLB   C4B15228   2.010  21.570  20.720
  635BOLB   NC215229   1.970  22.680  23.730
  635BOLB   PO215230   1.950  22.310  23.570
  635BOLB   GL315231   2.240  22.350  23.310
  635BOLB   GL415232   2.570  22.160  23.410
  635BOLB   C1C15233   2.330  22.180  22.940
  635BOLB   C2C15234   2.440  22.180  22.510
  635BOLB   C3C15235   2.610  22.290  22.100
  635BOLB   C4C15236   2.700  21.970  21.720
  635BOLB   C1D15237   2.710  22.560  23.220
  635BOLB   C2D15238   2.940  22.790  22.990
  635BOLB   C3D15239   3.230  22.630  22.840
  635BOLB   C4D15240   3.500  22.840  22.460
  636BOLB   NC115241  16.100  19.120  20.960
  636BOLB   PO115242  15.720  19.070  21.050
  636BOLB   GL115243  15.930  19.090  21.480
  636BOLB   GL215244  15.820  19.340  21.700
  636BOLB   C1A15245  16.380  19.310  21.490
  636BOLB   C2A15246  16.740  19.310  21.820
  636BOLB   C3A15247  16.970  19.380  22.260
  636BOLB   C4A15248  17.340  19.500  22.370
  636BOLB   C1B15249  16.190  19.270  22.000
  636BOLB   C2B15250  16.340  19.490  22.250
  636BOLB   C3B15251  16.640  19.780  22.290
  636BOLB   C4B15252  16.920  19.830  22.560
  636BOLB   NC215253  18.340  19.200  24.650
  636BOLB   PO215254  18.040  18.920  24.440
  636BOLB   GL315255  17.720  19.180  24.280
  636BOLB   GL415256  17.860  19.150  23.890
  636BOLB   C1C15257  17.440  19.020  24.060
  636BOLB   C2C15258  17.340  19.170  23.570
  636BOLB   C3C15259  17.440  19.290  23.130
  636BOLB   C4C15260  17.500  19.510  22.750
  636BOLB   C1D15261  18.260  18.920  23.730
  636BOLB   C2D15262  18.290  18.810  23.300
  636BOLB   C3D15263  18.280  18.730  22.910
  636BOLB   C4D15264  18.120  18.900  22.570
  637BOLB   NC115265   7.240  12.750  17.970
  637BOLB   PO115266   6.820  12.530  17.830
  637BOLB   GL115267   6.450  12.260  17.820
  637BOLB   GL215268   6.250  12.160  17.550
  637BOLB   C1A15269   6.290  12.050  18.100
  637BOLB   C2A15270   6.320  11.710  18.240
  637BOLB   C3A15271   6.370  11.490  18.560
  637BOLB   C4A15272   6.670  11.180  18.730
  637BOLB   C1B15273   6.260  11.750  17.680
  637BOLB   C2B15274   6.000  11.410  17.920
  637BOLB   C3B15275   6.150  11.200  18.190
  637BOLB   C4B15276   6.320  10.860  18.390
  637BOLB   NC215277   6.560   9.120  20.820
  637BOLB   PO215278   6.370   9.230  20.280
  637BOLB   GL315279   6.200   9.540  19.950
  637BOLB   GL415280   5.990   9.650  19.870
  637BOLB   C1C15281   6.420   9.850  19.660
  637BOLB   C2C15282   6.680  10.100  19.310
  637BOLB   C3C15283   6.770  10.470  18.940
  637BOLB   C4C15284   6.830  10.860  18.800
  637BOLB   C1D15285   5.840  10.100  19.860
  637BOLB   C2D15286   6.160  10.380  19.650
  637BOLB   C3D15287   6.360  10.690  19.410
  637BOLB   C4D15288   6.650  10.920  19.270
  638BOLB   NC115289  12.830  17.850  22.390
  638BOLB   PO115290  13.020  17.400  22.400
  638BOLB   GL115291  12.760  17.070  22.540
  638BOLB   GL215292  12.840  16.940  22.280
  638BOLB   C1A15293  12.820  17.070  23.020
  638BOLB   C2A15294  12.930  17.080  23.540
  638BOLB   C3A15295  13.130  17.090  23.820
  638BOLB   C4A15296  13.300  16.790  24.160
  638BOLB   C1B15297  12.900  16.640  22.760
  638BOLB   C2B15298  13.260  16.420  22.810
  638BOLB   C3B15299  13.420  15.980  22.940
  638BOLB   C4B15300  13.780  15.760  23.040
  638BOLB   NC215301  14.100  15.360  25.940
  638BOLB   PO215302  13.710  15.280  25.850
  638BOLB   GL315303  13.690  15.620  25.530
  638BOLB   GL415304  13.640  15.610  25.210
  638BOLB   C1C15305  13.690  16.050  25.500
  638BOLB   C2C15306  13.540  16.160  25.000
  638BOLB   C3C15307  13.240  16.380  24.820
  638BOLB   C4C15308  13.210  16.760  24.620
  638BOLB   C1D15309  13.810  15.770  24.870
  638BOLB   C2D15310  13.810  16.010  24.510
  638BOLB   C3D15311  13.350  16.140  24.410
  638BOLB   C4D15312  13.070  16.380  24.320
  639BOLB   NC115313   2.120  19.450  18.130
  639BOLB   PO115314   2.100  18.890  18.140
  639BOLB   GL115315   1.750  18.730  17.970
  639BOLB   GL215316   1.750  18.500  17.800
  639BOLB   C1A15317   1.360  18.720  18.170
  639BOLB   C2A15318   0.980  18.890  18.420
  639BOLB   C3A15319   0.550  19.200  18.300
  639BOLB   C4A15320   0.140  19.310  18.260
  639BOLB   C1B15321   1.400  18.250  17.960
  639BOLB   C2B15322   0.990  18.130  18.160
  639BOLB   C3B15323   0.820  17.820  18.440
  639BOLB   C4B15324   0.960  17.670  18.830
  639BOLB   NC215325  34.560  18.740  18.410
  639BOLB   PO215326  34.260  19.070  18.310
  639BOLB   GL315327  34.640  19.080  18.000
  639BOLB   GL415328  34.800  19.270  18.350
  639BOLB   C1C15329  35.080  19.020  17.910
  639BOLB   C2C15330  35.480  19.060  17.970
  639BOLB   C3C15331  35.850  19.250  17.880
  639BOLB   C4C15332  36.110  19.510  18.080
  639BOLB   C1D15333  35.370  19.220  18.430
  639BOLB   C2D15334  35.780  19.170  18.360
  639BOLB   C3D15335  36.100  18.960  18.180
  639BOLB   C4D15336  36.250  18.990  17.760
  640BOLB   NC115337   8.390  12.610   9.970
  640BOLB   PO115338   7.980  12.490  10.080
  640BOLB   GL115339   7.630  12.260   9.950
  640BOLB   GL215340   7.460  12.430   9.770
  640BOLB   C1A15341   7.630  11.900   9.770
  640BOLB   C2A15342   7.700  11.410   9.710
  640BOLB   C3A15343   7.360  11.190   9.500
  640BOLB   C4A15344   6.900  11.100   9.550
  640BOLB   C1B15345   7.160  12.170   9.930
  640BOLB   C2B15346   6.840  12.030   9.690
  640BOLB   C3B15347   6.490  12.260   9.630
  640BOLB   C4B15348   6.180  12.270   9.750
  640BOLB   NC215349   6.260   9.050   8.420
  640BOLB   PO215350   6.040   9.480   8.160
  640BOLB   GL315351   5.820   9.800   8.440
  640BOLB   GL415352   6.140   9.980   8.310
  640BOLB   C1C15353   5.860  10.340   8.460
  640BOLB   C2C15354   6.040  10.660   8.640
  640BOLB   C3C15355   6.260  10.810   9.020
  640BOLB   C4C15356   6.570  11.050   9.310
  640BOLB   C1D15357   6.360  10.360   8.400
  640BOLB   C2D15358   6.690  10.720   8.600
  640BOLB   C3D15359   6.860  11.080   8.710
  640BOLB   C4D15360   7.060  11.230   9.080
  641BOLB   NC115361  17.030  22.360  19.460
  641BOLB   PO115362  17.170  22.240  19.060
  641BOLB   GL115363  17.470  22.560  19.360
  641BOLB   GL215364  17.350  22.600  19.710
  641BOLB   C1A15365  17.800  22.780  19.670
  641BOLB   C2A15366  18.030  22.740  20.060
  641BOLB   C3A15367  18.400  22.760  20.290
  641BOLB   C4A15368  18.730  22.800  20.670
  641BOLB   C1B15369  17.590  22.450  20.030
  641BOLB   C2B15370  17.710  22.430  20.360
  641BOLB   C3B15371  18.120  22.410  20.570
  641BOLB   C4B15372  18.230  22.230  20.960
  641BOLB   NC215373  19.430  22.910  22.860
  641BOLB   PO215374  19.750  23.100  22.580
  641BOLB   GL315375  19.640  22.760  22.400
  641BOLB   GL415376  19.750  22.660  22.130
  641BOLB   C1C15377  19.170  22.720  22.280
  641BOLB   C2C15378  19.060  22.880  21.850
  641BOLB   C3C15379  19.030  22.990  21.410
  641BOLB   C4C15380  18.830  23.050  21.010
  641BOLB   C1D15381  19.410  22.430  21.830
  641BOLB   C2D15382  18.970  22.500  21.440
  641BOLB   C3D15383  18.700  22.610  21.190
  641BOLB   C4D15384  18.340  22.730  20.920
  642BOLB   NC115385   4.490  22.790  20.720
  642BOLB   PO115386   4.320  22.340  20.650
  642BOLB   GL115387   4.150  22.540  21.020
  642BOLB   GL215388   4.320  22.860  21.200
  642BOLB   C1A15389   3.800  22.460  21.330
  642BOLB   C2A15390   3.670  22.200  21.620
  642BOLB   C3A15391   3.380  22.040  21.890
  642BOLB   C4A15392   3.370  21.950  22.320
  642BOLB   C1B15393   4.010  22.850  21.540
  642BOLB   C2B15394   3.710  22.830  21.960
  642BOLB   C3B15395   3.200  22.850  22.020
  642BOLB   C4B15396   2.940  22.510  21.860
  642BOLB   NC215397   2.360  21.970  24.730
  642BOLB   PO215398   2.760  22.170  24.720
  642BOLB   GL315399   2.870  22.510  24.520
  642BOLB   GL415400   3.150  22.460  24.520
  642BOLB   C1C15401   3.080  22.430  24.040
  642BOLB   C2C15402   3.170  22.350  23.620
  642BOLB   C3C15403   3.080  22.250  23.160
  642BOLB   C4C15404   3.340  22.030  22.850
  642BOLB   C1D15405   3.630  22.570  24.460
  642BOLB   C2D15406   3.920  22.650  24.330
  642BOLB   C3D15407   4.120  22.840  24.030
  642BOLB   C4D15408   4.370  22.770  23.690
  643BOLB   NC115409   7.840  17.610   7.290
  643BOLB   PO115410   7.450  17.390   7.540
  643BOLB   GL115411   6.940  17.380   7.440
  643BOLB   GL215412   7.030  17.590   7.210
  643BOLB   C1A15413   6.670  17.140   7.190
  643BOLB   C2A15414   6.420  16.980   6.870
  643BOLB   C3A15415   6.330  16.570   6.550
  643BOLB   C4A15416   6.190  16.260   6.280
  643BOLB   C1B15417   6.680  17.580   6.870
  643BOLB   C2B15418   6.370  17.720   6.770
  643BOLB   C3B15419   6.250  17.410   6.600
  643BOLB   C4B15420   6.450  17.030   6.380
  643BOLB   NC215421   6.310  16.410   3.630
  643BOLB   PO215422   5.940  16.300   3.980
  643BOLB   GL315423   5.850  16.550   4.390
  643BOLB   GL415424   5.690  16.850   4.450
  643BOLB   C1C15425   6.200  16.530   4.830
  643BOLB   C2C15426   6.130  16.170   5.130
  643BOLB   C3C15427   6.220  15.950   5.460
  643BOLB   C4C15428   6.130  16.020   5.950
  643BOLB   C1D15429   5.800  17.040   4.900
  643BOLB   C2D15430   5.720  17.070   5.400
  643BOLB   C3D15431   5.440  17.230   5.790
  643BOLB   C4D15432   5.400  17.730   5.970
  644BOLB   NC115433  10.550  24.850  21.020
  644BOLB   PO115434  11.080  24.910  20.990
  644BOLB   GL115435  11.140  25.130  21.410
  644BOLB   GL215436  10.770  25.170  21.410
  644BOLB   C1A15437  11.200  25.460  21.640
  644BOLB   C2A15438  11.380  25.550  21.960
  644BOLB   C3A15439  11.490  25.380  22.320
  644BOLB   C4A15440  11.650  25.580  22.620
  644BOLB   C1B15441  10.870  24.840  21.750
  644BOLB   C2B15442  10.780  24.790  22.250
  644BOLB   C3B15443  10.840  25.020  22.600
  644BOLB   C4B15444  10.880  25.430  22.830
  644BOLB   NC215445  11.240  27.730  23.700
  644BOLB   PO215446  11.630  27.670  23.750
  644BOLB   GL315447  11.610  27.500  23.370
  644BOLB   GL415448  11.350  27.420  23.290
  644BOLB   C1C15449  11.690  27.250  22.980
  644BOLB   C2C15450  11.580  26.870  22.670
  644BOLB   C3C15451  11.500  26.330  22.510
  644BOLB   C4C15452  11.720  25.970  22.770
  644BOLB   C1D15453  11.200  27.440  22.880
  644BOLB   C2D15454  10.980  27.130  22.560
  644BOLB   C3D15455  11.000  26.640  22.550
  644BOLB   C4D15456  10.990  26.240  22.670
  645BOLB   NC115457   9.160  20.680  22.710
  645BOLB   PO115458   9.340  20.700  23.100
  645BOLB   GL115459   9.330  20.910  23.540
  645BOLB   GL215460   8.980  20.880  23.660
  645BOLB   C1A15461   9.470  21.050  23.880
  645BOLB   C2A15462   9.340  21.040  24.380
  645BOLB   C3A15463   9.160  20.990  24.730
  645BOLB   C4A15464   9.200  21.190  25.120
  645BOLB   C1B15465   8.930  20.910  24.170
  645BOLB   C2B15466   8.690  21.150  24.460
  645BOLB   C3B15467   8.890  21.600  24.750
  645BOLB   C4B15468   9.150  21.950  24.610
  645BOLB   NC215469   9.490  23.290  26.640
  645BOLB   PO215470   9.380  22.830  26.810
  645BOLB   GL315471   9.290  22.500  26.460
  645BOLB   GL415472   9.610  22.490  26.340
  645BOLB   C1C15473   9.400  22.020  26.360
  645BOLB   C2C15474   9.580  21.960  25.950
  645BOLB   C3C15475   9.500  21.820  25.610
  645BOLB   C4C15476   9.260  21.560  25.290
  645BOLB   C1D15477   9.460  22.420  25.960
  645BOLB   C2D15478   9.330  22.270  25.620
  645BOLB   C3D15479   9.290  22.130  25.120
  645BOLB   C4D15480   9.450  22.330  24.640
  646BOLB   NC115481  16.570  16.810  20.360
  646BOLB   PO115482  16.660  17.300  20.560
  646BOLB   GL115483  17.020  17.190  20.810
  646BOLB   GL215484  17.210  17.420  20.770
  646BOLB   C1A15485  17.250  17.000  21.060
  646BOLB   C2A15486  17.360  16.950  21.460
  646BOLB   C3A15487  17.470  17.020  21.950
  646BOLB   C4A15488  17.640  17.060  22.300
  646BOLB   C1B15489  17.480  17.600  21.070
  646BOLB   C2B15490  17.910  17.650  21.230
  646BOLB   C3B15491  18.250  17.330  21.450
  646BOLB   C4B15492  18.550  17.300  21.750
  646BOLB   NC215493  18.850  16.140  24.130
  646BOLB   PO215494  18.680  16.560  24.110
  646BOLB   GL315495  18.410  16.430  23.650
  646BOLB   GL415496  18.100  16.510  23.800
  646BOLB   C1C15497  18.140  16.320  23.310
  646BOLB   C2C15498  17.860  16.560  23.140
  646BOLB   C3C15499  17.730  16.900  23.040
  646BOLB   C4C15500  17.560  16.950  22.650
  646BOLB   C1D15501  18.300  16.900  23.570
  646BOLB   C2D15502  18.260  16.980  23.180
  646BOLB   C3D15503  18.070  17.160  22.760
  646BOLB   C4D15504  18.190  17.490  22.470
  647BOLB   NC115505  13.990  19.650  22.240
  647BOLB   PO115506  14.160  19.240  22.050
  647BOLB   GL115507  14.210  19.250  22.500
  647BOLB   GL215508  14.490  19.360  22.510
  647BOLB   C1A15509  14.190  19.290  22.990
  647BOLB   C2A15510  14.370  19.180  23.320
  647BOLB   C3A15511  14.590  19.390  23.690
  647BOLB   C4A15512  14.690  19.250  24.070
  647BOLB   C1B15513  14.690  19.420  22.890
  647BOLB   C2B15514  14.810  19.490  23.290
  647BOLB   C3B15515  15.210  19.600  23.360
  647BOLB   C4B15516  15.640  19.440  23.530
  647BOLB   NC215517  16.070  19.360  25.860
  647BOLB   PO215518  15.980  19.730  25.610
  647BOLB   GL315519  16.230  19.760  25.190
  647BOLB   GL415520  16.540  19.880  25.100
  647BOLB   C1C15521  16.130  19.430  24.830
  647BOLB   C2C15522  15.810  19.100  24.770
  647BOLB   C3C15523  15.490  18.840  24.530
  647BOLB   C4C15524  15.080  18.920  24.180
  647BOLB   C1D15525  16.460  19.920  24.580
  647BOLB   C2D15526  16.120  19.670  24.390
  647BOLB   C3D15527  15.730  19.610  24.270
  647BOLB   C4D15528  15.520  19.290  24.070
  648BOLB   NC115529   6.520  17.890  22.270
  648BOLB   PO115530   6.470  17.520  21.980
  648BOLB   GL115531   6.250  17.310  22.300
  648BOLB   GL215532   6.430  17.110  22.370
  648BOLB   C1A15533   6.060  17.340  22.700
  648BOLB   C2A15534   6.080  17.400  23.110
  648BOLB   C3A15535   6.120  17.660  23.390
  648BOLB   C4A15536   5.880  17.820  23.650
  648BOLB   C1B15537   6.490  16.990  22.850
  648BOLB   C2B15538   6.510  16.700  23.130
  648BOLB   C3B15539   6.740  16.360  23.190
  648BOLB   C4B15540   6.890  16.020  23.360
  648BOLB   NC215541   5.560  17.100  25.570
  648BOLB   PO215542   5.310  17.440  25.800
  648BOLB   GL315543   5.640  17.610  25.580
  648BOLB   GL415544   5.850  17.870  25.700
  648BOLB   C1C15545   5.610  18.100  25.340
  648BOLB   C2C15546   5.770  18.320  24.920
  648BOLB   C3C15547   6.010  18.190  24.500
  648BOLB   C4C15548   5.850  17.940  24.100
  648BOLB   C1D15549   6.280  17.940  25.560
  648BOLB   C2D15550   6.600  17.710  25.330
  648BOLB   C3D15551   6.610  17.290  25.110
  648BOLB   C4D15552   6.550  17.340  24.760
  649BOLB   NC115553   3.610  23.570  19.680
  649BOLB   PO115554   3.820  23.710  19.280
  649BOLB   GL115555   3.410  23.980  19.360
  649BOLB   GL215556   3.120  24.140  19.120
  649BOLB   C1A15557   3.250  24.160  19.640
  649BOLB   C2A15558   2.980  24.410  19.780
  649BOLB   C3A15559   2.670  24.710  20.090
  649BOLB   C4A15560   2.670  24.820  20.570
  649BOLB   C1B15561   2.840  24.510  19.220
  649BOLB   C2B15562   2.710  24.760  19.540
  649BOLB   C3B15563   2.240  24.870  19.660
  649BOLB   C4B15564   1.910  24.610  19.640
  649BOLB   NC215565   0.230  24.880  21.160
  649BOLB   PO215566   0.390  25.240  21.210
  649BOLB   GL315567   0.830  25.240  21.000
  649BOLB   GL415568   0.790  25.230  20.660
  649BOLB   C1C15569   1.260  25.360  20.950
  649BOLB   C2C15570   1.600  25.240  20.790
  649BOLB   C3C15571   1.780  24.830  20.810
  649BOLB   C4C15572   2.220  24.800  20.590
  649BOLB   C1D15573   1.220  25.180  20.480
  649BOLB   C2D15574   1.680  25.160  20.320
  649BOLB   C3D15575   2.040  25.240  20.490
  649BOLB   C4D15576   2.410  25.320  20.680
  650BOLB   NC115577   4.820  18.140  20.600
  650BOLB   PO115578   4.840  17.750  20.750
  650BOLB   GL115579   4.660  17.290  20.710
  650BOLB   GL215580   4.830  17.040  20.890
  650BOLB   C1A15581   4.390  16.980  20.610
  650BOLB   C2A15582   3.960  16.970  20.670
  650BOLB   C3A15583   3.680  16.500  20.790
  650BOLB   C4A15584   3.630  16.110  21.010
  650BOLB   C1B15585   4.600  16.740  21.160
  650BOLB   C2B15586   4.320  16.630  21.480
  650BOLB   C3B15587   4.160  16.480  21.970
  650BOLB   C4B15588   4.190  16.590  22.430
  650BOLB   NC215589   3.650  14.790  23.190
  650BOLB   PO215590   3.280  14.880  22.900
  650BOLB   GL315591   3.550  15.220  22.770
  650BOLB   GL415592   3.740  14.890  22.640
  650BOLB   C1C15593   3.570  15.520  22.380
  650BOLB   C2C15594   3.870  15.560  22.010
  650BOLB   C3C15595   3.780  15.680  21.630
  650BOLB   C4C15596   3.840  15.790  21.240
  650BOLB   C1D15597   3.780  15.040  22.300
  650BOLB   C2D15598   4.150  15.190  22.080
  650BOLB   C3D15599   4.420  15.300  21.710
  650BOLB   C4D15600   4.750  15.700  21.700
  651BOLB   NC115601   7.610  17.080  21.980
  651BOLB   PO115602   7.290  17.110  21.760
  651BOLB   GL115603   7.170  16.760  22.040
  651BOLB   GL215604   6.790  16.690  22.190
  651BOLB   C1A15605   7.260  16.670  22.480
  651BOLB   C2A15606   7.220  16.650  22.940
  651BOLB   C3A15607   6.930  16.930  23.250
  651BOLB   C4A15608   7.050  17.080  23.590
  651BOLB   C1B15609   6.700  16.560  22.620
  651BOLB   C2B15610   6.300  16.320  22.890
  651BOLB   C3B15611   5.840  16.380  23.030
  651BOLB   C4B15612   5.440  16.100  23.030
  651BOLB   NC215613   7.770  16.440  25.980
  651BOLB   PO215614   7.440  16.170  25.920
  651BOLB   GL315615   7.540  16.420  25.530
  651BOLB   GL415616   7.640  16.780  25.560
  651BOLB   C1C15617   7.260  16.550  25.190
  651BOLB   C2C15618   7.390  16.730  24.820
  651BOLB   C3C15619   7.340  16.950  24.380
  651BOLB   C4C15620   7.330  17.030  23.910
  651BOLB   C1D15621   7.890  16.640  25.160
  651BOLB   C2D15622   8.210  16.410  25.000
  651BOLB   C3D15623   8.350  16.770  24.880
  651BOLB   C4D15624   8.450  17.190  24.760
  652BOLB   NC115625   6.590  13.610  10.030
  652BOLB   PO115626   6.870  13.370   9.790
  652BOLB   GL115627   6.450  13.260   9.650
  652BOLB   GL215628   6.440  13.190   9.290
  652BOLB   C1A15629   6.030  13.060   9.600
  652BOLB   C2A15630   5.790  12.530   9.610
  652BOLB   C3A15631   5.730  12.080   9.510
  652BOLB   C4A15632   5.620  11.880   9.190
  652BOLB   C1B15633   6.350  12.750   8.960
  652BOLB   C2B15634   6.370  12.340   8.770
  652BOLB   C3B15635   6.190  11.830   8.750
  652BOLB   C4B15636   6.310  11.600   8.490
  652BOLB   NC215637   5.370  10.010   7.690
  652BOLB   PO215638   5.290  10.410   7.390
  652BOLB   GL315639   5.490  10.770   7.590
  652BOLB   GL415640   5.840  10.720   7.420
  652BOLB   C1C15641   5.340  11.120   7.900
  652BOLB   C2C15642   5.160  11.350   8.210
  652BOLB   C3C15643   5.330  11.350   8.570
  652BOLB   C4C15644   5.510  11.570   8.910
  652BOLB   C1D15645   6.160  10.740   7.720
  652BOLB   C2D15646   6.280  10.870   8.090
  652BOLB   C3D15647   6.330  11.110   8.430
  652BOLB   C4D15648   6.240  11.220   8.790
  653BOLB   NC115649   3.150  19.610  10.980
  653BOLB   PO115650   2.760  19.440  10.930
  653BOLB   GL115651   2.380  19.600  10.670
  653BOLB   GL215652   2.340  19.760  10.310
  653BOLB   C1A15653   1.900  19.810  10.690
  653BOLB   C2A15654   1.600  19.680  10.920
  653BOLB   C3A15655   1.110  19.710  10.850
  653BOLB   C4A15656   0.680  19.580  10.550
  653BOLB   C1B15657   2.020  19.880   9.890
  653BOLB   C2B15658   1.970  19.640   9.590
  653BOLB   C3B15659   2.190  19.250   9.460
  653BOLB   C4B15660   2.370  18.930   9.610
  653BOLB   NC215661  35.520  19.810   8.290
  653BOLB   PO215662  36.040  19.740   8.370
  653BOLB   GL315663   0.170  19.620   8.440
  653BOLB   GL415664   0.390  19.760   8.290
  653BOLB   C1C15665   0.380  19.580   8.810
  653BOLB   C2C15666   0.490  19.320   9.310
  653BOLB   C3C15667   0.480  19.300   9.700
  653BOLB   C4C15668   0.640  19.440  10.100
  653BOLB   C1D15669   0.720  19.880   8.470
  653BOLB   C2D15670   0.890  19.910   8.830
  653BOLB   C3D15671   1.110  20.140   9.100
  653BOLB   C4D15672   1.270  20.450   9.370
  654BOLB   NC115673   3.020  15.030  15.340
  654BOLB   PO115674   2.760  15.150  15.090
  654BOLB   GL115675   2.260  15.200  15.270
  654BOLB   GL215676   2.020  15.370  15.090
  654BOLB   C1A15677   1.840  15.090  15.440
  654BOLB   C2A15678   1.460  14.810  15.230
  654BOLB   C3A15679   1.000  14.660  14.920
  654BOLB   C4A15680   0.870  14.290  14.880
  654BOLB   C1B15681   1.950  15.000  14.850
  654BOLB   C2B15682   1.950  14.560  14.710
  654BOLB   C3B15683   2.060  14.080  14.750
  654BOLB   C4B15684   2.180  13.760  14.650
  654BOLB   NC215685   0.110  12.860  16.290
  654BOLB   PO215686   0.120  12.820  16.820
  654BOLB   GL315687   0.470  13.080  16.560
  654BOLB   GL415688   0.450  13.380  16.610
  654BOLB   C1C15689   0.560  13.260  16.070
  654BOLB   C2C15690   0.720  13.380  15.670
  654BOLB   C3C15691   0.800  13.680  15.430
  654BOLB   C4C15692   0.950  14.000  15.160
  654BOLB   C1D15693   0.770  13.580  16.420
  654BOLB   C2D15694   0.710  13.730  16.100
  654BOLB   C3D15695   0.970  13.950  15.830
  654BOLB   C4D15696   0.990  14.330  15.600
  655BOLB   NC115697   7.200  12.030  15.260
  655BOLB   PO115698   7.490  11.680  15.110
  655BOLB   GL115699   7.230  11.330  15.200
  655BOLB   GL215700   7.230  11.030  15.330
  655BOLB   C1A15701   6.810  11.310  15.260
  655BOLB   C2A15702   6.460  11.060  15.390
  655BOLB   C3A15703   6.200  10.830  15.560
  655BOLB   C4A15704   6.290  10.490  15.790
  655BOLB   C1B15705   7.140  10.650  15.220
  655BOLB   C2B15706   7.130  10.230  15.270
  655BOLB   C3B15707   7.020   9.990  15.640
  655BOLB   C4B15708   6.960   9.660  15.930
  655BOLB   NC215709   5.700   8.230  17.450
  655BOLB   PO215710   5.830   8.130  17.020
  655BOLB   GL315711   6.030   8.350  16.730
  655BOLB   GL415712   6.310   8.260  16.570
  655BOLB   C1C15713   5.980   8.880  16.440
  655BOLB   C2C15714   6.020   9.320  16.390
  655BOLB   C3C15715   6.140   9.740  16.130
  655BOLB   C4C15716   6.330   9.980  15.890
  655BOLB   C1D15717   6.440   8.680  16.520
  655BOLB   C2D15718   6.540   9.130  16.340
  655BOLB   C3D15719   6.450   9.560  16.570
  655BOLB   C4D15720   6.280   9.940  16.770
  656BOLB   NC115721  18.470  18.150  18.930
  656BOLB   PO115722  18.250  17.950  18.650
  656BOLB   GL115723  18.570  17.680  18.810
  656BOLB   GL215724  18.800  17.830  18.760
  656BOLB   C1A15725  18.790  17.590  19.210
  656BOLB   C2A15726  19.120  17.650  19.450
  656BOLB   C3A15727  19.510  17.680  19.570
  656BOLB   C4A15728  19.980  17.780  19.700
  656BOLB   C1B15729  19.170  17.920  19.050
  656BOLB   C2B15730  19.300  18.220  19.320
  656BOLB   C3B15731  19.730  18.180  19.480
  656BOLB   C4B15732  20.120  18.300  19.560
  656BOLB   NC215733  22.720  18.530  20.630
  656BOLB   PO215734  22.490  18.480  20.210
  656BOLB   GL315735  22.110  18.550  20.150
  656BOLB   GL415736  22.000  18.760  20.290
  656BOLB   C1C15737  21.750  18.350  19.840
  656BOLB   C2C15738  21.270  18.280  19.830
  656BOLB   C3C15739  20.910  18.080  19.810
  656BOLB   C4C15740  20.460  18.010  19.750
  656BOLB   C1D15741  21.760  18.860  19.840
  656BOLB   C2D15742  21.510  19.230  19.640
  656BOLB   C3D15743  21.070  19.160  19.540
  656BOLB   C4D15744  20.700  18.920  19.370
  657BOLB   NC115745   5.250  17.620  19.930
  657BOLB   PO115746   4.900  17.470  20.270
  657BOLB   GL115747   4.820  17.000  20.360
  657BOLB   GL215748   4.710  16.810  20.020
  657BOLB   C1A15749   4.760  16.610  20.610
  657BOLB   C2A15750   4.660  16.280  20.920
  657BOLB   C3A15751   4.190  16.140  21.130
  657BOLB   C4A15752   3.950  16.290  21.340
  657BOLB   C1B15753   4.460  16.690  20.240
  657BOLB   C2B15754   4.240  16.510  20.590
  657BOLB   C3B15755   4.110  16.650  20.990
  657BOLB   C4B15756   3.830  16.810  21.130
  657BOLB   NC215757   2.490  14.960  22.420
  657BOLB   PO215758   2.560  15.190  22.770
  657BOLB   GL315759   2.750  15.620  22.680
  657BOLB   GL415760   2.650  15.900  22.570
  657BOLB   C1C15761   3.170  15.690  22.570
  657BOLB   C2C15762   3.270  15.820  22.180
  657BOLB   C3C15763   3.580  16.010  21.960
  657BOLB   C4C15764   3.870  16.220  21.690
  657BOLB   C1D15765   2.800  15.770  22.130
  657BOLB   C2D15766   3.040  16.160  21.810
  657BOLB   C3D15767   3.360  16.420  21.820
  657BOLB   C4D15768   3.400  16.840  22.000
  658BOLB   NC115769   4.310  14.080  13.000
  658BOLB   PO115770   4.100  13.930  13.430
  658BOLB   GL115771   3.890  13.410  13.590
  658BOLB   GL215772   4.220  13.300  13.490
  658BOLB   C1A15773   3.540  13.190  13.730
  658BOLB   C2A15774   3.130  13.010  13.570
  658BOLB   C3A15775   2.900  12.630  13.570
  658BOLB   C4A15776   2.830  12.240  13.460
  658BOLB   C1B15777   4.060  12.930  13.580
  658BOLB   C2B15778   4.020  12.570  13.300
  658BOLB   C3B15779   3.950  12.210  13.360
  658BOLB   C4B15780   3.740  11.910  13.570
  658BOLB   NC215781   0.890  11.050  12.510
  658BOLB   PO215782   1.300  11.030  12.330
  658BOLB   GL315783   1.620  11.130  12.330
  658BOLB   GL415784   1.810  10.960  12.190
  658BOLB   C1C15785   1.910  11.340  12.470
  658BOLB   C2C15786   2.280  11.600  12.450
  658BOLB   C3C15787   2.610  11.690  12.760
  658BOLB   C4C15788   2.690  11.860  13.280
  658BOLB   C1D15789   2.170  11.220  12.020
  658BOLB   C2D15790   2.510  11.580  12.050
  658BOLB   C3D15791   2.690  11.910  11.860
  658BOLB   C4D15792   2.910  12.330  11.760
  659BOLB   NC115793   7.700  11.740  12.310
  659BOLB   PO115794   7.410  11.720  12.640
  659BOLB   GL115795   7.450  11.290  12.650
  659BOLB   GL215796   7.690  11.050  12.520
  659BOLB   C1A15797   7.220  10.950  12.620
  659BOLB   C2A15798   6.990  10.570  12.580
  659BOLB   C3A15799   6.730  10.380  12.890
  659BOLB   C4A15800   6.560  10.030  13.180
  659BOLB   C1B15801   7.850  10.760  12.310
  659BOLB   C2B15802   7.830  10.380  12.010
  659BOLB   C3B15803   7.730   9.920  12.000
  659BOLB   C4B15804   7.520   9.530  12.160
  659BOLB   NC215805   5.210   8.090  13.200
  659BOLB   PO215806   5.370   7.760  13.470
  659BOLB   GL315807   5.640   8.080  13.430
  659BOLB   GL415808   5.610   8.330  13.080
  659BOLB   C1C15809   6.050   8.320  13.450
  659BOLB   C2C15810   6.060   8.820  13.310
  659BOLB   C3C15811   6.270   9.200  13.240
  659BOLB   C4C15812   6.330   9.580  13.310
  659BOLB   C1D15813   5.760   8.670  12.920
  659BOLB   C2D15814   6.060   9.030  12.850
  659BOLB   C3D15815   6.400   9.210  12.630
  659BOLB   C4D15816   6.540   9.530  12.810
  660BOLB   NC115817  18.030  15.820  18.510
  660BOLB   PO115818  18.260  15.740  18.090
  660BOLB   GL115819  18.560  15.670  18.230
  660BOLB   GL215820  18.710  15.470  17.980
  660BOLB   C1A15821  18.790  15.550  18.600
  660BOLB   C2A15822  18.940  15.310  18.680
  660BOLB   C3A15823  19.260  14.920  18.710
  660BOLB   C4A15824  19.730  14.880  18.520
  660BOLB   C1B15825  19.110  15.410  18.140
  660BOLB   C2B15826  19.440  15.380  18.420
  660BOLB   C3B15827  19.910  15.410  18.670
  660BOLB   C4B15828  20.210  15.800  18.800
  660BOLB   NC215829  21.560  13.740  19.320
  660BOLB   PO215830  21.210  13.650  19.650
  660BOLB   GL315831  20.820  13.850  19.760
  660BOLB   GL415832  20.700  14.060  20.080
  660BOLB   C1C15833  20.430  14.040  19.680
  660BOLB   C2C15834  20.210  14.330  19.340
  660BOLB   C3C15835  20.220  14.430  18.950
  660BOLB   C4C15836  20.170  14.570  18.650
  660BOLB   C1D15837  20.250  14.320  20.060
  660BOLB   C2D15838  19.920  14.440  19.830
  660BOLB   C3D15839  19.650  14.510  19.490
  660BOLB   C4D15840  19.360  14.620  19.260
  661BOLB   NC115841  13.500   7.640  19.860
  661BOLB   PO115842  13.590   7.930  19.610
  661BOLB   GL115843  13.550   8.060  19.260
  661BOLB   GL215844  13.550   7.780  19.050
  661BOLB   C1A15845  13.380   8.390  19.190
  661BOLB   C2A15846  13.200   8.510  18.930
  661BOLB   C3A15847  12.970   8.640  18.640
  661BOLB   C4A15848  12.560   8.890  18.630
  661BOLB   C1B15849  13.200   7.970  18.940
  661BOLB   C2B15850  12.910   8.150  18.700
  661BOLB   C3B15851  12.620   8.430  18.420
  661BOLB   C4B15852  12.650   8.690  18.070
  661BOLB   NC215853  11.700  10.990  17.280
  661BOLB   PO215854  11.930  10.660  17.010
  661BOLB   GL315855  12.050  10.340  17.290
  661BOLB   GL415856  12.400  10.400  17.530
  661BOLB   C1C15857  12.060   9.840  17.370
  661BOLB   C2C15858  12.150   9.550  17.640
  661BOLB   C3C15859  12.380   9.200  17.830
  661BOLB   C4C15860  12.580   9.210  18.240
  661BOLB   C1D15861  12.350  10.040  17.810
  661BOLB   C2D15862  12.550   9.740  17.970
  661BOLB   C3D15863  12.820   9.340  17.880
  661BOLB   C4D15864  13.240   9.280  17.870
  662BOLB   NC115865   8.310  25.580  20.450
  662BOLB   PO115866   8.190  25.840  20.130
  662BOLB   GL115867   8.060  26.190  20.350
  662BOLB   GL215868   8.260  26.370  20.170
  662BOLB   C1A15869   8.100  26.410  20.720
  662BOLB   C2A15870   8.140  26.890  20.640
  662BOLB   C3A15871   8.000  27.300  20.640
  662BOLB   C4A15872   7.690  27.560  20.910
  662BOLB   C1B15873   8.120  26.700  20.180
  662BOLB   C2B15874   8.080  27.180  20.200
  662BOLB   C3B15875   8.160  27.600  20.210
  662BOLB   C4B15876   8.120  28.010  20.520
  662BOLB   NC215877   6.660  29.560  21.670
  662BOLB   PO215878   6.450  29.320  21.260
  662BOLB   GL315879   6.300  29.050  21.010
  662BOLB   GL415880   6.080  28.920  21.170
  662BOLB   C1C15881   6.530  28.670  20.850
  662BOLB   C2C15882   6.780  28.270  20.990
  662BOLB   C3C15883   7.250  28.230  21.030
  662BOLB   C4C15884   7.460  27.840  21.110
  662BOLB   C1D15885   6.230  28.560  21.270
  662BOLB   C2D15886   6.430  28.190  21.380
  662BOLB   C3D15887   6.360  27.790  21.200
  662BOLB   C4D15888   6.100  27.440  21.170
  663BOLB   NC115889  15.400  12.480  18.130
  663BOLB   PO115890  15.370  12.130  18.010
  663BOLB   GL115891  15.550  11.970  18.280
  663BOLB   GL215892  15.790  11.840  18.170
  663BOLB   C1A15893  15.890  12.090  18.610
  663BOLB   C2A15894  15.930  12.380  19.080
  663BOLB   C3A15895  16.270  12.250  19.330
  663BOLB   C4A15896  16.630  11.940  19.390
  663BOLB   C1B15897  15.930  11.500  18.420
  663BOLB   C2B15898  16.130  11.360  18.730
  663BOLB   C3B15899  16.240  11.170  19.160
  663BOLB   C4B15900  16.280  11.010  19.590
  663BOLB   NC215901  18.370  10.980  19.990
  663BOLB   PO215902  18.130  11.000  20.310
  663BOLB   GL315903  17.730  11.260  20.300
  663BOLB   GL415904  17.480  11.050  20.260
  663BOLB   C1C15905  17.430  11.500  20.510
  663BOLB   C2C15906  17.150  11.820  20.520
  663BOLB   C3C15907  16.980  12.060  20.260
  663BOLB   C4C15908  16.870  11.920  19.840
  663BOLB   C1D15909  17.300  10.970  19.920
  663BOLB   C2D15910  17.250  10.970  19.480
  663BOLB   C3D15911  17.410  11.290  19.190
  663BOLB   C4D15912  17.470  11.720  19.130
  664BOLB   NC115913   7.940  24.910  20.940
  664BOLB   PO115914   7.990  25.060  21.360
  664BOLB   GL115915   8.000  25.460  21.280
  664BOLB   GL215916   7.910  25.690  21.430
  664BOLB   C1A15917   8.480  25.740  21.260
  664BOLB   C2A15918   8.680  25.890  21.610
  664BOLB   C3A15919   8.830  26.100  21.900
  664BOLB   C4A15920   9.240  26.200  22.070
  664BOLB   C1B15921   8.210  25.780  21.680
  664BOLB   C2B15922   8.290  26.100  21.780
  664BOLB   C3B15923   8.100  26.490  21.970
  664BOLB   C4B15924   7.980  26.640  22.320
  664BOLB   NC215925   9.340  27.770  24.100
  664BOLB   PO215926   8.970  27.690  23.880
  664BOLB   GL315927   8.920  27.410  23.550
  664BOLB   GL415928   8.620  27.550  23.430
  664BOLB   C1C15929   8.960  27.130  23.180
  664BOLB   C2C15930   9.150  26.930  22.880
  664BOLB   C3C15931   9.400  26.630  22.550
  664BOLB   C4C15932   9.490  26.370  22.220
  664BOLB   C1D15933   8.580  27.480  22.970
  664BOLB   C2D15934   8.560  27.100  22.670
  664BOLB   C3D15935   8.740  26.660  22.650
  664BOLB   C4D15936   8.990  26.320  22.480
  665BOLB   NC115937   1.970  21.810  16.870
  665BOLB   PO115938   1.850  21.910  16.410
  665BOLB   GL115939   1.530  22.240  16.450
  665BOLB   GL215940   1.610  22.550  16.570
  665BOLB   C1A15941   1.110  22.190  16.320
  665BOLB   C2A15942   0.710  22.230  16.040
  665BOLB   C3A15943   0.220  22.440  16.140
  665BOLB   C4A15944   0.000  22.870  16.130
  665BOLB   C1B15945   1.170  22.490  16.740
  665BOLB   C2B15946   0.810  22.670  16.690
  665BOLB   C3B15947   0.450  22.750  16.880
  665BOLB   C4B15948   0.130  22.730  17.280
  665BOLB   NC215949  34.400  23.440  17.950
  665BOLB   PO215950  34.690  23.730  17.940
  665BOLB   GL315951  35.110  23.560  17.760
  665BOLB   GL415952  35.180  23.840  17.660
  665BOLB   C1C15953  35.540  23.500  17.470
  665BOLB   C2C15954  35.610  23.300  17.160
  665BOLB   C3C15955  35.830  23.210  16.780
  665BOLB   C4C15956  36.000  22.890  16.480
  665BOLB   C1D15957  35.560  23.930  17.740
  665BOLB   C2D15958  35.950  23.850  17.510
  665BOLB   C3D15959  36.230  23.650  17.750
  665BOLB   C4D15960  36.340  23.270  17.830
  666BOLB   NC115961  19.370  18.640  16.840
  666BOLB   PO115962  19.160  18.230  16.860
  666BOLB   GL115963  19.580  18.210  17.170
  666BOLB   GL215964  19.370  17.980  17.430
  666BOLB   C1A15965  19.800  18.220  17.530
  666BOLB   C2A15966  20.010  18.080  17.890
  666BOLB   C3A15967  20.280  18.040  18.210
  666BOLB   C4A15968  20.490  17.750  18.470
  666BOLB   C1B15969  19.820  17.830  17.280
  666BOLB   C2B15970  20.230  17.850  17.310
  666BOLB   C3B15971  20.660  17.870  17.470
  666BOLB   C4B15972  20.840  17.800  17.870
  666BOLB   NC215973  22.940  16.650  19.630
  666BOLB   PO215974  22.500  16.830  19.550
  666BOLB   GL315975  22.220  17.070  19.330
  666BOLB   GL415976  22.300  17.360  19.450
  666BOLB   C1C15977  21.790  16.770  19.210
  666BOLB   C2C15978  21.340  16.870  19.140
  666BOLB   C3C15979  21.090  17.110  18.850
  666BOLB   C4C15980  20.740  17.400  18.730
  666BOLB   C1D15981  21.900  17.440  19.420
  666BOLB   C2D15982  21.450  17.430  19.520
  666BOLB   C3D15983  21.000  17.240  19.360
  666BOLB   C4D15984  20.550  17.090  19.160
  667BOLB   NC115985   3.490  15.460  11.730
  667BOLB   PO115986   3.360  15.210  12.040
  667BOLB   GL115987   3.070  15.080  11.690
  667BOLB   GL215988   2.840  14.820  11.700
  667BOLB   C1A15989   2.780  15.150  11.320
  667BOLB   C2A15990   2.550  15.040  10.940
  667BOLB   C3A15991   2.160  15.210  10.770
  667BOLB   C4A15992   1.780  15.300  10.500
  667BOLB   C1B15993   2.600  14.680  11.350
  667BOLB   C2B15994   2.320  14.430  11.250
  667BOLB   C3B15995   2.190  14.030  11.000
  667BOLB   C4B15996   1.830  13.850  10.980
  667BOLB   NC215997   0.440  15.020   8.780
  667BOLB   PO215998   0.300  14.630   8.730
  667BOLB   GL315999   0.610  14.640   9.110
  667BOLB   GL416000   0.920  14.790   9.030
  667BOLB   C1C16001   0.780  14.890   9.500
  667BOLB   C2C16002   1.050  14.800   9.750
  667BOLB   C3C16003   1.400  14.910   9.870
  667BOLB   C4C16004   1.430  15.290  10.110
  667BOLB   C1D16005   1.170  14.530   9.350
  667BOLB   C2D16006   1.410  14.370   9.760
  667BOLB   C3D16007   1.670  14.440  10.080
  667BOLB   C4D16008   2.010  14.230  10.110
  668BOLB   NC116009   3.840  17.760   9.830
  668BOLB   PO116010   3.540  18.100   9.800
  668BOLB   GL116011   3.350  17.810   9.580
  668BOLB   GL216012   3.460  17.490   9.580
  668BOLB   C1A16013   3.040  17.710   9.290
  668BOLB   C2A16014   2.920  17.290   9.110
  668BOLB   C3A16015   2.830  16.840   8.910
  668BOLB   C4A16016   2.570  16.560   8.940
  668BOLB   C1B16017   3.390  17.410   9.200
  668BOLB   C2B16018   3.380  17.640   8.850
  668BOLB   C3B16019   3.230  17.390   8.540
  668BOLB   C4B16020   2.880  17.190   8.420
  668BOLB   NC216021   0.750  14.530   8.520
  668BOLB   PO216022   0.880  14.930   8.470
  668BOLB   GL316023   1.310  15.010   8.520
  668BOLB   GL416024   1.300  14.820   8.710
  668BOLB   C1C16025   1.460  15.460   8.560
  668BOLB   C2C16026   1.780  15.590   8.840
  668BOLB   C3C16027   2.140  15.780   9.010
  668BOLB   C4C16028   2.340  16.210   8.970
  668BOLB   C1D16029   1.440  14.830   9.090
  668BOLB   C2D16030   1.350  15.010   9.420
  668BOLB   C3D16031   1.600  15.380   9.650
  668BOLB   C4D16032   1.850  15.650   9.850
  669BOLB   NC116033  12.550  21.570  22.020
  669BOLB   PO116034  12.550  21.910  22.420
  669BOLB   GL116035  12.720  21.990  22.840
  669BOLB   GL216036  12.580  21.830  22.970
  669BOLB   C1A16037  12.890  22.320  23.060
  669BOLB   C2A16038  12.820  22.720  23.050
  669BOLB   C3A16039  13.010  23.070  23.220
  669BOLB   C4A16040  13.030  23.400  23.530
  669BOLB   C1B16041  12.730  21.900  23.400
  669BOLB   C2B16042  12.850  22.310  23.550
  669BOLB   C3B16043  12.560  22.650  23.440
  669BOLB   C4B16044  12.200  22.790  23.500
  669BOLB   NC216045  13.980  23.370  25.970
  669BOLB   PO216046  13.960  23.700  25.730
  669BOLB   GL316047  13.720  23.450  25.410
  669BOLB   GL416048  13.900  23.120  25.260
  669BOLB   C1C16049  13.450  23.390  25.030
  669BOLB   C2C16050  13.330  23.510  24.670
  669BOLB   C3C16051  13.120  23.530  24.270
  669BOLB   C4C16052  12.910  23.430  23.980
  669BOLB   C1D16053  14.190  22.970  24.970
  669BOLB   C2D16054  14.410  22.610  24.860
  669BOLB   C3D16055  14.660  22.460  24.530
  669BOLB   C4D16056  14.730  22.260  24.130
  670BOLB   NC116057   3.440  17.740  19.380
  670BOLB   PO116058   3.090  17.950  19.260
  670BOLB   GL116059   2.970  17.610  19.530
  670BOLB   GL216060   3.060  17.410  19.370
  670BOLB   C1A16061   2.770  17.470  19.820
  670BOLB   C2A16062   2.800  17.280  20.160
  670BOLB   C3A16063   3.000  17.240  20.610
  670BOLB   C4A16064   2.710  17.050  20.810
  670BOLB   C1B16065   2.960  17.110  19.500
  670BOLB   C2B16066   2.710  16.960  19.740
  670BOLB   C3B16067   2.330  16.970  19.950
  670BOLB   C4B16068   2.080  16.740  20.000
  670BOLB   NC216069   0.640  15.040  21.340
  670BOLB   PO216070   1.080  15.260  21.410
  670BOLB   GL316071   1.420  15.660  21.500
  670BOLB   GL416072   1.090  15.820  21.400
  670BOLB   C1C16073   1.750  15.800  21.380
  670BOLB   C2C16074   2.100  16.090  21.380
  670BOLB   C3C16075   2.350  16.340  21.110
  670BOLB   C4C16076   2.510  16.740  20.990
  670BOLB   C1D16077   1.280  15.990  21.090
  670BOLB   C2D16078   1.690  16.210  20.800
  670BOLB   C3D16079   2.130  16.160  20.680
  670BOLB   C4D16080   2.450  16.410  20.580
  671BOLB   NC116081  18.160  14.390  13.860
  671BOLB   PO116082  18.350  14.300  13.520
  671BOLB   GL116083  18.730  14.280  13.310
  671BOLB   GL216084  18.940  14.360  13.610
  671BOLB   C1A16085  19.150  14.450  13.150
  671BOLB   C2A16086  19.560  14.380  13.020
  671BOLB   C3A16087  20.020  14.310  13.040
  671BOLB   C4A16088  20.200  14.060  12.760
  671BOLB   C1B16089  19.430  14.370  13.550
  671BOLB   C2B16090  19.810  14.500  13.480
  671BOLB   C3B16091  20.230  14.640  13.410
  671BOLB   C4B16092  20.620  14.880  13.180
  671BOLB   NC216093  22.430  12.460  13.660
  671BOLB   PO216094  22.170  12.720  13.910
  671BOLB   GL316095  21.750  12.930  13.910
  671BOLB   GL416096  21.580  12.790  14.020
  671BOLB   C1C16097  21.390  13.040  13.640
  671BOLB   C2C16098  21.090  13.330  13.380
  671BOLB   C3C16099  20.790  13.440  13.050
  671BOLB   C4C16100  20.390  13.650  12.830
  671BOLB   C1D16101  21.330  13.110  14.150
  671BOLB   C2D16102  20.990  13.360  13.880
  671BOLB   C3D16103  20.710  13.560  13.720
  671BOLB   C4D16104  20.300  13.430  13.890
  672BOLB   NC116105   4.270  14.720  11.050
  672BOLB   PO116106   4.120  14.410  11.000
  672BOLB   GL116107   3.890  14.090  11.070
  672BOLB   GL216108   3.530  14.010  10.870
  672BOLB   C1A16109   3.710  13.700  11.160
  672BOLB   C2A16110   3.630  13.330  11.270
  672BOLB   C3A16111   3.520  12.990  11.440
  672BOLB   C4A16112   3.320  12.590  11.500
  672BOLB   C1B16113   3.140  13.890  10.530
  672BOLB   C2B16114   2.730  13.700  10.300
  672BOLB   C3B16115   2.490  13.320  10.280
  672BOLB   C4B16116   2.220  13.150  10.000
  672BOLB   NC216117   1.430  11.350  10.960
  672BOLB   PO216118   1.830  11.500  10.660
  672BOLB   GL316119   1.910  11.620  10.990
  672BOLB   GL416120   1.760  11.780  11.210
  672BOLB   C1C16121   2.260  11.830  11.080
  672BOLB   C2C16122   2.610  11.900  11.310
  672BOLB   C3C16123   3.090  12.000  11.360
  672BOLB   C4C16124   3.360  12.260  11.340
  672BOLB   C1D16125   1.880  12.030  11.500
  672BOLB   C2D16126   1.870  12.230  11.890
  672BOLB   C3D16127   1.940  12.700  12.040
  672BOLB   C4D16128   2.010  13.000  12.340
  673BOLB   NC116129  10.180  19.220  22.840
  673BOLB   PO116130   9.940  19.580  22.760
  673BOLB   GL116131  10.000  19.640  23.170
  673BOLB   GL216132   9.890  19.960  23.340
  673BOLB   C1A16133   9.890  19.370  23.560
  673BOLB   C2A16134  10.020  19.240  23.960
  673BOLB   C3A16135  10.150  19.030  24.270
  673BOLB   C4A16136  10.450  18.940  24.600
  673BOLB   C1B16137   9.990  20.110  23.680
  673BOLB   C2B16138  10.050  20.080  24.070
  673BOLB   C3B16139  10.000  20.200  24.440
  673BOLB   C4B16140   9.910  20.060  24.830
  673BOLB   NC216141  10.450  18.540  27.140
  673BOLB   PO216142  10.060  18.840  26.960
  673BOLB   GL316143  10.240  19.010  26.610
  673BOLB   GL416144  10.120  19.340  26.680
  673BOLB   C1C16145  10.340  19.380  26.170
  673BOLB   C2C16146  10.600  19.400  25.810
  673BOLB   C3C16147  10.780  19.290  25.400
  673BOLB   C4C16148  10.660  19.040  24.970
  673BOLB   C1D16149  10.030  19.690  26.410
  673BOLB   C2D16150  10.260  20.070  26.280
  673BOLB   C3D16151  10.490  19.930  25.890
  673BOLB   C4D16152  10.630  19.830  25.460
  674BOLB   NC116153  13.110  25.260  20.700
  674BOLB   PO116154  12.650  25.350  20.630
  674BOLB   GL116155  12.380  25.500  20.940
  674BOLB   GL216156  12.210  25.300  21.160
  674BOLB   C1A16157  12.350  25.840  21.220
  674BOLB   C2A16158  12.570  26.250  21.380
  674BOLB   C3A16159  12.710  26.280  21.790
  674BOLB   C4A16160  12.580  26.380  22.260
  674BOLB   C1B16161  12.320  25.460  21.570
  674BOLB   C2B16162  12.710  25.690  21.650
  674BOLB   C3B16163  13.050  25.860  21.960
  674BOLB   C4B16164  13.380  25.990  22.370
  674BOLB   NC216165  14.140  26.550  24.190
  674BOLB   PO216166  13.650  26.580  24.420
  674BOLB   GL316167  13.670  26.360  24.050
  674BOLB   GL416168  13.920  26.180  24.000
  674BOLB   C1C16169  13.520  26.540  23.700
  674BOLB   C2C16170  13.300  26.510  23.290
  674BOLB   C3C16171  12.880  26.560  23.050
  674BOLB   C4C16172  12.650  26.610  22.660
  674BOLB   C1D16173  13.720  26.160  23.560
  674BOLB   C2D16174  13.550  26.080  23.150
  674BOLB   C3D16175  13.320  26.120  22.850
  674BOLB   C4D16176  12.940  26.160  22.550
  675BOLB   NC116177   4.610  19.460  20.220
  675BOLB   PO116178   4.450  19.370  20.620
  675BOLB   GL116179   4.160  19.370  21.020
  675BOLB   GL216180   4.240  19.590  21.350
  675BOLB   C1A16181   3.920  19.160  21.230
  675BOLB   C2A16182   4.030  18.940  21.590
  675BOLB   C3A16183   3.870  18.500  21.670
  675BOLB   C4A16184   3.500  18.340  21.810
  675BOLB   C1B16185   3.990  19.550  21.700
  675BOLB   C2B16186   3.780  19.350  22.050
  675BOLB   C3B16187   3.820  19.460  22.460
  675BOLB   C4B16188   4.130  19.640  22.790
  675BOLB   NC216189   1.960  16.940  23.350
  675BOLB   PO216190   2.160  17.280  23.460
  675BOLB   GL316191   2.350  17.290  23.070
  675BOLB   GL416192   2.620  17.300  23.150
  675BOLB   C1C16193   2.510  17.500  22.690
  675BOLB   C2C16194   2.660  17.950  22.610
  675BOLB   C3C16195   2.910  18.210  22.520
  675BOLB   C4C16196   3.250  18.380  22.240
  675BOLB   C1D16197   2.990  17.180  22.840
  675BOLB   C2D16198   3.250  17.290  22.390
  675BOLB   C3D16199   3.670  17.520  22.250
  675BOLB   C4D16200   4.020  17.740  22.470
  676BOLB   NC116201   6.690  12.560  14.490
  676BOLB   PO116202   6.220  12.540  14.630
  676BOLB   GL116203   5.930  12.210  14.680
  676BOLB   GL216204   6.040  11.940  14.860
  676BOLB   C1A16205   5.580  11.840  14.670
  676BOLB   C2A16206   5.460  11.560  15.050
  676BOLB   C3A16207   5.380  11.160  15.140
  676BOLB   C4A16208   5.190  10.830  15.330
  676BOLB   C1B16209   5.920  11.450  14.930
  676BOLB   C2B16210   5.720  10.990  14.820
  676BOLB   C3B16211   5.830  10.560  14.810
  676BOLB   C4B16212   5.680  10.200  14.770
  676BOLB   NC216213   3.910   8.820  14.390
  676BOLB   PO216214   4.070   8.920  14.830
  676BOLB   GL316215   4.420   9.110  14.950
  676BOLB   GL416216   4.510   8.950  15.090
  676BOLB   C1C16217   4.820   9.440  15.120
  676BOLB   C2C16218   4.860   9.730  15.240
  676BOLB   C3C16219   4.930  10.080  15.450
  676BOLB   C4C16220   5.010  10.430  15.390
  676BOLB   C1D16221   4.810   9.030  15.430
  676BOLB   C2D16222   5.130   9.200  15.700
  676BOLB   C3D16223   5.290   8.970  16.070
  676BOLB   C4D16224   5.610   9.200  16.250
  677BOLB   NC116225  18.470  21.170  18.580
  677BOLB   PO116226  18.190  20.760  18.680
  677BOLB   GL116227  18.380  20.920  19.030
  677BOLB   GL216228  18.440  20.630  19.250
  677BOLB   C1A16229  18.620  21.160  19.390
  677BOLB   C2A16230  18.700  21.120  19.700
  677BOLB   C3A16231  18.880  21.370  20.000
  677BOLB   C4A16232  19.120  21.560  20.250
  677BOLB   C1B16233  18.910  20.740  19.420
  677BOLB   C2B16234  19.140  21.120  19.530
  677BOLB   C3B16235  19.350  21.460  19.810
  677BOLB   C4B16236  19.440  21.850  19.860
  677BOLB   NC216237  21.140  22.240  21.250
  677BOLB   PO216238  21.120  22.410  21.720
  677BOLB   GL316239  20.680  22.340  21.490
  677BOLB   GL416240  20.530  22.270  21.820
  677BOLB   C1C16241  20.370  22.370  21.190
  677BOLB   C2C16242  19.950  22.250  20.960
  677BOLB   C3C16243  19.670  22.000  20.740
  677BOLB   C4C16244  19.380  21.890  20.530
  677BOLB   C1D16245  20.200  22.000  21.530
  677BOLB   C2D16246  19.800  21.870  21.260
  677BOLB   C3D16247  19.390  21.670  21.040
  677BOLB   C4D16248  19.100  21.640  20.830
  678BOLB   NC116249   5.520  19.170  13.130
  678BOLB   PO116250   5.270  18.820  13.170
  678BOLB   GL116251   5.540  18.510  13.380
  678BOLB   GL216252   5.530  18.300  13.620
  678BOLB   C1A16253   6.010  18.390  13.360
  678BOLB   C2A16254   6.340  18.290  13.610
  678BOLB   C3A16255   6.720  18.150  13.980
  678BOLB   C4A16256   6.960  18.010  14.410
  678BOLB   C1B16257   5.950  17.960  13.710
  678BOLB   C2B16258   6.230  17.850  14.010
  678BOLB   C3B16259   6.540  17.710  14.130
  678BOLB   C4B16260   6.790  17.460  14.360
  678BOLB   NC216261   4.950  18.940  14.540
  678BOLB   PO216262   5.280  18.820  14.460
  678BOLB   GL316263   5.560  18.840  14.720
  678BOLB   GL416264   5.720  19.180  14.600
  678BOLB   C1C16265   5.950  18.800  14.850
  678BOLB   C2C16266   6.380  18.790  14.940
  678BOLB   C3C16267   6.750  18.630  14.830
  678BOLB   C4C16268   7.020  18.350  14.710
  678BOLB   C1D16269   6.160  19.190  14.630
  678BOLB   C2D16270   6.410  19.290  14.970
  678BOLB   C3D16271   6.520  19.300  15.330
  678BOLB   C4D16272   6.870  19.160  15.590
  679BOLB   NC116273   6.560  26.790  13.880
  679BOLB   PO116274   6.090  26.940  13.950
  679BOLB   GL116275   5.750  26.960  13.720
  679BOLB   GL216276   5.490  26.990  13.930
  679BOLB   C1A16277   5.350  27.190  13.470
  679BOLB   C2A16278   4.930  27.420  13.390
  679BOLB   C3A16279   4.530  27.400  13.630
  679BOLB   C4A16280   4.170  27.680  13.450
  679BOLB   C1B16281   5.270  27.390  13.940
  679BOLB   C2B16282   5.390  27.840  13.780
  679BOLB   C3B16283   5.400  28.160  13.360
  679BOLB   C4B16284   5.320  28.530  13.520
  679BOLB   NC216285   3.300  29.190  11.650
  679BOLB   PO216286   3.000  28.830  11.710
  679BOLB   GL316287   3.020  28.630  11.960
  679BOLB   GL416288   3.020  28.700  12.260
  679BOLB   C1C16289   3.320  28.330  12.070
  679BOLB   C2C16290   3.460  27.980  12.380
  679BOLB   C3C16291   3.690  27.900  12.800
  679BOLB   C4C16292   4.120  27.810  12.990
  679BOLB   C1D16293   3.320  28.540  12.550
  679BOLB   C2D16294   3.640  28.400  12.750
  679BOLB   C3D16295   3.980  28.290  12.990
  679BOLB   C4D16296   4.300  28.260  13.360
  680BOLB   NC116297  19.360  22.140  13.680
  680BOLB   PO116298  19.400  21.990  14.110
  680BOLB   GL116299  19.770  22.290  14.340
  680BOLB   GL216300  19.710  22.600  14.410
  680BOLB   C1A16301  20.140  22.380  14.280
  680BOLB   C2A16302  20.470  22.220  14.500
  680BOLB   C3A16303  20.870  22.050  14.610
  680BOLB   C4A16304  21.260  22.180  14.650
  680BOLB   C1B16305  19.830  23.070  14.310
  680BOLB   C2B16306  20.210  23.310  14.220
  680BOLB   C3B16307  20.510  23.620  13.980
  680BOLB   C4B16308  20.950  23.480  13.720
  680BOLB   NC216309  23.380  22.200  14.050
  680BOLB   PO216310  23.320  22.610  13.930
  680BOLB   GL316311  23.020  22.630  13.630
  680BOLB   GL416312  22.980  22.410  13.340
  680BOLB   C1C16313  22.560  22.480  13.640
  680BOLB   C2C16314  22.160  22.430  13.790
  680BOLB   C3C16315  21.710  22.450  13.790
  680BOLB   C4C16316  21.540  22.430  14.270
  680BOLB   C1D16317  22.670  22.270  13.160
  680BOLB   C2D16318  22.390  22.050  13.130
  680BOLB   C3D16319  22.170  21.850  12.840
  680BOLB   C4D16320  21.820  21.530  12.780
  681BOLB   NC116321   2.910  15.060  12.240
  681BOLB   PO116322   2.760  15.170  12.630
  681BOLB   GL116323   2.500  14.910  12.400
  681BOLB   GL216324   2.240  14.890  12.620
  681BOLB   C1A16325   2.430  14.520  12.230
  681BOLB   C2A16326   2.300  14.050  12.100
  681BOLB   C3A16327   2.140  13.740  11.920
  681BOLB   C4A16328   1.750  13.540  12.100
  681BOLB   C1B16329   1.980  14.740  12.340
  681BOLB   C2B16330   1.920  14.530  12.020
  681BOLB   C3B16331   1.860  14.250  11.700
  681BOLB   C4B16332   1.820  14.300  11.270
  681BOLB   NC216333   0.570  12.250  10.540
  681BOLB   PO216334   0.820  11.910  10.620
  681BOLB   GL316335   1.050  12.280  10.720
  681BOLB   GL416336   0.870  12.690  10.780
  681BOLB   C1C16337   1.340  12.490  10.970
  681BOLB   C2C16338   1.600  12.780  11.270
  681BOLB   C3C16339   1.680  12.840  11.690
  681BOLB   C4C16340   1.650  13.220  11.950
  681BOLB   C1D16341   1.210  12.980  10.870
  681BOLB   C2D16342   1.420  13.330  10.780
  681BOLB   C3D16343   1.490  13.670  10.480
  681BOLB   C4D16344   1.790  14.100  10.550
  682BOLB   NC116345  16.550  16.970  20.940
  682BOLB   PO116346  16.210  17.120  21.190
  682BOLB   GL116347  16.510  16.890  21.440
  682BOLB   GL216348  16.790  17.050  21.430
  682BOLB   C1A16349  16.650  16.600  21.630
  682BOLB   C2A16350  16.450  16.320  21.850
  682BOLB   C3A16351  16.430  16.120  22.240
  682BOLB   C4A16352  16.150  15.960  22.520
  682BOLB   C1B16353  16.930  17.120  21.790
  682BOLB   C2B16354  16.990  16.900  22.160
  682BOLB   C3B16355  16.960  16.460  22.120
  682BOLB   C4B16356  16.860  15.940  22.090
  682BOLB   NC216357  16.110  14.430  24.650
  682BOLB   PO216358  16.410  14.690  24.700
  682BOLB   GL316359  16.190  14.800  24.270
  682BOLB   GL416360  15.830  14.710  24.290
  682BOLB   C1C16361  16.310  14.890  23.900
  682BOLB   C2C16362  16.410  15.250  23.690
  682BOLB   C3C16363  16.310  15.590  23.340
  682BOLB   C4C16364  16.250  15.770  22.940
  682BOLB   C1D16365  15.780  14.960  24.010
  682BOLB   C2D16366  15.970  15.060  23.540
  682BOLB   C3D16367  15.890  14.950  23.100
  682BOLB   C4D16368  15.410  14.720  23.060
  683BOLB   NC116369  15.310  14.020   9.510
  683BOLB   PO116370  15.560  13.790   9.940
  683BOLB   GL116371  15.690  13.470   9.820
  683BOLB   GL216372  15.520  13.380   9.530
  683BOLB   C1A16373  15.940  13.130   9.640
  683BOLB   C2A16374  16.200  12.670   9.550
  683BOLB   C3A16375  16.610  12.450   9.490
  683BOLB   C4A16376  17.080  12.410   9.350
  683BOLB   C1B16377  15.700  13.210   9.180
  683BOLB   C2B16378  15.920  12.840   9.060
  683BOLB   C3B16379  16.360  12.640   9.030
  683BOLB   C4B16380  16.540  12.260   9.010
  683BOLB   NC216381  18.870  10.520   8.180
  683BOLB   PO216382  18.780  10.510   8.570
  683BOLB   GL316383  18.600  10.870   8.750
  683BOLB   GL416384  18.660  10.910   9.040
  683BOLB   C1C16385  18.290  11.200   8.900
  683BOLB   C2C16386  18.170  11.550   9.150
  683BOLB   C3C16387  17.780  11.810   9.410
  683BOLB   C4C16388  17.500  12.130   9.360
  683BOLB   C1D16389  18.480  11.020   9.400
  683BOLB   C2D16390  18.380  11.330   9.630
  683BOLB   C3D16391  18.210  11.680   9.760
  683BOLB   C4D16392  17.750  11.870   9.970
  684BOLB   NC116393  19.280  20.080  11.730
  684BOLB   PO116394  19.370  20.570  11.820
  684BOLB   GL116395  19.730  20.740  11.960
  684BOLB   GL216396  19.800  20.600  12.300
  684BOLB   C1A16397  20.130  20.940  11.790
  684BOLB   C2A16398  20.540  21.120  11.950
  684BOLB   C3A16399  21.010  21.180  11.820
  684BOLB   C4A16400  21.390  21.300  11.610
  684BOLB   C1B16401  20.150  20.790  12.310
  684BOLB   C2B16402  20.520  20.860  12.480
  684BOLB   C3B16403  20.890  20.970  12.290
  684BOLB   C4B16404  21.110  21.190  12.310
  684BOLB   NC216405  22.860  22.580   9.870
  684BOLB   PO216406  22.890  22.110   9.970
  684BOLB   GL316407  22.480  22.030  10.080
  684BOLB   GL416408  22.360  22.320   9.910
  684BOLB   C1C16409  22.240  21.770  10.260
  684BOLB   C2C16410  22.170  21.700  10.690
  684BOLB   C3C16411  21.870  21.710  11.070
  684BOLB   C4C16412  21.620  21.460  11.290
  684BOLB   C1D16413  21.950  22.140  10.030
  684BOLB   C2D16414  21.540  22.230  10.030
  684BOLB   C3D16415  21.350  21.980  10.170
  684BOLB   C4D16416  21.210  21.810  10.630
  685BOLB   NC116417  14.510  14.770  20.210
  685BOLB   PO116418  14.430  15.100  20.520
  685BOLB   GL116419  14.650  14.870  20.790
  685BOLB   GL216420  14.550  14.770  21.030
  685BOLB   C1A16421  14.920  14.490  20.970
  685BOLB   C2A16422  15.200  14.130  21.000
  685BOLB   C3A16423  15.370  13.860  21.240
  685BOLB   C4A16424  15.550  13.560  21.490
  685BOLB   C1B16425  14.600  14.760  21.410
  685BOLB   C2B16426  14.760  14.530  21.810
  685BOLB   C3B16427  14.930  14.160  22.020
  685BOLB   C4B16428  14.980  13.830  22.190
  685BOLB   NC216429  16.130  11.690  23.240
  685BOLB   PO216430  16.360  12.110  23.440
  685BOLB   GL316431  16.340  12.570  23.170
  685BOLB   GL416432  16.570  12.660  22.990
  685BOLB   C1C16433  16.150  12.880  22.810
  685BOLB   C2C16434  15.910  13.120  22.500
  685BOLB   C3C16435  15.850  13.200  22.060
  685BOLB   C4C16436  15.870  13.320  21.640
  685BOLB   C1D16437  16.370  12.530  22.560
  685BOLB   C2D16438  16.170  12.700  22.220
  685BOLB   C3D16439  16.110  12.710  21.900
  685BOLB   C4D16440  15.830  12.850  21.470
  686BOLB   NC116441  13.240  19.640  21.830
  686BOLB   PO116442  13.600  19.390  21.980
  686BOLB   GL116443  13.760  19.060  22.320
  686BOLB   GL216444  13.640  18.940  22.600
  686BOLB   C1A16445  14.130  18.800  22.650
  686BOLB   C2A16446  14.410  18.800  22.970
  686BOLB   C3A16447  14.720  18.720  23.190
  686BOLB   C4A16448  14.910  18.490  23.580
  686BOLB   C1B16449  13.790  18.970  23.020
  686BOLB   C2B16450  13.990  18.850  23.350
  686BOLB   C3B16451  14.330  18.670  23.510
  686BOLB   C4B16452  14.800  18.960  23.610
  686BOLB   NC216453  15.670  18.470  25.920
  686BOLB   PO216454  15.290  18.230  26.040
  686BOLB   GL316455  15.250  17.960  25.550
  686BOLB   GL416456  14.940  17.870  25.680
  686BOLB   C1C16457  15.040  17.940  25.110
  686BOLB   C2C16458  14.930  18.260  24.850
  686BOLB   C3C16459  14.910  18.420  24.470
  686BOLB   C4C16460  14.940  18.460  24.080
  686BOLB   C1D16461  14.820  17.470  25.530
  686BOLB   C2D16462  14.690  17.220  25.280
  686BOLB   C3D16463  14.530  17.000  24.950
  686BOLB   C4D16464  14.640  16.580  24.810
  687BOLB   NC116465   8.600  16.710  21.680
  687BOLB   PO116466   8.320  16.510  21.870
  687BOLB   GL116467   8.380  16.150  22.160
  687BOLB   GL216468   8.640  16.240  22.330
  687BOLB   C1A16469   8.220  16.000  22.640
  687BOLB   C2A16470   7.970  15.880  23.100
  687BOLB   C3A16471   7.960  15.820  23.600
  687BOLB   C4A16472   8.120  15.960  23.920
  687BOLB   C1B16473   8.760  15.960  22.520
  687BOLB   C2B16474   8.600  15.860  22.900
  687BOLB   C3B16475   8.520  15.740  23.340
  687BOLB   C4B16476   8.340  15.470  23.600
  687BOLB   NC216477   6.720  15.640  25.460
  687BOLB   PO216478   6.820  15.210  25.430
  687BOLB   GL316479   7.050  15.440  25.170
  687BOLB   GL416480   7.070  15.240  24.880
  687BOLB   C1C16481   7.460  15.640  25.160
  687BOLB   C2C16482   7.860  15.660  25.000
  687BOLB   C3C16483   8.090  15.990  24.770
  687BOLB   C4C16484   8.130  16.080  24.340
  687BOLB   C1D16485   7.120  15.630  24.740
  687BOLB   C2D16486   7.000  16.020  24.550
  687BOLB   C3D16487   7.240  16.330  24.410
  687BOLB   C4D16488   7.290  16.550  24.100
  688BOLB   NC116489  18.430  22.090  15.930
  688BOLB   PO116490  18.860  22.140  15.750
  688BOLB   GL116491  19.260  22.340  15.900
  688BOLB   GL216492  19.490  22.520  15.680
  688BOLB   C1A16493  19.640  22.310  16.070
  688BOLB   C2A16494  19.930  22.220  16.400
  688BOLB   C3A16495  20.130  22.390  16.770
  688BOLB   C4A16496  20.420  22.480  17.110
  688BOLB   C1B16497  19.790  22.930  15.540
  688BOLB   C2B16498  20.080  23.050  15.220
  688BOLB   C3B16499  20.250  22.800  14.940
  688BOLB   C4B16500  20.300  22.720  14.540
  688BOLB   NC216501  22.830  22.410  17.630
  688BOLB   PO216502  22.500  22.300  17.960
  688BOLB   GL316503  22.120  22.330  18.090
  688BOLB   GL416504  22.060  22.090  18.230
  688BOLB   C1C16505  21.650  22.480  18.040
  688BOLB   C2C16506  21.280  22.430  17.900
  688BOLB   C3C16507  20.830  22.470  17.790
  688BOLB   C4C16508  20.540  22.630  17.550
  688BOLB   C1D16509  21.950  21.680  18.070
  688BOLB   C2D16510  21.690  21.320  17.900
  688BOLB   C3D16511  21.270  21.210  17.620
  688BOLB   C4D16512  21.270  21.250  17.070
  689BOLB   NC116513  18.270  15.820  12.810
  689BOLB   PO116514  18.630  15.670  12.630
  689BOLB   GL116515  19.120  15.670  12.430
  689BOLB   GL216516  19.150  15.220  12.280
  689BOLB   C1A16517  19.580  15.660  12.100
  689BOLB   C2A16518  19.880  16.070  12.040
  689BOLB   C3A16519  20.160  16.040  11.720
  689BOLB   C4A16520  20.590  15.930  11.650
  689BOLB   C1B16521  19.480  15.160  12.010
  689BOLB   C2B16522  19.740  14.990  11.730
  689BOLB   C3B16523  20.040  15.060  11.510
  689BOLB   C4B16524  20.110  14.740  11.150
  689BOLB   NC216525  22.810  14.760  11.870
  689BOLB   PO216526  22.690  14.550  11.470
  689BOLB   GL316527  22.520  14.980  11.490
  689BOLB   GL416528  22.650  15.210  11.680
  689BOLB   C1C16529  22.220  15.360  11.340
  689BOLB   C2C16530  21.850  15.510  11.420
  689BOLB   C3C16531  21.400  15.740  11.550
  689BOLB   C4C16532  20.970  15.840  11.690
  689BOLB   C1D16533  22.730  15.630  11.830
  689BOLB   C2D16534  22.540  16.070  11.770
  689BOLB   C3D16535  22.160  16.390  11.800
  689BOLB   C4D16536  21.950  16.800  11.890
  690BOLB   NC116537   9.820  16.940  22.220
  690BOLB   PO116538  10.090  16.640  22.210
  690BOLB   GL116539  10.100  16.500  22.470
  690BOLB   GL216540  10.420  16.450  22.590
  690BOLB   C1A16541   9.940  16.350  22.840
  690BOLB   C2A16542   9.830  16.050  23.060
  690BOLB   C3A16543   9.550  15.840  23.110
  690BOLB   C4A16544   9.060  15.690  23.220
  690BOLB   C1B16545  10.740  16.350  22.930
  690BOLB   C2B16546  10.760  16.260  23.410
  690BOLB   C3B16547  10.850  16.130  23.840
  690BOLB   C4B16548  11.030  15.900  24.160
  690BOLB   NC216549   9.320  14.860  25.270
  690BOLB   PO216550   8.880  14.740  25.150
  690BOLB   GL316551   8.900  15.200  25.140
  690BOLB   GL416552   8.760  15.510  25.250
  690BOLB   C1C16553   8.820  15.360  24.760
  690BOLB   C2C16554   8.700  15.280  24.330
  690BOLB   C3C16555   8.840  15.260  23.990
  690BOLB   C4C16556   8.900  15.460  23.570
  690BOLB   C1D16557   9.010  15.760  24.980
  690BOLB   C2D16558   9.090  15.770  24.560
  690BOLB   C3D16559   8.990  15.750  24.120
  690BOLB   C4D16560   9.240  15.910  23.790
  691BOLB   NC116561  19.650  17.160  12.260
  691BOLB   PO116562  19.680  17.060  11.810
  691BOLB   GL116563  19.990  17.170  11.560
  691BOLB   GL216564  19.990  16.920  11.250
  691BOLB   C1A16565  20.420  17.130  11.340
  691BOLB   C2A16566  20.660  16.810  11.490
  691BOLB   C3A16567  20.840  16.350  11.690
  691BOLB   C4A16568  21.280  16.260  11.740
  691BOLB   C1B16569  20.360  16.800  10.950
  691BOLB   C2B16570  20.720  16.770  10.950
  691BOLB   C3B16571  21.040  16.480  11.180
  691BOLB   C4B16572  21.180  16.120  11.260
  691BOLB   NC216573  23.220  15.180  11.140
  691BOLB   PO216574  22.790  15.080  11.110
  691BOLB   GL316575  22.430  15.070  10.920
  691BOLB   GL416576  22.170  14.920  11.010
  691BOLB   C1C16577  22.180  15.340  10.810
  691BOLB   C2C16578  21.960  15.640  10.940
  691BOLB   C3C16579  21.710  15.980  11.230
  691BOLB   C4C16580  21.590  16.240  11.540
  691BOLB   C1D16581  21.790  15.110  11.030
  691BOLB   C2D16582  21.420  15.390  10.980
  691BOLB   C3D16583  21.040  15.680  11.020
  691BOLB   C4D16584  20.750  15.930  11.190
  692BOLB   NC116585  13.240  14.750  20.090
  692BOLB   PO116586  13.170  14.590  20.560
  692BOLB   GL116587  13.350  14.410  20.900
  692BOLB   GL216588  13.060  14.240  21.130
  692BOLB   C1A16589  13.550  14.370  21.320
  692BOLB   C2A16590  13.580  14.210  21.680
  692BOLB   C3A16591  13.970  14.190  21.930
  692BOLB   C4A16592  14.050  14.350  22.390
  692BOLB   C1B16593  13.120  14.160  21.570
  692BOLB   C2B16594  13.130  14.190  22.050
  692BOLB   C3B16595  13.080  13.880  22.400
  692BOLB   C4B16596  13.290  13.560  22.610
  692BOLB   NC216597  15.150  13.380  24.130
  692BOLB   PO216598  15.030  13.600  24.520
  692BOLB   GL316599  14.700  13.580  24.160
  692BOLB   GL416600  14.570  13.830  24.300
  692BOLB   C1C16601  14.470  13.870  23.780
  692BOLB   C2C16602  14.620  14.320  23.490
  692BOLB   C3C16603  14.610  14.320  23.110
  692BOLB   C4C16604  14.290  14.420  22.760
  692BOLB   C1D16605  14.530  14.250  24.090
  692BOLB   C2D16606  14.240  14.550  24.090
  692BOLB   C3D16607  13.970  14.690  23.830
  692BOLB   C4D16608  13.690  15.070  23.550
  693BOLB   NC116609  19.410  16.630  16.190
  693BOLB   PO116610  19.560  16.800  15.740
  693BOLB   GL116611  19.890  16.760  16.170
  693BOLB   GL216612  20.100  16.960  16.200
  693BOLB   C1A16613  20.140  16.510  16.480
  693BOLB   C2A16614  20.140  16.470  16.930
  693BOLB   C3A16615  20.300  16.280  17.220
  693BOLB   C4A16616  20.380  16.020  17.570
  693BOLB   C1B16617  20.530  16.950  16.160
  693BOLB   C2B16618  20.810  16.740  16.020
  693BOLB   C3B16619  21.290  16.730  15.980
  693BOLB   C4B16620  21.670  16.380  15.980
  693BOLB   NC216621  22.530  14.770  17.740
  693BOLB   PO216622  22.210  14.790  18.080
  693BOLB   GL316623  21.830  14.710  18.040
  693BOLB   GL416624  21.630  14.830  18.340
  693BOLB   C1C16625  21.390  14.870  17.950
  693BOLB   C2C16626  21.040  15.270  17.900
  693BOLB   C3C16627  20.690  15.430  17.650
  693BOLB   C4C16628  20.720  15.860  17.720
  693BOLB   C1D16629  21.460  15.140  18.370
  693BOLB   C2D16630  21.170  15.500  18.290
  693BOLB   C3D16631  21.180  15.740  17.900
  693BOLB   C4D16632  21.190  15.860  17.460
  694BOLB   NC116633   8.520  14.560  19.850
  694BOLB   PO116634   8.350  14.150  20.030
  694BOLB   GL116635   8.140  13.980  20.310
  694BOLB   GL216636   7.800  14.060  20.130
  694BOLB   C1A16637   8.010  13.850  20.680
  694BOLB   C2A16638   7.890  13.550  20.790
  694BOLB   C3A16639   7.550  13.380  20.820
  694BOLB   C4A16640   7.220  13.270  21.120
  694BOLB   C1B16641   7.630  13.690  20.320
  694BOLB   C2B16642   7.970  13.370  20.240
  694BOLB   C3B16643   8.080  13.150  20.550
  694BOLB   C4B16644   8.000  13.080  20.950
  694BOLB   NC216645   7.440  11.570  22.900
  694BOLB   PO216646   7.600  11.710  23.300
  694BOLB   GL316647   7.630  12.020  22.990
  694BOLB   GL416648   7.840  11.880  22.730
  694BOLB   C1C16649   7.460  12.460  22.800
  694BOLB   C2C16650   7.320  12.690  22.430
  694BOLB   C3C16651   7.250  13.040  22.030
  694BOLB   C4C16652   7.200  13.200  21.610
  694BOLB   C1D16653   7.970  12.320  22.480
  694BOLB   C2D16654   7.850  12.730  22.440
  694BOLB   C3D16655   7.740  12.920  22.130
  694BOLB   C4D16656   7.670  13.300  21.830
  695BOLB   NC116657   6.990  13.120  18.470
  695BOLB   PO116658   6.810  12.860  18.190
  695BOLB   GL116659   6.560  12.500  18.230
  695BOLB   GL216660   6.230  12.590  18.200
  695BOLB   C1A16661   6.450  12.170  18.550
  695BOLB   C2A16662   6.370  11.900  18.900
  695BOLB   C3A16663   6.060  12.080  19.210
  695BOLB   C4A16664   5.860  12.110  19.640
  695BOLB   C1B16665   6.000  12.350  18.510
  695BOLB   C2B16666   5.950  11.950  18.570
  695BOLB   C3B16667   5.890  11.500  18.470
  695BOLB   C4B16668   6.080  11.120  18.720
  695BOLB   NC216669   4.300  11.510  21.810
  695BOLB   PO216670   4.560  11.500  21.450
  695BOLB   GL316671   4.790  11.840  21.440
  695BOLB   GL416672   4.680  12.150  21.490
  695BOLB   C1C16673   5.130  12.210  21.260
  695BOLB   C2C16674   5.150  12.370  20.820
  695BOLB   C3C16675   5.330  12.500  20.420
  695BOLB   C4C16676   5.570  12.310  20.020
  695BOLB   C1D16677   4.620  12.230  21.050
  695BOLB   C2D16678   4.630  12.320  20.710
  695BOLB   C3D16679   4.850  12.330  20.340
  695BOLB   C4D16680   5.070  12.330  19.900
  696BOLB   NC116681   7.180  17.850  22.310
  696BOLB   PO116682   7.030  18.240  22.360
  696BOLB   GL116683   6.910  18.490  22.700
  696BOLB   GL216684   7.100  18.380  22.940
  696BOLB   C1A16685   6.630  18.700  22.910
  696BOLB   C2A16686   6.320  18.490  23.190
  696BOLB   C3A16687   6.080  18.430  23.450
  696BOLB   C4A16688   5.870  18.400  23.810
  696BOLB   C1B16689   6.870  18.380  23.240
  696BOLB   C2B16690   6.760  18.440  23.770
  696BOLB   C3B16691   6.770  18.330  24.210
  696BOLB   C4B16692   6.930  18.110  24.580
  696BOLB   NC216693   4.230  18.200  25.490
  696BOLB   PO216694   3.800  18.180  25.200
  696BOLB   GL316695   4.130  18.160  24.930
  696BOLB   GL416696   4.110  18.260  24.690
  696BOLB   C1C16697   4.590  18.220  24.850
  696BOLB   C2C16698   4.950  18.300  24.540
  696BOLB   C3C16699   5.190  18.320  24.270
  696BOLB   C4C16700   5.620  18.360  24.110
  696BOLB   C1D16701   4.300  18.290  24.420
  696BOLB   C2D16702   4.600  18.220  24.060
  696BOLB   C3D16703   4.430  18.240  23.640
  696BOLB   C4D16704   4.260  18.280  23.200
  697BOLB   NC116705   4.920  13.840  16.380
  697BOLB   PO116706   4.710  13.840  16.020
  697BOLB   GL116707   4.290  13.610  15.880
  697BOLB   GL216708   4.090  13.530  16.140
  697BOLB   C1A16709   3.950  13.270  15.720
  697BOLB   C2A16710   3.700  12.900  15.900
  697BOLB   C3A16711   3.670  12.490  16.170
  697BOLB   C4A16712   3.500  12.140  16.440
  697BOLB   C1B16713   3.890  13.140  16.440
  697BOLB   C2B16714   3.530  12.890  16.360
  697BOLB   C3B16715   3.150  12.650  16.610
  697BOLB   C4B16716   2.690  12.560  16.390
  697BOLB   NC216717   1.110  11.520  16.110
  697BOLB   PO216718   1.560  11.170  16.330
  697BOLB   GL316719   1.810  11.380  16.200
  697BOLB   GL416720   2.140  11.220  16.210
  697BOLB   C1C16721   2.030  11.840  16.190
  697BOLB   C2C16722   2.270  12.090  16.440
  697BOLB   C3C16723   2.710  12.160  16.660
  697BOLB   C4C16724   3.120  12.060  16.540
  697BOLB   C1D16725   2.530  11.100  16.380
  697BOLB   C2D16726   2.780  11.200  16.660
  697BOLB   C3D16727   2.900  11.220  17.060
  697BOLB   C4D16728   2.980  11.300  17.460
  698BOLB   NC116729   7.750  12.720  16.590
  698BOLB   PO116730   7.670  12.230  16.540
  698BOLB   GL116731   7.400  11.980  16.790
  698BOLB   GL216732   7.160  11.750  16.610
  698BOLB   C1A16733   7.260  11.690  17.080
  698BOLB   C2A16734   7.090  11.570  17.360
  698BOLB   C3A16735   7.020  11.260  17.680
  698BOLB   C4A16736   6.940  10.930  17.780
  698BOLB   C1B16737   7.110  11.330  16.660
  698BOLB   C2B16738   6.710  11.050  16.810
  698BOLB   C3B16739   6.280  10.970  16.650
  698BOLB   C4B16740   6.190  10.710  16.880
  698BOLB   NC216741   5.820   8.780  18.640
  698BOLB   PO216742   6.270   8.710  18.490
  698BOLB   GL316743   6.440   9.110  18.410
  698BOLB   GL416744   6.550   9.160  18.690
  698BOLB   C1C16745   6.350   9.490  18.120
  698BOLB   C2C16746   6.560   9.900  18.060
  698BOLB   C3C16747   6.830  10.210  17.850
  698BOLB   C4C16748   6.770  10.630  17.790
  698BOLB   C1D16749   6.640   9.550  18.600
  698BOLB   C2D16750   6.780   9.960  18.850
  698BOLB   C3D16751   6.920  10.190  18.540
  698BOLB   C4D16752   7.070   9.950  18.150
  699BOLB   NC116753  11.610  22.140  22.570
  699BOLB   PO116754  11.680  21.750  22.630
  699BOLB   GL116755  11.800  21.660  23.020
  699BOLB   GL216756  11.600  21.490  23.210
  699BOLB   C1A16757  12.140  21.800  23.170
  699BOLB   C2A16758  12.270  21.680  23.590
  699BOLB   C3A16759  12.630  21.910  23.970
  699BOLB   C4A16760  12.660  21.770  24.380
  699BOLB   C1B16761  11.480  21.850  23.440
  699BOLB   C2B16762  11.560  21.840  23.950
  699BOLB   C3B16763  11.930  21.610  24.130
  699BOLB   C4B16764  12.360  21.470  24.030
  699BOLB   NC216765  11.300  22.620  27.190
  699BOLB   PO216766  11.470  22.250  26.870
  699BOLB   GL316767  11.530  22.270  26.420
  699BOLB   GL416768  11.320  22.380  26.220
  699BOLB   C1C16769  11.870  22.210  26.090
  699BOLB   C2C16770  12.190  22.170  25.600
  699BOLB   C3C16771  12.280  22.170  25.130
  699BOLB   C4C16772  12.460  21.920  24.760
  699BOLB   C1D16773  11.310  22.450  25.700
  699BOLB   C2D16774  11.060  22.570  25.380
  699BOLB   C3D16775  10.730  22.730  25.370
  699BOLB   C4D16776  10.470  22.860  24.980
  700BOLB   NC116777  13.880  17.750  21.430
  700BOLB   PO116778  14.020  17.410  21.480
  700BOLB   GL116779  14.120  17.210  21.830
  700BOLB   GL216780  14.360  17.440  21.990
  700BOLB   C1A16781  14.230  17.090  22.380
  700BOLB   C2A16782  14.450  16.950  22.760
  700BOLB   C3A16783  14.290  16.490  23.020
  700BOLB   C4A16784  14.120  16.490  23.490
  700BOLB   C1B16785  14.580  17.440  22.400
  700BOLB   C2B16786  14.640  17.420  22.790
  700BOLB   C3B16787  14.680  17.100  23.150
  700BOLB   C4B16788  15.010  16.790  23.270
  700BOLB   NC216789  14.280  14.550  24.860
  700BOLB   PO216790  14.030  14.840  25.160
  700BOLB   GL316791  14.070  15.130  24.950
  700BOLB   GL416792  13.710  15.180  24.840
  700BOLB   C1C16793  14.050  15.400  24.580
  700BOLB   C2C16794  14.080  15.600  24.260
  700BOLB   C3C16795  14.250  15.980  24.130
  700BOLB   C4C16796  14.210  16.170  23.680
  700BOLB   C1D16797  13.370  15.160  24.400
  700BOLB   C2D16798  13.150  15.460  24.160
  700BOLB   C3D16799  12.890  15.440  23.830
  700BOLB   C4D16800  12.790  15.500  23.450
  701BOLB   NC116801   4.170  14.150  16.050
  701BOLB   PO116802   3.940  14.500  16.150
  701BOLB   GL116803   3.600  14.330  16.290
  701BOLB   GL216804   3.260  14.460  16.100
  701BOLB   C1A16805   3.460  14.010  16.230
  701BOLB   C2A16806   3.150  13.790  16.180
  701BOLB   C3A16807   2.850  13.710  16.040
  701BOLB   C4A16808   2.590  13.400  16.240
  701BOLB   C1B16809   2.780  14.230  16.180
  701BOLB   C2B16810   2.570  13.850  16.460
  701BOLB   C3B16811   2.280  13.850  16.760
  701BOLB   C4B16812   2.100  13.460  16.960
  701BOLB   NC216813   0.490  12.150  16.270
  701BOLB   PO216814   0.340  12.460  15.970
  701BOLB   GL316815   0.590  12.720  16.160
  701BOLB   GL416816   0.600  12.610  16.470
  701BOLB   C1C16817   0.930  13.050  16.330
  701BOLB   C2C16818   1.400  13.130  16.470
  701BOLB   C3C16819   1.800  13.340  16.580
  701BOLB   C4C16820   2.280  13.340  16.520
  701BOLB   C1D16821   1.030  12.520  16.250
  701BOLB   C2D16822   1.410  12.660  16.410
  701BOLB   C3D16823   1.680  12.720  16.750
  701BOLB   C4D16824   2.100  12.980  16.870
  702BOLB   NC116825  18.630  17.200  18.030
  702BOLB   PO116826  18.840  17.300  17.750
  702BOLB   GL116827  19.260  17.100  17.590
  702BOLB   GL216828  19.250  16.700  17.660
  702BOLB   C1A16829  19.650  17.020  17.530
  702BOLB   C2A16830  20.100  16.940  17.560
  702BOLB   C3A16831  20.350  17.050  17.820
  702BOLB   C4A16832  20.750  16.810  17.870
  702BOLB   C1B16833  19.630  16.600  17.960
  702BOLB   C2B16834  20.040  16.700  18.060
  702BOLB   C3B16835  20.330  16.770  18.300
  702BOLB   C4B16836  20.530  16.960  18.620
  702BOLB   NC216837  23.170  17.880  18.420
  702BOLB   PO216838  23.260  17.540  18.020
  702BOLB   GL316839  22.870  17.420  17.810
  702BOLB   GL416840  22.750  17.630  17.750
  702BOLB   C1C16841  22.420  17.190  17.650
  702BOLB   C2C16842  21.950  16.990  17.720
  702BOLB   C3C16843  21.550  16.720  17.680
  702BOLB   C4C16844  21.180  16.720  17.900
  702BOLB   C1D16845  22.410  17.430  18.060
  702BOLB   C2D16846  21.950  17.420  17.970
  702BOLB   C3D16847  21.580  17.460  17.730
  702BOLB   C4D16848  21.330  17.640  18.070
  703BOLB   NC116849  14.550  14.120  19.660
  703BOLB   PO116850  14.480  14.300  20.090
  703BOLB   GL116851  14.590  14.200  20.530
  703BOLB   GL216852  14.910  14.030  20.650
  703BOLB   C1A16853  14.470  14.260  20.910
  703BOLB   C2A16854  14.500  14.230  21.370
  703BOLB   C3A16855  14.380  13.970  21.680
  703BOLB   C4A16856  14.320  13.780  22.140
  703BOLB   C1B16857  15.010  13.630  20.770
  703BOLB   C2B16858  15.180  13.360  21.060
  703BOLB   C3B16859  15.280  12.950  21.220
  703BOLB   C4B16860  15.370  12.700  21.010
  703BOLB   NC216861  15.300  12.840  23.940
  703BOLB   PO216862  14.890  12.890  23.930
  703BOLB   GL316863  15.050  12.680  23.420
  703BOLB   GL416864  15.200  12.810  23.170
  703BOLB   C1C16865  14.750  12.670  23.140
  703BOLB   C2C16866  14.430  12.970  22.970
  703BOLB   C3C16867  14.220  13.070  22.520
  703BOLB   C4C16868  14.090  13.450  22.290
  703BOLB   C1D16869  15.010  13.000  22.850
  703BOLB   C2D16870  14.780  13.310  22.700
  703BOLB   C3D16871  14.560  13.450  22.400
  703BOLB   C4D16872  14.850  13.400  22.000
  704BOLB   NC116873   4.750  14.200  12.260
  704BOLB   PO116874   4.700  13.890  12.640
  704BOLB   GL116875   4.450  13.600  12.760
  704BOLB   GL216876   4.120  13.790  12.650
  704BOLB   C1A16877   4.220  13.270  12.630
  704BOLB   C2A16878   4.130  12.880  12.490
  704BOLB   C3A16879   3.860  12.580  12.460
  704BOLB   C4A16880   3.630  12.270  12.580
  704BOLB   C1B16881   3.920  13.570  12.290
  704BOLB   C2B16882   3.930  13.200  12.210
  704BOLB   C3B16883   3.650  12.850  12.000
  704BOLB   C4B16884   3.380  12.490  12.070
  704BOLB   NC216885   2.760  10.090  12.410
  704BOLB   PO216886   2.820   9.830  12.820
  704BOLB   GL316887   2.970  10.190  12.870
  704BOLB   GL416888   2.900  10.290  13.210
  704BOLB   C1C16889   3.120  10.560  12.880
  704BOLB   C2C16890   3.290  10.960  12.720
  704BOLB   C3C16891   3.420  11.420  12.690
  704BOLB   C4C16892   3.600  11.800  12.650
  704BOLB   C1D16893   3.400  10.320  13.320
  704BOLB   C2D16894   3.700  10.590  13.360
  704BOLB   C3D16895   4.150  10.590  13.420
  704BOLB   C4D16896   4.460  10.620  13.700
  705BOLB   NC116897  14.560  12.370  11.990
  705BOLB   PO116898  14.360  12.010  11.930
  705BOLB   GL116899  14.810  11.980  11.850
  705BOLB   GL216900  14.900  11.800  11.630
  705BOLB   C1A16901  15.100  11.770  12.170
  705BOLB   C2A16902  15.290  11.340  12.230
  705BOLB   C3A16903  15.400  11.050  11.890
  705BOLB   C4A16904  15.440  10.640  11.860
  705BOLB   C1B16905  15.180  11.470  11.550
  705BOLB   C2B16906  15.340  11.140  11.340
  705BOLB   C3B16907  15.570  10.830  11.120
  705BOLB   C4B16908  15.990  10.690  11.000
  705BOLB   NC216909  15.690   8.540   9.990
  705BOLB   PO216910  15.670   8.970  10.110
  705BOLB   GL316911  15.690   9.120  10.480
  705BOLB   GL416912  15.620   8.760  10.560
  705BOLB   C1C16913  15.420   9.460  10.800
  705BOLB   C2C16914  15.440   9.740  11.190
  705BOLB   C3C16915  15.610   9.900  11.550
  705BOLB   C4C16916  15.650  10.250  11.860
  705BOLB   C1D16917  15.280   8.980  10.790
  705BOLB   C2D16918  14.900   9.120  10.940
  705BOLB   C3D16919  14.830   9.480  11.170
  705BOLB   C4D16920  14.730   9.910  11.340
  706BOLB   NC116921   3.360  20.880  19.890
  706BOLB   PO116922   3.020  21.000  19.730
  706BOLB   GL116923   2.630  20.990  19.850
  706BOLB   GL216924   2.690  20.820  20.080
  706BOLB   C1A16925   2.220  20.860  19.970
  706BOLB   C2A16926   2.000  20.480  20.180
  706BOLB   C3A16927   1.800  20.160  20.290
  706BOLB   C4A16928   1.810  19.730  20.260
  706BOLB   C1B16929   2.620  20.560  20.350
  706BOLB   C2B16930   2.290  20.450  20.620
  706BOLB   C3B16931   1.890  20.430  20.740
  706BOLB   C4B16932   1.460  20.310  20.930
  706BOLB   NC216933  36.330  20.210  22.170
  706BOLB   PO216934  36.290  19.790  21.970
  706BOLB   GL316935   0.310  19.770  21.860
  706BOLB   GL416936   0.500  19.590  22.150
  706BOLB   C1C16937   0.620  19.690  21.410
  706BOLB   C2C16938   1.090  19.480  21.220
  706BOLB   C3C16939   1.480  19.400  21.010
  706BOLB   C4C16940   1.670  19.400  20.560
  706BOLB   C1D16941   0.820  19.520  21.870
  706BOLB   C2D16942   1.180  19.590  21.700
  706BOLB   C3D16943   1.470  19.390  21.530
  706BOLB   C4D16944   1.540  18.970  21.440
  707BOLB   NC116945  17.160  15.190   8.950
  707BOLB   PO116946  17.340  15.380   9.170
  707BOLB   GL116947  17.640  15.250   8.940
  707BOLB   GL216948  17.740  14.970   9.030
  707BOLB   C1A16949  18.050  15.240   8.760
  707BOLB   C2A16950  18.450  15.250   8.580
  707BOLB   C3A16951  18.970  15.200   8.620
  707BOLB   C4A16952  19.250  14.960   8.490
  707BOLB   C1B16953  17.810  14.530   8.920
  707BOLB   C2B16954  17.910  14.300   8.640
  707BOLB   C3B16955  17.730  14.390   8.180
  707BOLB   C4B16956  17.480  14.760   8.100
  707BOLB   NC216957  20.250  14.130   7.230
  707BOLB   PO216958  20.360  14.550   7.070
  707BOLB   GL316959  20.120  14.860   7.200
  707BOLB   GL416960  20.210  15.040   7.520
  707BOLB   C1C16961  19.880  15.190   7.230
  707BOLB   C2C16962  19.750  15.310   7.550
  707BOLB   C3C16963  19.420  15.020   7.670
  707BOLB   C4C16964  19.270  14.850   8.110
  707BOLB   C1D16965  19.930  14.780   7.830
  707BOLB   C2D16966  19.780  14.840   8.180
  707BOLB   C3D16967  19.700  14.640   8.620
  707BOLB   C4D16968  19.650  14.200   8.860
  708BOLB   NC116969  10.920  19.700  22.570
  708BOLB   PO116970  10.710  20.130  22.820
  708BOLB   GL116971  10.660  19.970  23.250
  708BOLB   GL216972  10.720  20.260  23.380
  708BOLB   C1A16973  10.400  19.770  23.520
  708BOLB   C2A16974  10.290  19.630  23.960
  708BOLB   C3A16975  10.320  19.760  24.370
  708BOLB   C4A16976  10.250  19.460  24.740
  708BOLB   C1B16977  10.500  20.250  23.850
  708BOLB   C2B16978  10.610  20.380  24.320
  708BOLB   C3B16979  10.410  20.320  24.730
  708BOLB   C4B16980  10.340  19.980  25.040
  708BOLB   NC216981   8.810  19.120  26.650
  708BOLB   PO216982   9.240  19.230  26.720
  708BOLB   GL316983   9.490  19.410  26.440
  708BOLB   GL416984   9.270  19.500  26.130
  708BOLB   C1C16985   9.830  19.330  26.090
  708BOLB   C2C16986   9.990  19.180  25.690
  708BOLB   C3C16987   9.850  19.210  25.300
  708BOLB   C4C16988  10.010  19.110  24.900
  708BOLB   C1D16989   8.900  19.530  25.860
  708BOLB   C2D16990   8.930  19.490  25.440
  708BOLB   C3D16991   8.700  19.500  25.080
  708BOLB   C4D16992   8.450  19.470  24.720
  709BOLB   NC116993  19.220  17.480  14.900
  709BOLB   PO116994  19.520  17.290  14.480
  709BOLB   GL116995  19.920  17.070  14.620
  709BOLB   GL216996  20.070  17.230  14.350
  709BOLB   C1A16997  20.270  16.870  14.600
  709BOLB   C2A16998  20.600  16.630  14.680
  709BOLB   C3A16999  21.010  16.430  14.840
  709BOLB   C4A17000  21.330  16.290  15.110
  709BOLB   C1B17001  20.470  17.050  14.150
  709BOLB   C2B17002  20.810  16.960  14.080
  709BOLB   C3B17003  21.060  16.960  13.810
  709BOLB   C4B17004  21.420  17.250  13.690
  709BOLB   NC217005  23.430  15.740  15.350
  709BOLB   PO217006  23.230  15.370  15.310
  709BOLB   GL317007  22.760  15.410  15.270
  709BOLB   GL417008  22.600  15.050  15.240
  709BOLB   C1C17009  22.340  15.470  15.460
  709BOLB   C2C17010  22.010  15.620  15.540
  709BOLB   C3C17011  21.690  16.000  15.630
  709BOLB   C4C17012  21.460  16.300  15.530
  709BOLB   C1D17013  22.430  15.160  14.850
  709BOLB   C2D17014  22.040  15.340  14.600
  709BOLB   C3D17015  21.690  15.620  14.590
  709BOLB   C4D17016  21.400  15.890  14.680
  710BOLB   NC117017  16.780  25.650  16.430
  710BOLB   PO117018  17.250  25.530  16.250
  710BOLB   GL117019  17.450  25.790  16.360
  710BOLB   GL217020  17.210  26.060  16.500
  710BOLB   C1A17021  17.780  25.900  16.430
  710BOLB   C2A17022  18.200  26.070  16.390
  710BOLB   C3A17023  18.530  26.310  16.480
  710BOLB   C4A17024  18.680  26.260  16.050
  710BOLB   C1B17025  17.550  26.290  16.680
  710BOLB   C2B17026  17.930  26.510  16.710
  710BOLB   C3B17027  18.340  26.750  16.680
  710BOLB   C4B17028  18.680  27.080  16.800
  710BOLB   NC217029  20.660  27.880  16.860
  710BOLB   PO217030  20.340  28.100  16.570
  710BOLB   GL317031  20.010  27.890  16.340
  710BOLB   GL417032  19.940  27.900  16.010
  710BOLB   C1C17033  19.830  27.480  16.310
  710BOLB   C2C17034  19.500  27.180  16.180
  710BOLB   C3C17035  19.250  26.860  16.150
  710BOLB   C4C17036  19.050  26.450  15.950
  710BOLB   C1D17037  19.760  27.590  15.720
  710BOLB   C2D17038  19.430  27.320  15.730
  710BOLB   C3D17039  19.220  26.940  15.560
  710BOLB   C4D17040  19.570  26.730  15.800
  711BOLB   NC117041   1.960  23.240  13.300
  711BOLB   PO117042   1.920  23.350  13.730
  711BOLB   GL117043   1.620  23.470  13.810
  711BOLB   GL217044   1.530  23.520  13.490
  711BOLB   C1A17045   1.270  23.790  13.830
  711BOLB   C2A17046   0.800  23.700  13.690
  711BOLB   C3A17047   0.360  23.520  14.000
  711BOLB   C4A17048   0.050  23.220  14.140
  711BOLB   C1B17049   1.150  23.730  13.280
  711BOLB   C2B17050   1.150  24.120  13.010
  711BOLB   C3B17051   0.870  24.190  12.670
  711BOLB   C4B17052   0.610  24.340  12.280
  711BOLB   NC217053  34.110  23.350  14.430
  711BOLB   PO217054  34.300  23.800  14.340
  711BOLB   GL317055  34.560  23.430  14.200
  711BOLB   GL417056  34.410  23.160  14.090
  711BOLB   C1C17057  34.950  23.280  14.080
  711BOLB   C2C17058  35.290  23.260  14.350
  711BOLB   C3C17059  35.770  23.170  14.520
  711BOLB   C4C17060  36.170  23.070  14.480
  711BOLB   C1D17061  34.680  22.870  14.200
  711BOLB   C2D17062  35.010  22.630  14.370
  711BOLB   C3D17063  35.330  22.400  14.450
  711BOLB   C4D17064  35.690  22.380  14.720
  712BOLB   NC117065   6.760  23.450  21.830
  712BOLB   PO117066   7.070  23.700  21.900
  712BOLB   GL117067   7.110  23.950  22.240
  712BOLB   GL217068   7.400  24.230  22.290
  712BOLB   C1A17069   6.800  24.210  22.530
  712BOLB   C2A17070   6.660  24.340  22.920
  712BOLB   C3A17071   6.480  24.460  23.190
  712BOLB   C4A17072   6.730  24.500  23.530
  712BOLB   C1B17073   7.260  24.500  22.610
  712BOLB   C2B17074   7.150  24.940  22.580
  712BOLB   C3B17075   7.040  25.230  22.780
  712BOLB   C4B17076   6.640  25.420  22.550
  712BOLB   NC217077   7.240  27.050  24.340
  712BOLB   PO217078   6.980  26.690  24.530
  712BOLB   GL317079   7.170  26.540  24.250
  712BOLB   GL417080   7.280  26.550  23.820
  712BOLB   C1C17081   7.170  26.100  24.060
  712BOLB   C2C17082   7.310  25.640  23.740
  712BOLB   C3C17083   7.140  25.220  23.790
  712BOLB   C4C17084   7.060  24.770  23.510
  712BOLB   C1D17085   7.420  26.300  23.580
  712BOLB   C2D17086   7.150  26.090  23.220
  712BOLB   C3D17087   6.880  25.900  22.920
  712BOLB   C4D17088   6.450  25.890  22.800
  713BOLB   NC117089  13.090  22.630  22.220
  713BOLB   PO117090  13.500  22.800  21.880
  713BOLB   GL117091  13.580  22.710  22.260
  713BOLB   GL217092  13.620  23.010  22.600
  713BOLB   C1A17093  13.680  22.520  22.670
  713BOLB   C2A17094  13.670  22.340  23.090
  713BOLB   C3A17095  13.760  22.590  23.410
  713BOLB   C4A17096  14.030  22.370  23.860
  713BOLB   C1B17097  13.780  23.400  22.910
  713BOLB   C2B17098  14.090  23.770  23.080
  713BOLB   C3B17099  14.320  24.070  22.790
  713BOLB   C4B17100  14.580  24.460  22.520
  713BOLB   NC217101  15.520  23.900  25.040
  713BOLB   PO217102  15.000  23.770  25.190
  713BOLB   GL317103  14.830  23.750  24.840
  713BOLB   GL417104  15.090  23.880  24.610
  713BOLB   C1C17105  14.970  23.380  24.510
  713BOLB   C2C17106  14.810  23.330  24.020
  713BOLB   C3C17107  14.530  23.020  24.020
  713BOLB   C4C17108  14.340  22.560  24.130
  713BOLB   C1D17109  14.820  23.800  24.220
  713BOLB   C2D17110  14.420  23.870  23.950
  713BOLB   C3D17111  14.030  23.920  23.560
  713BOLB   C4D17112  13.680  24.050  23.370
  714BOLB   NC117113   7.110  27.020  18.240
  714BOLB   PO117114   6.710  27.130  18.020
  714BOLB   GL117115   6.510  27.450  17.940
  714BOLB   GL217116   6.300  27.560  18.220
  714BOLB   C1A17117   6.590  27.690  17.610
  714BOLB   C2A17118   6.450  28.010  17.470
  714BOLB   C3A17119   6.370  28.350  17.180
  714BOLB   C4A17120   6.320  28.910  17.150
  714BOLB   C1B17121   6.230  27.830  17.850
  714BOLB   C2B17122   5.950  28.080  17.790
  714BOLB   C3B17123   6.060  28.480  17.610
  714BOLB   C4B17124   6.370  28.690  17.610
  714BOLB   NC217125   5.370  31.150  17.730
  714BOLB   PO217126   5.100  30.930  17.540
  714BOLB   GL317127   5.310  30.570  17.580
  714BOLB   GL417128   5.380  30.530  17.350
  714BOLB   C1C17129   5.340  30.090  17.620
  714BOLB   C2C17130   5.450  29.740  17.530
  714BOLB   C3C17131   5.610  29.380  17.410
  714BOLB   C4C17132   5.930  29.270  17.150
  714BOLB   C1D17133   5.530  30.170  17.190
  714BOLB   C2D17134   5.740  29.730  17.090
  714BOLB   C3D17135   6.040  29.580  16.750
  714BOLB   C4D17136   5.930  29.320  16.350
  715BOLB   NC117137  13.880  26.160  19.240
  715BOLB   PO117138  13.670  26.310  19.610
  715BOLB   GL117139  13.770  26.560  19.930
  715BOLB   GL217140  13.940  26.550  20.180
  715BOLB   C1A17141  13.820  27.020  20.010
  715BOLB   C2A17142  13.610  27.400  19.940
  715BOLB   C3A17143  13.870  27.770  19.840
  715BOLB   C4A17144  13.940  28.200  19.820
  715BOLB   C1B17145  14.180  26.700  20.530
  715BOLB   C2B17146  14.050  26.970  20.740
  715BOLB   C3B17147  13.910  27.240  21.070
  715BOLB   C4B17148  13.980  27.660  21.170
  715BOLB   NC217149  15.210  29.210  21.620
  715BOLB   PO217150  15.020  28.770  21.610
  715BOLB   GL317151  14.770  28.850  21.310
  715BOLB   GL417152  14.980  29.140  21.190
  715BOLB   C1C17153  14.440  28.760  21.090
  715BOLB   C2C17154  14.470  28.760  20.710
  715BOLB   C3C17155  14.240  28.890  20.300
  715BOLB   C4C17156  13.970  28.600  19.980
  715BOLB   C1D17157  14.880  29.150  20.820
  715BOLB   C2D17158  14.940  29.040  20.430
  715BOLB   C3D17159  14.810  28.800  20.090
  715BOLB   C4D17160  14.860  28.290  20.210
  716BOLB   NC117161  14.820  25.610  11.700
  716BOLB   PO117162  14.610  25.850  12.000
  716BOLB   GL117163  14.750  26.310  11.760
  716BOLB   GL217164  14.700  26.710  11.940
  716BOLB   C1A17165  14.850  26.440  11.340
  716BOLB   C2A17166  14.870  26.830  11.230
  716BOLB   C3A17167  15.120  27.110  11.100
  716BOLB   C4A17168  15.250  27.460  11.110
  716BOLB   C1B17169  14.940  26.850  11.720
  716BOLB   C2B17170  15.310  26.970  11.570
  716BOLB   C3B17171  15.600  27.330  11.590
  716BOLB   C4B17172  15.940  27.600  11.550
  716BOLB   NC217173  16.700  29.140  10.580
  716BOLB   PO217174  16.480  29.550  10.660
  716BOLB   GL317175  16.070  29.420  10.620
  716BOLB   GL417176  15.780  29.580  10.530
  716BOLB   C1C17177  15.880  29.010  10.570
  716BOLB   C2C17178  15.780  28.520  10.600
  716BOLB   C3C17179  15.670  28.090  10.740
  716BOLB   C4C17180  15.430  27.800  10.840
  716BOLB   C1D17181  15.470  29.270  10.660
  716BOLB   C2D17182  15.350  28.790  10.670
  716BOLB   C3D17183  15.160  28.370  10.820
  716BOLB   C4D17184  14.790  28.220  10.890
  717BOLB   NC117185  10.750  26.460  11.560
  717BOLB   PO117186  10.720  26.270  11.130
  717BOLB   GL117187  10.770  26.600  10.800
  717BOLB   GL217188  11.070  26.630  10.730
  717BOLB   C1A17189  10.740  26.890  10.460
  717BOLB   C2A17190  10.710  27.400  10.380
  717BOLB   C3A17191  10.440  27.700  10.270
  717BOLB   C4A17192  10.150  27.920  10.070
  717BOLB   C1B17193  11.190  26.970  10.420
  717BOLB   C2B17194  11.080  27.150  10.180
  717BOLB   C3B17195  11.110  27.490  10.020
  717BOLB   C4B17196  11.050  27.870  10.200
  717BOLB   NC217197   9.210  30.020   9.670
  717BOLB   PO217198   9.500  30.280   9.610
  717BOLB   GL317199   9.680  29.830   9.740
  717BOLB   GL417200   9.980  29.800  10.000
  717BOLB   C1C17201   9.510  29.500   9.940
  717BOLB   C2C17202   9.700  29.150   9.850
  717BOLB   C3C17203   9.910  28.750   9.760
  717BOLB   C4C17204   9.970  28.330   9.830
  717BOLB   C1D17205   9.830  29.450  10.310
  717BOLB   C2D17206   9.820  29.080  10.330
  717BOLB   C3D17207   9.950  28.740  10.610
  717BOLB   C4D17208   9.800  28.300  10.900
  718BOLB   NC117209  13.490  20.530  21.920
  718BOLB   PO117210  13.750  20.830  21.860
  718BOLB   GL117211  13.520  20.850  22.250
  718BOLB   GL217212  13.270  21.090  22.390
  718BOLB   C1A17213  13.650  20.710  22.690
  718BOLB   C2A17214  13.760  20.790  23.110
  718BOLB   C3A17215  14.020  20.580  23.460
  718BOLB   C4A17216  14.000  20.200  23.580
  718BOLB   C1B17217  13.320  21.070  22.760
  718BOLB   C2B17218  13.490  21.180  23.240
  718BOLB   C3B17219  13.800  21.020  23.590
  718BOLB   C4B17220  13.930  21.150  24.060
  718BOLB   NC217221  15.640  20.110  25.690
  718BOLB   PO217222  15.420  19.790  25.670
  718BOLB   GL317223  15.170  19.790  25.320
  718BOLB   GL417224  14.760  19.800  25.240
  718BOLB   C1C17225  15.050  19.850  24.860
  718BOLB   C2C17226  14.760  19.790  24.510
  718BOLB   C3C17227  14.500  19.740  24.120
  718BOLB   C4C17228  14.220  20.050  23.970
  718BOLB   C1D17229  14.440  19.490  25.170
  718BOLB   C2D17230  14.330  19.120  24.950
  718BOLB   C3D17231  14.190  18.900  24.710
  718BOLB   C4D17232  13.930  18.870  24.380
  719BOLB   NC117233  14.320  27.630  23.760
  719BOLB   PO117234  13.880  27.390  23.820
  719BOLB   GL117235  13.870  27.220  23.410
  719BOLB   GL217236  13.700  26.940  23.270
  719BOLB   C1A17237  14.060  27.270  22.900
  719BOLB   C2A17238  14.080  27.220  22.480
  719BOLB   C3A17239  14.100  26.890  22.250
  719BOLB   C4A17240  14.110  26.540  22.130
  719BOLB   C1B17241  13.210  26.980  23.110
  719BOLB   C2B17242  13.080  27.400  23.030
  719BOLB   C3B17243  13.280  27.590  22.680
  719BOLB   C4B17244  13.680  27.570  22.490
  719BOLB   NC217245  13.840  25.480  20.070
  719BOLB   PO217246  13.780  25.860  19.900
  719BOLB   GL317247  13.860  26.040  20.230
  719BOLB   GL417248  13.790  26.110  20.550
  719BOLB   C1C17249  14.280  26.140  20.470
  719BOLB   C2C17250  14.050  26.290  20.970
  719BOLB   C3C17251  13.940  26.440  21.370
  719BOLB   C4C17252  13.990  26.290  21.800
  719BOLB   C1D17253  13.560  26.120  21.060
  719BOLB   C2D17254  13.460  26.350  21.300
  719BOLB   C3D17255  13.250  26.240  21.670
  719BOLB   C4D17256  13.150  26.400  22.060
  720BOLB   NC117257   9.650  18.340  22.710
  720BOLB   PO117258  10.130  18.320  22.700
  720BOLB   GL117259  10.060  18.030  22.970
  720BOLB   GL217260  10.300  17.720  23.000
  720BOLB   C1A17261   9.980  17.940  23.340
  720BOLB   C2A17262   9.760  17.960  23.690
  720BOLB   C3A17263   9.840  17.640  24.010
  720BOLB   C4A17264   9.920  17.560  24.400
  720BOLB   C1B17265  10.210  17.520  23.360
  720BOLB   C2B17266  10.070  17.310  23.750
  720BOLB   C3B17267  10.040  17.030  24.130
  720BOLB   C4B17268   9.820  17.080  24.590
  720BOLB   NC217269   8.500  17.680  26.700
  720BOLB   PO217270   8.860  17.790  26.510
  720BOLB   GL317271   9.140  17.610  26.280
  720BOLB   GL417272   9.160  17.220  26.400
  720BOLB   C1C17273   9.300  17.450  25.850
  720BOLB   C2C17274   9.660  17.350  25.560
  720BOLB   C3C17275   9.980  17.610  25.250
  720BOLB   C4C17276   9.880  17.640  24.860
  720BOLB   C1D17277   8.850  17.270  26.030
  720BOLB   C2D17278   8.930  17.120  25.620
  720BOLB   C3D17279   9.230  17.260  25.330
  720BOLB   C4D17280   9.310  17.110  24.920
  721BOLB   NC117281  16.030  25.770  14.980
  721BOLB   PO117282  16.170  26.110  14.700
  721BOLB   GL117283  16.380  26.410  14.520
  721BOLB   GL217284  16.470  26.610  14.780
  721BOLB   C1A17285  16.280  26.810  14.360
  721BOLB   C2A17286  16.270  27.260  14.480
  721BOLB   C3A17287  16.400  27.700  14.540
  721BOLB   C4A17288  16.400  28.120  14.580
  721BOLB   C1B17289  16.830  26.550  14.780
  721BOLB   C2B17290  17.170  26.820  14.790
  721BOLB   C3B17291  17.370  26.510  14.880
  721BOLB   C4B17292  17.280  26.080  14.770
  721BOLB   NC217293  17.410  30.110  12.890
  721BOLB   PO217294  17.250  29.830  13.230
  721BOLB   GL317295  17.200  29.410  13.330
  721BOLB   GL417296  17.290  29.180  13.050
  721BOLB   C1C17297  17.020  28.970  13.490
  721BOLB   C2C17298  17.030  28.730  13.840
  721BOLB   C3C17299  16.860  28.700  14.300
  721BOLB   C4C17300  16.510  28.580  14.530
  721BOLB   C1D17301  17.110  28.730  13.020
  721BOLB   C2D17302  17.040  28.420  12.840
  721BOLB   C3D17303  17.180  28.130  13.070
  721BOLB   C4D17304  17.230  27.940  13.440
  722BOLB   NC117305  17.110  23.370  11.090
  722BOLB   PO117306  17.140  23.830  10.880
  722BOLB   GL117307  17.550  24.000  10.980
  722BOLB   GL217308  17.530  24.190  10.770
  722BOLB   C1A17309  17.900  24.130  11.070
  722BOLB   C2A17310  18.200  24.100  10.770
  722BOLB   C3A17311  18.540  24.190  10.570
  722BOLB   C4A17312  18.830  24.150  10.290
  722BOLB   C1B17313  17.900  24.480  10.700
  722BOLB   C2B17314  18.140  24.590  10.450
  722BOLB   C3B17315  17.900  24.870  10.280
  722BOLB   C4B17316  17.720  24.940   9.840
  722BOLB   NC217317  20.520  25.700   8.720
  722BOLB   PO217318  20.200  26.020   9.040
  722BOLB   GL317319  20.000  25.790   9.390
  722BOLB   GL417320  20.010  25.620   9.770
  722BOLB   C1C17321  19.690  25.490   9.410
  722BOLB   C2C17322  19.330  25.210   9.550
  722BOLB   C3C17323  19.130  24.720   9.710
  722BOLB   C4C17324  18.820  24.420   9.890
  722BOLB   C1D17325  19.770  25.230   9.910
  722BOLB   C2D17326  19.580  24.820   9.920
  722BOLB   C3D17327  19.320  24.530  10.140
  722BOLB   C4D17328  19.360  24.080  10.290
  723BOLB   NC117329  13.130  22.260  21.570
  723BOLB   PO117330  13.450  21.840  21.770
  723BOLB   GL117331  13.440  21.860  22.300
  723BOLB   GL217332  13.430  21.550  22.580
  723BOLB   C1A17333  13.680  22.030  22.600
  723BOLB   C2A17334  13.980  21.990  23.030
  723BOLB   C3A17335  14.080  22.040  23.400
  723BOLB   C4A17336  13.910  21.820  23.810
  723BOLB   C1B17337  13.680  21.530  22.950
  723BOLB   C2B17338  13.820  21.510  23.430
  723BOLB   C3B17339  14.130  21.410  23.670
  723BOLB   C4B17340  14.600  21.380  23.850
  723BOLB   NC217341  15.130  22.400  25.690
  723BOLB   PO217342  14.900  22.320  26.030
  723BOLB   GL317343  14.650  22.170  25.610
  723BOLB   GL417344  14.540  22.420  25.290
  723BOLB   C1C17345  14.530  21.820  25.320
  723BOLB   C2C17346  14.290  21.630  24.900
  723BOLB   C3C17347  13.970  21.780  24.570
  723BOLB   C4C17348  13.850  21.760  24.180
  723BOLB   C1D17349  14.770  22.190  25.060
  723BOLB   C2D17350  14.680  21.910  24.770
  723BOLB   C3D17351  14.480  21.990  24.530
  723BOLB   C4D17352  14.230  22.010  24.230
  724BOLB   NC117353   1.910  20.700  13.930
  724BOLB   PO117354   1.430  20.730  13.860
  724BOLB   GL117355   1.340  20.460  14.140
  724BOLB   GL217356   1.110  20.560  14.250
  724BOLB   C1A17357   0.930  20.120  14.180
  724BOLB   C2A17358   0.540  19.900  14.090
  724BOLB   C3A17359   0.240  19.570  14.010
  724BOLB   C4A17360  36.330  19.450  14.330
  724BOLB   C1B17361   0.710  20.730  14.150
  724BOLB   C2B17362   0.380  20.840  14.390
  724BOLB   C3B17363  36.350  21.060  14.470
  724BOLB   C4B17364  36.200  21.420  14.220
  724BOLB   NC217365  33.910  18.280  14.730
  724BOLB   PO217366  34.060  18.610  15.010
  724BOLB   GL317367  34.510  18.600  15.110
  724BOLB   GL417368  34.540  18.300  15.280
  724BOLB   C1C17369  34.910  18.600  14.760
  724BOLB   C2C17370  35.220  18.870  14.780
  724BOLB   C3C17371  35.610  19.020  14.650
  724BOLB   C4C17372  36.130  19.100  14.600
  724BOLB   C1D17373  34.940  18.130  15.110
  724BOLB   C2D17374  35.370  18.250  14.940
  724BOLB   C3D17375  35.770  18.510  14.910
  724BOLB   C4D17376  36.130  18.730  14.960
  725BOLB   NC117377  13.910  22.230  21.100
  725BOLB   PO117378  13.760  22.530  21.470
  725BOLB   GL117379  13.900  22.440  21.850
  725BOLB   GL217380  13.870  22.080  22.060
  725BOLB   C1A17381  14.020  22.480  22.300
  725BOLB   C2A17382  14.430  22.720  22.440
  725BOLB   C3A17383  14.590  22.730  22.820
  725BOLB   C4A17384  14.930  23.030  22.950
  725BOLB   C1B17385  14.140  22.010  22.400
  725BOLB   C2B17386  14.240  22.320  22.760
  725BOLB   C3B17387  14.260  22.420  23.160
  725BOLB   C4B17388  14.340  22.630  23.490
  725BOLB   NC217389  16.950  23.760  24.380
  725BOLB   PO217390  16.850  23.950  24.020
  725BOLB   GL317391  16.530  23.700  23.960
  725BOLB   GL417392  16.480  23.620  24.200
  725BOLB   C1C17393  16.240  23.500  23.630
  725BOLB   C2C17394  16.080  23.420  23.410
  725BOLB   C3C17395  15.730  23.240  23.320
  725BOLB   C4C17396  15.380  23.070  23.050
  725BOLB   C1D17397  16.230  23.280  24.130
  725BOLB   C2D17398  16.300  23.020  23.790
  725BOLB   C3D17399  16.220  22.940  23.390
  725BOLB   C4D17400  16.220  23.170  23.000
  726BOLB   NC117401  17.800  13.710  16.370
  726BOLB   PO117402  18.130  14.000  16.350
  726BOLB   GL117403  18.340  13.630  16.140
  726BOLB   GL217404  18.610  13.760  16.120
  726BOLB   C1A17405  18.610  13.310  16.240
  726BOLB   C2A17406  18.980  13.320  16.190
  726BOLB   C3A17407  19.210  12.990  16.200
  726BOLB   C4A17408  19.450  12.640  16.120
  726BOLB   C1B17409  18.870  13.620  15.830
  726BOLB   C2B17410  19.070  13.290  15.660
  726BOLB   C3B17411  19.480  13.220  15.830
  726BOLB   C4B17412  19.760  13.160  16.280
  726BOLB   NC217413  20.840  11.230  16.520
  726BOLB   PO217414  21.060  11.200  16.140
  726BOLB   GL317415  20.900  11.630  16.130
  726BOLB   GL417416  21.060  11.820  16.240
  726BOLB   C1C17417  20.480  11.710  16.300
  726BOLB   C2C17418  20.240  11.870  16.040
  726BOLB   C3C17419  19.900  12.000  16.260
  726BOLB   C4C17420  19.720  12.410  15.980
  726BOLB   C1D17421  20.940  12.220  16.110
  726BOLB   C2D17422  20.850  12.550  15.940
  726BOLB   C3D17423  20.390  12.770  15.660
  726BOLB   C4D17424  19.900  12.900  15.870
  727BOLB   NC117425  10.360  27.340  16.560
  727BOLB   PO117426  10.200  27.620  16.720
  727BOLB   GL117427  10.220  28.050  16.640
  727BOLB   GL217428   9.930  28.210  16.840
  727BOLB   C1A17429  10.410  28.380  16.500
  727BOLB   C2A17430  10.480  28.750  16.270
  727BOLB   C3A17431  10.360  29.110  16.110
  727BOLB   C4A17432  10.620  29.360  16.020
  727BOLB   C1B17433  10.070  28.640  16.730
  727BOLB   C2B17434  10.170  29.100  16.590
  727BOLB   C3B17435  10.460  29.380  16.700
  727BOLB   C4B17436  10.980  29.510  16.910
  727BOLB   NC217437  11.420  31.780  15.420
  727BOLB   PO217438  11.030  31.750  15.640
  727BOLB   GL317439  11.220  31.390  15.650
  727BOLB   GL417440  11.320  31.330  15.960
  727BOLB   C1C17441  11.030  31.010  15.750
  727BOLB   C2C17442  10.800  30.750  15.980
  727BOLB   C3C17443  10.610  30.310  16.010
  727BOLB   C4C17444  10.670  29.800  15.950
  727BOLB   C1D17445  11.530  31.020  16.200
  727BOLB   C2D17446  11.610  30.670  16.470
  727BOLB   C3D17447  11.440  30.300  16.630
  727BOLB   C4D17448  11.790  29.970  16.810
  728BOLB   NC117449   1.770  22.720  15.310
  728BOLB   PO117450   1.730  22.220  15.360
  728BOLB   GL117451   1.450  22.460  15.630
  728BOLB   GL217452   1.180  22.220  15.780
  728BOLB   C1A17453   1.190  22.740  15.770
  728BOLB   C2A17454   0.780  22.760  15.960
  728BOLB   C3A17455   0.430  22.830  15.790
  728BOLB   C4A17456   0.040  23.040  15.630
  728BOLB   C1B17457   0.810  22.390  15.560
  728BOLB   C2B17458   0.410  22.580  15.250
  728BOLB   C3B17459  36.320  22.670  15.220
  728BOLB   C4B17460  35.940  22.790  15.500
  728BOLB   NC217461  33.640  22.850  15.570
  728BOLB   PO217462  33.850  23.120  15.950
  728BOLB   GL317463  34.280  23.180  15.880
  728BOLB   GL417464  34.300  22.850  15.760
  728BOLB   C1C17465  34.740  23.150  15.710
  728BOLB   C2C17466  35.120  23.070  15.660
  728BOLB   C3C17467  35.690  23.300  15.640
  728BOLB   C4C17468  36.040  23.330  15.490
  728BOLB   C1D17469  34.600  22.840  16.050
  728BOLB   C2D17470  34.910  22.990  16.120
  728BOLB   C3D17471  35.400  23.050  16.160
  728BOLB   C4D17472  35.760  23.310  16.270
  729BOLB   NC117473  17.600  24.320  14.140
  729BOLB   PO117474  17.620  24.670  13.900
  729BOLB   GL117475  17.850  25.100  14.050
  729BOLB   GL217476  18.190  25.050  14.040
  729BOLB   C1A17477  17.870  25.610  13.830
  729BOLB   C2A17478  17.780  26.050  13.790
  729BOLB   C3A17479  17.730  26.560  13.900
  729BOLB   C4A17480  17.960  26.860  14.140
  729BOLB   C1B17481  18.560  25.300  13.980
  729BOLB   C2B17482  18.810  25.600  14.090
  729BOLB   C3B17483  19.230  25.560  14.250
  729BOLB   C4B17484  19.680  25.560  14.110
  729BOLB   NC217485  19.380  28.280  12.720
  729BOLB   PO217486  19.480  28.060  13.100
  729BOLB   GL317487  19.100  28.020  13.060
  729BOLB   GL417488  18.870  27.810  12.940
  729BOLB   C1C17489  18.910  27.840  13.430
  729BOLB   C2C17490  18.670  27.750  13.810
  729BOLB   C3C17491  18.500  27.490  13.960
  729BOLB   C4C17492  18.090  27.350  14.200
  729BOLB   C1D17493  18.730  27.400  13.020
  729BOLB   C2D17494  18.440  27.030  13.290
  729BOLB   C3D17495  18.340  27.040  13.800
  729BOLB   C4D17496  18.520  26.680  13.940
  730BOLB   NC117497  15.530  23.380  20.290
  730BOLB   PO117498  15.160  23.320  20.500
  730BOLB   GL117499  15.480  23.280  20.830
  730BOLB   GL217500  15.600  23.030  20.910
  730BOLB   C1A17501  15.540  23.610  21.210
  730BOLB   C2A17502  15.630  23.920  21.530
  730BOLB   C3A17503  16.000  23.950  21.740
  730BOLB   C4A17504  16.160  23.940  22.150
  730BOLB   C1B17505  15.850  23.220  21.220
  730BOLB   C2B17506  16.030  23.520  21.490
  730BOLB   C3B17507  16.480  23.540  21.630
  730BOLB   C4B17508  16.780  23.810  21.860
  730BOLB   NC217509  16.940  24.250  23.670
  730BOLB   PO217510  17.340  24.320  23.730
  730BOLB   GL317511  17.360  24.150  23.300
  730BOLB   GL417512  17.040  24.240  23.150
  730BOLB   C1C17513  17.580  24.060  22.850
  730BOLB   C2C17514  17.380  24.080  22.480
  730BOLB   C3C17515  17.090  23.920  22.280
  730BOLB   C4C17516  16.670  24.020  22.290
  730BOLB   C1D17517  16.810  24.340  22.840
  730BOLB   C2D17518  16.610  24.480  22.460
  730BOLB   C3D17519  16.260  24.530  22.170
  730BOLB   C4D17520  16.020  24.440  21.810
  731BOLB   NC117521   4.640  25.740  17.610
  731BOLB   PO117522   4.830  26.120  17.500
  731BOLB   GL117523   4.920  26.550  17.430
  731BOLB   GL217524   4.620  26.590  17.340
  731BOLB   C1A17525   4.830  27.020  17.510
  731BOLB   C2A17526   4.700  27.430  17.530
  731BOLB   C3A17527   4.570  27.820  17.490
  731BOLB   C4A17528   4.270  28.170  17.520
  731BOLB   C1B17529   4.280  26.950  17.340
  731BOLB   C2B17530   4.230  27.390  17.460
  731BOLB   C3B17531   4.010  27.690  17.260
  731BOLB   C4B17532   3.810  28.090  17.140
  731BOLB   NC217533   3.870  30.200  18.190
  731BOLB   PO217534   3.610  30.160  18.520
  731BOLB   GL317535   3.860  29.810  18.510
  731BOLB   GL417536   3.820  29.460  18.610
  731BOLB   C1C17537   3.670  29.450  18.130
  731BOLB   C2C17538   3.500  29.060  18.200
  731BOLB   C3C17539   3.670  28.660  18.010
  731BOLB   C4C17540   3.990  28.420  17.760
  731BOLB   C1D17541   4.020  29.070  18.470
  731BOLB   C2D17542   4.040  28.640  18.470
  731BOLB   C3D17543   4.110  28.320  18.240
  731BOLB   C4D17544   4.440  28.130  17.950
  732BOLB   NC117545  17.830  24.880  15.960
  732BOLB   PO117546  17.860  25.080  16.400
  732BOLB   GL117547  18.080  25.430  16.440
  732BOLB   GL217548  17.990  25.540  16.780
  732BOLB   C1A17549  18.450  25.630  16.310
  732BOLB   C2A17550  18.770  25.730  15.990
  732BOLB   C3A17551  19.020  25.550  15.640
  732BOLB   C4A17552  19.140  25.670  15.120
  732BOLB   C1B17553  18.290  25.820  16.860
  732BOLB   C2B17554  18.270  26.200  17.040
  732BOLB   C3B17555  18.290  26.650  17.200
  732BOLB   C4B17556  18.320  27.050  17.280
  732BOLB   NC217557  21.760  26.720  14.420
  732BOLB   PO217558  21.290  26.910  14.190
  732BOLB   GL317559  20.860  26.790  14.390
  732BOLB   GL417560  20.620  26.710  14.090
  732BOLB   C1C17561  20.550  26.410  14.430
  732BOLB   C2C17562  20.130  26.060  14.370
  732BOLB   C3C17563  19.760  26.030  14.550
  732BOLB   C4C17564  19.400  25.830  14.790
  732BOLB   C1D17565  20.200  26.570  14.060
  732BOLB   C2D17566  19.830  26.480  14.110
  732BOLB   C3D17567  19.290  26.590  14.170
  732BOLB   C4D17568  18.940  26.910  13.980
  733BOLB   NC117569   3.810  22.720  19.810
  733BOLB   PO117570   3.860  23.100  19.860
  733BOLB   GL117571   3.540  23.030  20.090
  733BOLB   GL217572   3.710  23.330  20.290
  733BOLB   C1A17573   3.090  23.050  20.220
  733BOLB   C2A17574   2.830  23.140  20.500
  733BOLB   C3A17575   2.560  23.310  20.740
  733BOLB   C4A17576   2.560  23.480  21.130
  733BOLB   C1B17577   3.340  23.440  20.380
  733BOLB   C2B17578   2.970  23.740  20.430
  733BOLB   C3B17579   2.850  24.060  20.700
  733BOLB   C4B17580   2.670  24.450  20.940
  733BOLB   NC217581   1.960  24.350  23.560
  733BOLB   PO217582   1.740  24.040  23.420
  733BOLB   GL317583   2.050  23.820  23.220
  733BOLB   GL417584   2.350  23.560  23.260
  733BOLB   C1C17585   2.240  23.890  22.870
  733BOLB   C2C17586   2.230  23.840  22.420
  733BOLB   C3C17587   2.430  23.750  21.980
  733BOLB   C4C17588   2.450  23.710  21.520
  733BOLB   C1D17589   2.710  23.860  23.150
  733BOLB   C2D17590   3.110  23.800  22.950
  733BOLB   C3D17591   3.250  23.700  22.490
  733BOLB   C4D17592   3.050  23.890  22.140
  734BOLB   NC117593   5.160  26.260  13.580
  734BOLB   PO117594   4.980  25.910  13.300
  734BOLB   GL117595   4.730  26.160  13.190
  734BOLB   GL217596   4.670  26.470  13.300
  734BOLB   C1A17597   4.310  26.270  12.980
  734BOLB   C2A17598   4.260  26.380  12.580
  734BOLB   C3A17599   4.110  26.780  12.310
  734BOLB   C4A17600   3.840  27.050  12.280
  734BOLB   C1B17601   4.450  26.780  12.930
  734BOLB   C2B17602   4.380  27.070  12.560
  734BOLB   C3B17603   4.080  27.370  12.600
  734BOLB   C4B17604   3.830  27.630  12.390
  734BOLB   NC217605   2.370  28.810  11.510
  734BOLB   PO217606   2.320  28.310  11.360
  734BOLB   GL317607   2.560  28.090  11.500
  734BOLB   GL417608   2.640  28.320  11.750
  734BOLB   C1C17609   2.970  27.900  11.650
  734BOLB   C2C17610   3.210  27.840  11.960
  734BOLB   C3C17611   3.350  27.590  12.100
  734BOLB   C4C17612   3.590  27.300  12.120
  734BOLB   C1D17613   2.850  28.100  12.130
  734BOLB   C2D17614   3.050  27.840  12.510
  734BOLB   C3D17615   3.260  27.540  12.610
  734BOLB   C4D17616   3.570  27.210  12.850
  735BOLB   NC117617  17.200  18.460  19.970
  735BOLB   PO117618  17.220  18.040  20.170
  735BOLB   GL117619  17.510  18.340  20.390
  735BOLB   GL217620  17.730  18.540  20.420
  735BOLB   C1A17621  17.720  18.150  20.750
  735BOLB   C2A17622  18.110  17.930  20.810
  735BOLB   C3A17623  18.410  17.810  21.060
  735BOLB   C4A17624  18.610  17.650  21.430
  735BOLB   C1B17625  17.960  18.550  20.830
  735BOLB   C2B17626  18.350  18.380  21.050
  735BOLB   C3B17627  18.720  18.270  21.220
  735BOLB   C4B17628  19.030  17.920  21.380
  735BOLB   NC217629  20.500  17.790  22.490
  735BOLB   PO217630  20.220  18.040  22.820
  735BOLB   GL317631  20.160  18.110  22.370
  735BOLB   GL417632  20.240  18.430  22.410
  735BOLB   C1C17633  19.680  18.250  22.170
  735BOLB   C2C17634  19.300  18.170  22.250
  735BOLB   C3C17635  18.900  18.080  22.130
  735BOLB   C4C17636  18.730  17.790  21.810
  735BOLB   C1D17637  20.110  18.500  21.950
  735BOLB   C2D17638  19.820  18.360  21.630
  735BOLB   C3D17639  19.460  18.170  21.650
  735BOLB   C4D17640  19.250  17.840  21.850
  736BOLB   NC117641   2.290  22.360  17.740
  736BOLB   PO117642   2.230  22.720  17.510
  736BOLB   GL117643   1.930  22.930  17.790
  736BOLB   GL217644   2.000  23.170  18.120
  736BOLB   C1A17645   1.550  23.110  17.910
  736BOLB   C2A17646   1.330  23.420  17.930
  736BOLB   C3A17647   1.030  23.820  18.040
  736BOLB   C4A17648   0.650  23.880  18.140
  736BOLB   C1B17649   2.090  23.460  18.420
  736BOLB   C2B17650   1.820  23.730  18.660
  736BOLB   C3B17651   1.430  23.690  18.810
  736BOLB   C4B17652   1.290  23.740  19.250
  736BOLB   NC217653  34.810  23.730  18.850
  736BOLB   PO217654  34.980  24.070  19.030
  736BOLB   GL317655  35.350  23.820  18.990
  736BOLB   GL417656  35.640  24.090  19.010
  736BOLB   C1C17657  35.750  23.640  18.830
  736BOLB   C2C17658  36.120  23.730  18.660
  736BOLB   C3C17659   0.090  23.990  18.400
  736BOLB   C4C17660   0.260  23.960  18.010
  736BOLB   C1D17661  36.060  24.070  19.040
  736BOLB   C2D17662   0.030  24.030  19.080
  736BOLB   C3D17663   0.320  24.170  19.320
  736BOLB   C4D17664   0.540  24.440  19.370
  737BOLB   NC117665   9.650  26.900  19.270
  737BOLB   PO117666   9.420  26.500  19.330
  737BOLB   GL117667   9.220  26.800  19.730
  737BOLB   GL217668   9.380  27.020  19.740
  737BOLB   C1A17669   8.960  27.000  19.960
  737BOLB   C2A17670   8.960  27.190  20.330
  737BOLB   C3A17671   9.040  27.530  20.660
  737BOLB   C4A17672   9.030  28.030  20.690
  737BOLB   C1B17673   9.530  27.320  20.020
  737BOLB   C2B17674   9.840  27.550  20.290
  737BOLB   C3B17675   9.980  27.810  20.510
  737BOLB   C4B17676   9.990  27.990  20.800
  737BOLB   NC217677   9.210  30.320  19.920
  737BOLB   PO217678   8.870  30.290  20.230
  737BOLB   GL317679   9.000  29.930  20.370
  737BOLB   GL417680   9.310  30.030  20.510
  737BOLB   C1C17681   9.170  29.550  20.480
  737BOLB   C2C17682   8.980  29.160  20.650
  737BOLB   C3C17683   9.190  28.810  20.560
  737BOLB   C4C17684   9.180  28.430  20.500
  737BOLB   C1D17685   9.670  29.730  20.530
  737BOLB   C2D17686  10.170  29.780  20.510
  737BOLB   C3D17687  10.530  29.590  20.730
  737BOLB   C4D17688  11.010  29.520  20.650
  738BOLB   NC117689  17.690  24.150  18.470
  738BOLB   PO117690  17.440  23.960  18.800
  738BOLB   GL117691  17.550  24.080  19.070
  738BOLB   GL217692  17.460  24.310  19.160
  738BOLB   C1A17693  17.720  23.920  19.420
  738BOLB   C2A17694  18.040  24.120  19.520
  738BOLB   C3A17695  18.480  24.340  19.390
  738BOLB   C4A17696  18.880  24.350  19.370
  738BOLB   C1B17697  17.720  24.510  19.380
  738BOLB   C2B17698  18.160  24.740  19.620
  738BOLB   C3B17699  18.290  25.050  19.750
  738BOLB   C4B17700  18.420  25.440  19.860
  738BOLB   NC217701  20.370  25.940  19.740
  738BOLB   PO217702  20.720  25.790  19.690
  738BOLB   GL317703  20.420  25.420  19.870
  738BOLB   GL417704  20.390  25.090  19.990
  738BOLB   C1C17705  20.100  25.260  19.630
  738BOLB   C2C17706  19.890  24.900  19.490
  738BOLB   C3C17707  19.550  24.650  19.570
  738BOLB   C4C17708  19.160  24.560  19.520
  738BOLB   C1D17709  20.030  25.250  20.150
  738BOLB   C2D17710  19.650  25.220  20.050
  738BOLB   C3D17711  19.310  25.060  19.880
  738BOLB   C4D17712  19.070  25.110  19.510
  739BOLB   NC117713  18.530  20.440  11.660
  739BOLB   PO117714  18.950  20.460  11.550
  739BOLB   GL117715  19.320  20.490  11.280
  739BOLB   GL217716  19.620  20.170  11.300
  739BOLB   C1A17717  19.710  20.500  10.990
  739BOLB   C2A17718  19.970  20.640  10.710
  739BOLB   C3A17719  20.240  20.680  10.400
  739BOLB   C4A17720  20.560  20.870  10.200
  739BOLB   C1B17721  20.010  20.210  11.260
  739BOLB   C2B17722  20.440  20.300  11.390
  739BOLB   C3B17723  20.970  20.420  11.400
  739BOLB   C4B17724  21.170  20.850  11.500
  739BOLB   NC217725  22.070  20.850   8.200
  739BOLB   PO217726  22.270  21.020   8.580
  739BOLB   GL317727  21.980  20.850   8.660
  739BOLB   GL417728  21.680  20.930   8.530
  739BOLB   C1C17729  21.690  20.930   9.000
  739BOLB   C2C17730  21.350  20.870   9.320
  739BOLB   C3C17731  21.140  21.040   9.680
  739BOLB   C4C17732  20.910  21.020   9.980
  739BOLB   C1D17733  21.570  20.510   8.570
  739BOLB   C2D17734  21.520  20.060   8.760
  739BOLB   C3D17735  21.560  19.840   9.110
  739BOLB   C4D17736  21.640  19.530   9.470
  740BOLB   NC117737   3.350  24.990  17.030
  740BOLB   PO117738   2.930  25.100  17.100
  740BOLB   GL117739   2.810  25.390  17.310
  740BOLB   GL217740   2.670  25.260  17.590
  740BOLB   C1A17741   2.720  25.820  17.330
  740BOLB   C2A17742   2.550  26.250  17.450
  740BOLB   C3A17743   2.130  26.310  17.340
  740BOLB   C4A17744   1.720  26.300  17.260
  740BOLB   C1B17745   2.410  25.580  17.630
  740BOLB   C2B17746   2.230  25.850  17.240
  740BOLB   C3B17747   2.450  26.010  16.880
  740BOLB   C4B17748   2.280  26.280  16.660
  740BOLB   NC217749  36.310  27.110  18.420
  740BOLB   PO217750  36.170  26.740  18.660
  740BOLB   GL317751   0.070  26.570  18.380
  740BOLB   GL417752   0.270  26.720  18.070
  740BOLB   C1C17753   0.410  26.290  18.280
  740BOLB   C2C17754   0.710  26.190  17.980
  740BOLB   C3C17755   1.070  26.240  17.780
  740BOLB   C4C17756   1.280  26.390  17.380
  740BOLB   C1D17757   0.460  26.590  17.860
  740BOLB   C2D17758   0.680  26.380  17.500
  740BOLB   C3D17759   0.790  26.200  17.080
  740BOLB   C4D17760   0.940  25.790  16.960
  741BOLB   NC117761  12.240  17.570  21.970
  741BOLB   PO117762  11.900  17.340  22.010
  741BOLB   GL117763  11.850  17.020  22.320
  741BOLB   GL217764  11.890  17.210  22.480
  741BOLB   C1A17765  11.780  16.650  22.560
  741BOLB   C2A17766  11.950  16.540  22.980
  741BOLB   C3A17767  12.120  16.390  23.360
  741BOLB   C4A17768  12.270  16.260  23.770
  741BOLB   C1B17769  11.950  17.080  22.950
  741BOLB   C2B17770  11.930  17.000  23.430
  741BOLB   C3B17771  11.930  17.120  23.910
  741BOLB   C4B17772  11.900  17.140  24.390
  741BOLB   NC217773  12.440  14.620  25.800
  741BOLB   PO217774  12.240  14.970  25.990
  741BOLB   GL317775  12.000  15.140  25.660
  741BOLB   GL417776  11.700  15.300  25.760
  741BOLB   C1C17777  12.040  15.400  25.260
  741BOLB   C2C17778  12.130  15.630  24.820
  741BOLB   C3C17779  12.370  15.800  24.430
  741BOLB   C4C17780  12.490  16.100  24.120
  741BOLB   C1D17781  11.490  15.530  25.370
  741BOLB   C2D17782  11.610  15.950  25.060
  741BOLB   C3D17783  11.850  16.300  24.850
  741BOLB   C4D17784  12.120  16.330  24.440
  742BOLB   NC117785  13.050  25.910  19.490
  742BOLB   PO117786  13.100  26.380  19.530
  742BOLB   GL117787  13.250  26.670  19.780
  742BOLB   GL217788  13.470  26.930  19.710
  742BOLB   C1A17789  13.390  26.850  20.190
  742BOLB   C2A17790  13.440  27.220  20.370
  742BOLB   C3A17791  13.280  27.580  20.610
  742BOLB   C4A17792  13.170  27.990  20.600
  742BOLB   C1B17793  13.840  27.160  19.480
  742BOLB   C2B17794  14.140  27.300  19.740
  742BOLB   C3B17795  14.080  27.450  20.160
  742BOLB   C4B17796  13.860  27.410  20.560
  742BOLB   NC217797  13.290  30.180  21.210
  742BOLB   PO217798  12.830  29.880  21.210
  742BOLB   GL317799  12.850  29.820  20.820
  742BOLB   GL417800  12.850  29.700  20.550
  742BOLB   C1C17801  13.010  29.350  20.880
  742BOLB   C2C17802  12.760  29.120  20.800
  742BOLB   C3C17803  12.630  28.720  20.580
  742BOLB   C4C17804  12.760  28.320  20.490
  742BOLB   C1D17805  13.070  29.740  20.210
  742BOLB   C2D17806  13.060  29.440  19.900
  742BOLB   C3D17807  13.260  29.160  19.640
  742BOLB   C4D17808  13.350  29.060  19.220
  743BOLB   NC117809   2.020  24.460  15.840
  743BOLB   PO117810   2.100  24.390  15.420
  743BOLB   GL117811   1.810  24.760  15.490
  743BOLB   GL217812   1.600  24.710  15.760
  743BOLB   C1A17813   1.510  25.070  15.450
  743BOLB   C2A17814   1.400  25.470  15.520
  743BOLB   C3A17815   1.420  25.710  15.040
  743BOLB   C4A17816   1.450  26.070  14.690
  743BOLB   C1B17817   1.120  24.930  15.750
  743BOLB   C2B17818   0.940  25.360  15.820
  743BOLB   C3B17819   0.990  25.770  15.900
  743BOLB   C4B17820   0.840  26.120  16.080
  743BOLB   NC217821   0.740  28.770  14.860
  743BOLB   PO217822   0.910  28.430  14.680
  743BOLB   GL317823   1.060  28.010  14.770
  743BOLB   GL417824   1.170  27.940  15.080
  743BOLB   C1C17825   1.170  27.530  14.870
  743BOLB   C2C17826   1.010  27.120  14.910
  743BOLB   C3C17827   1.060  26.710  14.750
  743BOLB   C4C17828   1.320  26.500  14.550
  743BOLB   C1D17829   1.340  27.690  15.350
  743BOLB   C2D17830   1.190  27.390  15.600
  743BOLB   C3D17831   0.920  27.520  15.850
  743BOLB   C4D17832   0.700  27.500  16.240
  744BOLB   NC117833  17.200  22.160  10.290
  744BOLB   PO117834  17.710  22.140  10.370
  744BOLB   GL117835  18.000  22.380  10.210
  744BOLB   GL217836  18.310  22.170  10.250
  744BOLB   C1A17837  18.340  22.690  10.040
  744BOLB   C2A17838  18.570  22.850   9.640
  744BOLB   C3A17839  18.840  23.170   9.620
  744BOLB   C4A17840  19.010  23.520   9.520
  744BOLB   C1B17841  18.370  22.330   9.770
  744BOLB   C2B17842  18.860  22.380   9.660
  744BOLB   C3B17843  18.950  22.640   9.300
  744BOLB   C4B17844  19.030  22.720   8.930
  744BOLB   NC217845  20.740  24.800   8.790
  744BOLB   PO217846  20.530  25.230   8.880
  744BOLB   GL317847  20.250  24.950   9.060
  744BOLB   GL417848  20.430  24.790   9.250
  744BOLB   C1C17849  19.880  24.660   8.930
  744BOLB   C2C17850  19.490  24.470   9.030
  744BOLB   C3C17851  19.330  24.120   9.210
  744BOLB   C4C17852  19.070  23.920   9.340
  744BOLB   C1D17853  20.010  24.670   9.470
  744BOLB   C2D17854  19.590  24.500   9.490
  744BOLB   C3D17855  19.280  24.220   9.730
  744BOLB   C4D17856  19.090  23.850   9.970
  745BOLB   NC117857  14.130  22.880  21.470
  745BOLB   PO117858  13.880  23.230  21.450
  745BOLB   GL117859  14.120  23.240  21.860
  745BOLB   GL217860  14.110  22.900  21.980
  745BOLB   C1A17861  14.480  23.220  22.170
  745BOLB   C2A17862  14.790  23.280  22.430
  745BOLB   C3A17863  15.210  23.370  22.660
  745BOLB   C4A17864  15.650  23.370  22.730
  745BOLB   C1B17865  14.050  23.010  22.300
  745BOLB   C2B17866  14.070  22.830  22.740
  745BOLB   C3B17867  13.980  22.910  23.160
  745BOLB   C4B17868  14.120  23.030  23.640
  745BOLB   NC217869  16.820  24.920  23.970
  745BOLB   PO217870  16.940  24.540  24.210
  745BOLB   GL317871  16.600  24.470  23.970
  745BOLB   GL417872  16.550  24.530  23.690
  745BOLB   C1C17873  16.320  24.070  23.710
  745BOLB   C2C17874  16.000  24.180  23.380
  745BOLB   C3C17875  15.910  24.040  23.040
  745BOLB   C4C17876  15.880  23.580  23.010
  745BOLB   C1D17877  16.220  24.710  23.410
  745BOLB   C2D17878  15.830  24.680  23.230
  745BOLB   C3D17879  15.690  24.600  22.880
  745BOLB   C4D17880  15.670  24.500  22.500
  746BOLB   NC117881   6.850  26.810  18.630
  746BOLB   PO117882   6.560  26.560  18.940
  746BOLB   GL117883   6.400  26.900  18.930
  746BOLB   GL217884   6.240  26.850  19.210
  746BOLB   C1A17885   6.700  27.270  19.060
  746BOLB   C2A17886   6.970  27.570  18.980
  746BOLB   C3A17887   7.060  28.030  18.830
  746BOLB   C4A17888   6.850  28.390  18.700
  746BOLB   C1B17889   6.590  27.090  19.560
  746BOLB   C2B17890   6.730  27.340  19.940
  746BOLB   C3B17891   7.030  27.510  20.290
  746BOLB   C4B17892   7.390  27.740  20.100
  746BOLB   NC217893   5.660  30.880  18.520
  746BOLB   PO217894   5.840  30.550  18.830
  746BOLB   GL317895   5.900  30.270  18.530
  746BOLB   GL417896   6.240  30.360  18.480
  746BOLB   C1C17897   6.100  29.820  18.590
  746BOLB   C2C17898   6.340  29.460  18.680
  746BOLB   C3C17899   6.520  29.150  18.480
  746BOLB   C4C17900   6.640  28.780  18.500
  746BOLB   C1D17901   6.530  30.010  18.550
  746BOLB   C2D17902   6.700  29.630  18.380
  746BOLB   C3D17903   7.020  29.310  18.270
  746BOLB   C4D17904   7.250  29.030  18.140
  747BOLB   NC117905  18.060  20.200  18.550
  747BOLB   PO117906  18.340  20.230  18.920
  747BOLB   GL117907  18.800  20.220  19.140
  747BOLB   GL217908  18.960  20.480  18.990
  747BOLB   C1A17909  19.060  19.930  19.210
  747BOLB   C2A17910  19.380  19.840  19.420
  747BOLB   C3A17911  19.740  19.820  19.610
  747BOLB   C4A17912  19.890  19.690  20.020
  747BOLB   C1B17913  19.290  20.400  19.280
  747BOLB   C2B17914  19.620  20.330  19.550
  747BOLB   C3B17915  19.740  20.330  19.870
  747BOLB   C4B17916  19.530  20.450  20.220
  747BOLB   NC217917  21.150  19.350  21.790
  747BOLB   PO217918  21.560  19.090  21.650
  747BOLB   GL317919  21.150  18.840  21.410
  747BOLB   GL417920  20.890  19.020  21.410
  747BOLB   C1C17921  20.770  18.670  21.070
  747BOLB   C2C17922  20.390  18.990  20.890
  747BOLB   C3C17923  20.120  19.170  20.480
  747BOLB   C4C17924  19.870  19.410  20.250
  747BOLB   C1D17925  21.030  19.160  20.980
  747BOLB   C2D17926  21.270  18.940  20.720
  747BOLB   C3D17927  21.530  18.920  20.270
  747BOLB   C4D17928  21.260  18.810  19.990
  748BOLB   NC117929   1.750  21.730  15.260
  748BOLB   PO117930   1.450  21.710  15.630
  748BOLB   GL117931   1.030  21.710  15.640
  748BOLB   GL217932   1.080  21.770  15.940
  748BOLB   C1A17933   0.640  21.930  15.670
  748BOLB   C2A17934   0.350  22.280  15.690
  748BOLB   C3A17935  36.330  22.490  15.720
  748BOLB   C4A17936  36.040  22.480  16.080
  748BOLB   C1B17937   0.710  21.720  16.170
  748BOLB   C2B17938   0.310  21.820  16.350
  748BOLB   C3B17939  36.300  22.050  16.370
  748BOLB   C4B17940  36.100  21.850  16.660
  748BOLB   NC217941  33.650  23.110  16.720
  748BOLB   PO217942  33.780  23.440  16.670
  748BOLB   GL317943  34.040  23.260  16.420
  748BOLB   GL417944  34.260  23.570  16.330
  748BOLB   C1C17945  34.460  23.110  16.450
  748BOLB   C2C17946  34.670  22.600  16.450
  748BOLB   C3C17947  35.130  22.540  16.380
  748BOLB   C4C17948  35.650  22.520  16.290
  748BOLB   C1D17949  34.620  23.440  16.100
  748BOLB   C2D17950  35.060  23.440  16.100
  748BOLB   C3D17951  35.220  23.470  16.390
  748BOLB   C4D17952  35.410  23.400  16.720
  749BOLB   NC117953   4.990  23.300  20.650
  749BOLB   PO117954   4.510  23.230  20.570
  749BOLB   GL117955   4.180  23.260  20.760
  749BOLB   GL217956   3.960  23.010  20.800
  749BOLB   C1A17957   3.980  23.550  21.160
  749BOLB   C2A17958   3.970  23.860  21.350
  749BOLB   C3A17959   3.730  24.170  21.640
  749BOLB   C4A17960   3.510  23.940  22.050
  749BOLB   C1B17961   3.740  23.090  21.120
  749BOLB   C2B17962   3.710  23.360  21.530
  749BOLB   C3B17963   3.770  23.590  21.770
  749BOLB   C4B17964   4.090  23.800  21.950
  749BOLB   NC217965   2.480  24.290  24.070
  749BOLB   PO217966   2.520  23.870  24.050
  749BOLB   GL317967   2.870  23.710  23.810
  749BOLB   GL417968   2.960  23.330  23.690
  749BOLB   C1C17969   3.240  23.690  23.480
  749BOLB   C2C17970   3.670  23.840  23.240
  749BOLB   C3C17971   3.800  23.730  22.800
  749BOLB   C4C17972   3.700  23.780  22.370
  749BOLB   C1D17973   3.200  23.270  23.260
  749BOLB   C2D17974   3.370  23.110  22.970
  749BOLB   C3D17975   3.560  23.320  22.590
  749BOLB   C4D17976   3.560  23.250  22.110
  750BOLB   NC117977  18.760  19.010  17.420
  750BOLB   PO117978  18.670  19.240  17.820
  750BOLB   GL117979  19.120  19.190  17.740
  750BOLB   GL217980  19.290  19.020  17.620
  750BOLB   C1A17981  19.480  19.490  17.920
  750BOLB   C2A17982  19.910  19.600  18.150
  750BOLB   C3A17983  20.320  19.690  18.220
  750BOLB   C4A17984  20.720  19.880  18.390
  750BOLB   C1B17985  19.740  19.060  17.920
  750BOLB   C2B17986  20.210  19.120  17.760
  750BOLB   C3B17987  20.560  19.340  17.840
  750BOLB   C4B17988  20.910  19.530  18.100
  750BOLB   NC217989  22.170  20.300  20.030
  750BOLB   PO217990  22.530  20.320  19.770
  750BOLB   GL317991  22.270  20.170  19.460
  750BOLB   GL417992  22.120  20.000  19.600
  750BOLB   C1C17993  22.250  19.950  19.100
  750BOLB   C2C17994  21.860  19.810  18.930
  750BOLB   C3C17995  21.400  19.830  18.810
  750BOLB   C4C17996  21.060  19.990  18.590
  750BOLB   C1D17997  21.720  20.130  19.260
  750BOLB   C2D17998  21.410  20.350  19.020
  750BOLB   C3D17999  21.050  20.430  18.650
  750BOLB   C4D18000  20.650  20.350  18.570
  751BOLB   NC118001  19.210  20.030  15.210
  751BOLB   PO118002  19.600  19.690  15.080
  751BOLB   GL118003  19.970  19.720  15.280
  751BOLB   GL218004  20.160  20.020  15.300
  751BOLB   C1A18005  20.410  19.590  15.410
  751BOLB   C2A18006  20.810  19.540  15.400
  751BOLB   C3A18007  21.170  19.560  15.520
  751BOLB   C4A18008  21.370  19.280  15.730
  751BOLB   C1B18009  20.520  20.010  15.170
  751BOLB   C2B18010  20.940  20.040  15.110
  751BOLB   C3B18011  21.340  19.980  14.980
  751BOLB   C4B18012  21.740  19.730  14.950
  751BOLB   NC218013  24.040  18.830  16.830
  751BOLB   PO218014  23.650  18.770  16.450
  751BOLB   GL318015  23.190  18.770  16.450
  751BOLB   GL418016  23.060  18.990  16.510
  751BOLB   C1C18017  22.680  18.660  16.250
  751BOLB   C2C18018  22.290  18.770  16.310
  751BOLB   C3C18019  21.990  19.000  16.230
  751BOLB   C4C18020  21.750  19.150  15.920
  751BOLB   C1D18021  22.700  19.160  16.270
  751BOLB   C2D18022  22.380  19.280  16.180
  751BOLB   C3D18023  22.080  19.580  15.940
  751BOLB   C4D18024  21.650  19.640  15.530
  752BOLB   NC118025   6.520  19.280  21.590
  752BOLB   PO118026   6.460  19.150  21.950
  752BOLB   GL118027   6.170  19.090  22.380
  752BOLB   GL218028   6.350  19.030  22.690
  752BOLB   C1A18029   5.780  19.090  22.670
  752BOLB   C2A18030   5.740  19.190  23.070
  752BOLB   C3A18031   5.440  19.420  23.370
  752BOLB   C4A18032   5.380  19.570  23.730
  752BOLB   C1B18033   6.200  18.970  23.130
  752BOLB   C2B18034   6.130  19.130  23.610
  752BOLB   C3B18035   6.360  19.310  24.030
  752BOLB   C4B18036   6.670  19.360  24.290
  752BOLB   NC218037   4.090  19.820  25.990
  752BOLB   PO218038   4.290  20.110  25.830
  752BOLB   GL318039   4.450  20.090  25.510
  752BOLB   GL418040   4.310  20.110  25.220
  752BOLB   C1C18041   4.710  19.820  25.230
  752BOLB   C2C18042   4.790  19.980  24.890
  752BOLB   C3C18043   4.980  20.070  24.480
  752BOLB   C4C18044   5.270  19.880  24.110
  752BOLB   C1D18045   4.740  20.360  25.240
  752BOLB   C2D18046   5.020  20.420  24.860
  752BOLB   C3D18047   5.050  20.660  24.420
  752BOLB   C4D18048   4.830  20.880  24.170
  753BOLB   NC118049   4.490  26.430  16.340
  753BOLB   PO118050   4.040  26.100  16.370
  753BOLB   GL118051   3.810  26.520  16.400
  753BOLB   GL218052   4.060  26.740  16.420
  753BOLB   C1A18053   3.660  27.070  16.600
  753BOLB   C2A18054   3.590  27.420  16.750
  753BOLB   C3A18055   3.550  27.860  16.660
  753BOLB   C4A18056   3.450  28.260  16.600
  753BOLB   C1B18057   4.160  27.180  16.320
  753BOLB   C2B18058   4.270  27.500  16.060
  753BOLB   C3B18059   4.280  27.930  15.860
  753BOLB   C4B18060   4.130  28.350  16.040
  753BOLB   NC218061   1.660  30.130  16.750
  753BOLB   PO218062   1.990  30.080  16.920
  753BOLB   GL318063   2.240  29.660  16.980
  753BOLB   GL418064   2.150  29.370  16.900
  753BOLB   C1C18065   2.590  29.520  16.720
  753BOLB   C2C18066   2.760  29.100  16.700
  753BOLB   C3C18067   3.090  28.940  16.450
  753BOLB   C4C18068   3.290  28.590  16.460
  753BOLB   C1D18069   2.290  29.040  16.560
  753BOLB   C2D18070   2.500  28.670  16.540
  753BOLB   C3D18071   2.330  28.250  16.740
  753BOLB   C4D18072   2.130  27.870  16.570
  754BOLB   NC118073  16.740  24.960  13.240
  754BOLB   PO118074  16.850  25.210  13.390
  754BOLB   GL118075  17.080  25.340  13.110
  754BOLB   GL218076  17.030  25.700  12.940
  754BOLB   C1A18077  17.460  25.420  12.880
  754BOLB   C2A18078  17.680  25.620  12.590
  754BOLB   C3A18079  17.960  25.970  12.510
  754BOLB   C4A18080  18.160  26.340  12.530
  754BOLB   C1B18081  17.110  25.830  12.660
  754BOLB   C2B18082  16.960  26.220  12.390
  754BOLB   C3B18083  17.210  26.580  12.440
  754BOLB   C4B18084  17.510  26.960  12.430
  754BOLB   NC218085  19.270  27.690  10.510
  754BOLB   PO218086  19.460  27.600  10.920
  754BOLB   GL318087  19.380  27.270  11.220
  754BOLB   GL418088  19.620  27.090  11.440
  754BOLB   C1C18089  19.090  27.080  11.490
  754BOLB   C2C18090  19.080  26.740  11.800
  754BOLB   C3C18091  18.800  26.580  12.070
  754BOLB   C4C18092  18.490  26.500  12.320
  754BOLB   C1D18093  19.680  26.650  11.460
  754BOLB   C2D18094  19.380  26.430  11.610
  754BOLB   C3D18095  19.000  26.260  11.690
  754BOLB   C4D18096  18.770  25.940  11.820
  755BOLB   NC118097  17.850  24.760  16.840
  755BOLB   PO118098  18.170  24.730  16.520
  755BOLB   GL118099  18.280  25.040  16.730
  755BOLB   GL218100  18.340  24.810  17.060
  755BOLB   C1A18101  18.560  25.410  16.720
  755BOLB   C2A18102  18.830  25.740  16.850
  755BOLB   C3A18103  18.820  26.150  16.950
  755BOLB   C4A18104  18.740  26.500  17.290
  755BOLB   C1B18105  18.650  24.920  17.210
  755BOLB   C2B18106  19.090  24.980  17.350
  755BOLB   C3B18107  19.330  25.330  17.420
  755BOLB   C4B18108  19.640  25.410  17.370
  755BOLB   NC218109  19.140  29.000  17.810
  755BOLB   PO218110  18.690  28.920  17.800
  755BOLB   GL318111  18.750  28.440  17.800
  755BOLB   GL418112  18.460  28.350  17.800
  755BOLB   C1C18113  18.870  28.110  17.600
  755BOLB   C2C18114  18.730  27.790  17.250
  755BOLB   C3C18115  18.740  27.340  17.270
  755BOLB   C4C18116  18.800  26.910  17.340
  755BOLB   C1D18117  18.080  28.090  17.870
  755BOLB   C2D18118  17.970  27.770  17.740
  755BOLB   C3D18119  17.740  27.450  17.830
  755BOLB   C4D18120  17.490  27.150  17.720
  756BOLB   NC118121  17.430  24.660  15.510
  756BOLB   PO118122  17.860  24.780  15.340
  756BOLB   GL118123  18.270  24.900  15.220
  756BOLB   GL218124  18.550  24.940  14.980
  756BOLB   C1A18125  18.670  25.170  15.410
  756BOLB   C2A18126  19.190  25.170  15.280
  756BOLB   C3A18127  19.420  24.950  15.130
  756BOLB   C4A18128  19.760  24.910  15.090
  756BOLB   C1B18129  18.950  25.020  14.860
  756BOLB   C2B18130  19.230  25.300  14.770
  756BOLB   C3B18131  19.540  25.200  14.520
  756BOLB   C4B18132  19.860  25.000  14.600
  756BOLB   NC218133  21.870  25.810  14.780
  756BOLB   PO218134  22.040  25.690  15.110
  756BOLB   GL318135  21.690  25.500  15.140
  756BOLB   GL418136  21.760  25.190  15.360
  756BOLB   C1C18137  21.250  25.680  15.140
  756BOLB   C2C18138  20.780  25.770  15.150
  756BOLB   C3C18139  20.500  25.450  15.090
  756BOLB   C4C18140  20.170  25.190  15.060
  756BOLB   C1D18141  21.340  25.250  15.380
  756BOLB   C2D18142  21.100  24.950  15.500
  756BOLB   C3D18143  20.760  24.560  15.600
  756BOLB   C4D18144  20.370  24.280  15.490
  757BOLB   NC118145  17.040  24.440  18.780
  757BOLB   PO118146  17.430  24.570  18.690
  757BOLB   GL118147  17.680  24.750  18.940
  757BOLB   GL218148  17.890  24.460  18.840
  757BOLB   C1A18149  18.160  25.030  18.800
  757BOLB   C2A18150  18.130  25.520  18.720
  757BOLB   C3A18151  18.170  25.850  18.400
  757BOLB   C4A18152  18.260  26.220  18.210
  757BOLB   C1B18153  18.150  24.630  19.130
  757BOLB   C2B18154  18.530  24.780  19.210
  757BOLB   C3B18155  18.950  24.810  19.090
  757BOLB   C4B18156  19.420  25.000  19.170
  757BOLB   NC218157  20.160  27.030  19.470
  757BOLB   PO218158  19.790  27.280  19.150
  757BOLB   GL318159  19.410  27.290  18.850
  757BOLB   GL418160  19.420  26.980  18.740
  757BOLB   C1C18161  19.060  27.290  18.910
  757BOLB   C2C18162  18.710  27.270  18.660
  757BOLB   C3C18163  18.540  27.030  18.450
  757BOLB   C4C18164  18.370  26.670  18.280
  757BOLB   C1D18165  19.180  26.760  18.570
  757BOLB   C2D18166  18.870  26.550  18.480
  757BOLB   C3D18167  18.730  26.360  18.120
  757BOLB   C4D18168  18.820  26.210  17.660
  758BOLB   NC118169  11.340  26.680  18.260
  758BOLB   PO118170  11.240  27.000  18.040
  758BOLB   GL118171  11.100  27.210  18.390
  758BOLB   GL218172  11.400  27.170  18.510
  758BOLB   C1A18173  11.120  27.590  18.600
  758BOLB   C2A18174  10.870  27.970  18.600
  758BOLB   C3A18175  10.870  28.470  18.630
  758BOLB   C4A18176  11.160  28.860  18.690
  758BOLB   C1B18177  11.650  27.620  18.400
  758BOLB   C2B18178  11.810  28.040  18.390
  758BOLB   C3B18179  11.980  28.450  18.550
  758BOLB   C4B18180  12.390  28.620  18.500
  758BOLB   NC218181  12.070  31.390  19.320
  758BOLB   PO218182  12.220  31.230  18.980
  758BOLB   GL318183  12.260  30.860  18.910
  758BOLB   GL418184  12.400  30.740  18.730
  758BOLB   C1C18185  12.000  30.430  18.860
  758BOLB   C2C18186  11.550  30.200  18.750
  758BOLB   C3C18187  11.280  29.800  18.640
  758BOLB   C4C18188  11.170  29.350  18.600
  758BOLB   C1D18189  12.300  30.570  18.280
  758BOLB   C2D18190  12.340  30.130  18.220
  758BOLB   C3D18191  12.210  29.690  18.100
  758BOLB   C4D18192  12.020  29.330  18.250
  759BOLB   NC118193  19.460  20.990  13.740
  759BOLB   PO118194  19.620  21.190  14.000
  759BOLB   GL118195  20.020  21.360  13.770
  759BOLB   GL218196  19.900  21.260  13.560
  759BOLB   C1A18197  20.470  21.470  13.720
  759BOLB   C2A18198  20.850  21.770  13.620
  759BOLB   C3A18199  21.130  22.080  13.430
  759BOLB   C4A18200  21.400  22.370  13.370
  759BOLB   C1B18201  20.280  21.150  13.380
  759BOLB   C2B18202  20.710  20.910  13.390
  759BOLB   C3B18203  21.010  20.660  13.200
  759BOLB   C4B18204  21.470  20.720  12.860
  759BOLB   NC218205  23.130  23.980  14.320
  759BOLB   PO218206  23.330  23.550  14.300
  759BOLB   GL318207  23.060  23.510  13.940
  759BOLB   GL418208  22.810  23.290  14.060
  759BOLB   C1C18209  22.590  23.610  13.700
  759BOLB   C2C18210  22.150  23.450  13.470
  759BOLB   C3C18211  22.000  23.110  13.330
  759BOLB   C4C18212  21.570  22.790  13.350
  759BOLB   C1D18213  22.320  23.390  14.010
  759BOLB   C2D18214  21.840  23.320  14.010
  759BOLB   C3D18215  21.480  23.440  14.190
  759BOLB   C4D18216  21.310  23.800  14.230
  760BOLB   NC118217  14.980  21.920  20.270
  760BOLB   PO118218  15.390  21.940  20.590
  760BOLB   GL118219  15.770  22.160  20.820
  760BOLB   GL218220  15.780  21.850  21.000
  760BOLB   C1A18221  16.050  22.270  21.190
  760BOLB   C2A18222  16.310  22.200  21.510
  760BOLB   C3A18223  16.730  22.220  21.450
  760BOLB   C4A18224  17.160  22.170  21.710
  760BOLB   C1B18225  16.030  21.700  21.350
  760BOLB   C2B18226  15.790  21.590  21.680
  760BOLB   C3B18227  15.830  21.640  22.050
  760BOLB   C4B18228  15.430  21.650  22.210
  760BOLB   NC218229  18.830  23.250  23.250
  760BOLB   PO218230  18.470  23.260  23.490
  760BOLB   GL318231  18.440  22.970  23.040
  760BOLB   GL418232  18.560  22.740  23.050
  760BOLB   C1C18233  18.270  22.820  22.640
  760BOLB   C2C18234  18.120  22.880  22.260
  760BOLB   C3C18235  17.780  22.690  22.180
  760BOLB   C4C18236  17.390  22.450  21.990
  760BOLB   C1D18237  18.070  22.580  23.080
  760BOLB   C2D18238  17.660  22.580  23.200
  760BOLB   C3D18239  17.220  22.580  23.020
  760BOLB   C4D18240  16.910  22.510  22.720
  761BOLB   NC118241   8.670  28.660  23.500
  761BOLB   PO118242   8.970  28.840  23.120
  761BOLB   GL118243   8.950  28.970  22.720
  761BOLB   GL218244   9.090  28.880  22.440
  761BOLB   C1A18245   8.650  28.730  22.320
  761BOLB   C2A18246   8.360  28.370  22.230
  761BOLB   C3A18247   8.060  28.030  22.250
  761BOLB   C4A18248   7.860  27.640  22.300
  761BOLB   C1B18249   9.190  28.490  22.170
  761BOLB   C2B18250   9.290  28.520  21.720
  761BOLB   C3B18251   9.000  28.440  21.450
  761BOLB   C4B18252   8.980  28.480  21.000
  761BOLB   NC218253   7.630  28.030  24.240
  761BOLB   PO218254   7.450  27.500  24.210
  761BOLB   GL318255   7.190  27.460  23.990
  761BOLB   GL418256   7.250  27.620  23.690
  761BOLB   C1C18257   7.270  27.060  23.670
  761BOLB   C2C18258   7.110  27.220  23.240
  761BOLB   C3C18259   7.300  27.160  22.790
  761BOLB   C4C18260   7.610  27.270  22.490
  761BOLB   C1D18261   7.550  27.300  23.360
  761BOLB   C2D18262   7.750  27.080  23.100
  761BOLB   C3D18263   7.780  26.710  22.770
  761BOLB   C4D18264   7.980  26.300  22.730
  762BOLB   NC118265  18.870  23.020  13.430
  762BOLB   PO118266  19.110  23.120  13.810
  762BOLB   GL118267  19.410  23.260  13.540
  762BOLB   GL218268  19.250  23.340  13.270
  762BOLB   C1A18269  19.790  23.370  13.420
  762BOLB   C2A18270  20.110  23.430  13.690
  762BOLB   C3A18271  20.520  23.410  13.530
  762BOLB   C4A18272  20.690  23.400  13.080
  762BOLB   C1B18273  19.380  23.760  13.240
  762BOLB   C2B18274  19.800  24.140  13.120
  762BOLB   C3B18275  19.990  24.480  12.980
  762BOLB   C4B18276  20.000  24.890  12.880
  762BOLB   NC218277  22.880  23.230  12.200
  762BOLB   PO218278  22.910  23.480  12.600
  762BOLB   GL318279  22.470  23.270  12.480
  762BOLB   GL418280  22.450  23.030  12.180
  762BOLB   C1C18281  22.050  23.430  12.600
  762BOLB   C2C18282  21.710  23.260  12.770
  762BOLB   C3C18283  21.310  23.140  12.960
  762BOLB   C4C18284  20.900  23.160  12.880
  762BOLB   C1D18285  22.030  22.980  12.440
  762BOLB   C2D18286  21.580  22.840  12.450
  762BOLB   C3D18287  21.210  22.980  12.510
  762BOLB   C4D18288  20.910  23.160  12.320
  763BOLB   NC118289   4.600  17.710  19.150
  763BOLB   PO118290   4.360  17.470  19.470
  763BOLB   GL118291   4.200  17.160  19.790
  763BOLB   GL218292   4.220  16.840  19.830
  763BOLB   C1A18293   3.900  17.160  20.150
  763BOLB   C2A18294   3.530  16.850  20.380
  763BOLB   C3A18295   3.230  16.800  20.780
  763BOLB   C4A18296   3.240  16.360  21.120
  763BOLB   C1B18297   3.990  16.650  20.130
  763BOLB   C2B18298   3.830  16.290  20.340
  763BOLB   C3B18299   3.510  16.020  20.510
  763BOLB   C4B18300   3.560  15.690  20.800
  763BOLB   NC218301   2.760  14.770  22.900
  763BOLB   PO218302   2.760  14.480  22.600
  763BOLB   GL318303   3.030  14.800  22.320
  763BOLB   GL418304   3.040  14.760  22.080
  763BOLB   C1C18305   3.310  15.150  22.220
  763BOLB   C2C18306   3.420  15.400  21.890
  763BOLB   C3C18307   3.260  15.760  21.630
  763BOLB   C4C18308   3.430  16.100  21.460
  763BOLB   C1D18309   3.260  14.940  21.760
  763BOLB   C2D18310   2.920  14.840  21.470
  763BOLB   C3D18311   2.850  14.520  21.190
  763BOLB   C4D18312   2.850  14.200  20.910
  764BOLB   NC118313   8.860  26.830  12.560
  764BOLB   PO118314   9.120  26.780  12.310
  764BOLB   GL118315   9.320  27.050  12.560
  764BOLB   GL218316   9.650  27.040  12.610
  764BOLB   C1A18317   9.370  27.530  12.680
  764BOLB   C2A18318   9.410  27.980  12.590
  764BOLB   C3A18319   9.260  28.460  12.550
  764BOLB   C4A18320   9.380  28.810  12.200
  764BOLB   C1B18321   9.740  27.400  12.370
  764BOLB   C2B18322   9.920  27.710  12.180
  764BOLB   C3B18323   9.970  28.000  12.330
  764BOLB   C4B18324   9.760  28.500  12.340
  764BOLB   NC218325   8.590  31.080  11.690
  764BOLB   PO218326   8.990  30.860  11.680
  764BOLB   GL318327   9.040  30.430  11.580
  764BOLB   GL418328   9.270  30.360  11.690
  764BOLB   C1C18329   8.960  30.000  11.410
  764BOLB   C2C18330   9.300  29.690  11.560
  764BOLB   C3C18331   9.470  29.210  11.610
  764BOLB   C4C18332   9.580  28.790  11.820
  764BOLB   C1D18333   9.180  30.040  11.880
  764BOLB   C2D18334   9.330  29.620  12.040
  764BOLB   C3D18335   9.590  29.510  12.420
  764BOLB   C4D18336   9.650  29.330  12.870
  765BOLB   NC118337  21.840  14.620  18.930
  765BOLB   PO118338  21.950  14.370  18.530
  765BOLB   GL118339  21.570  14.370  18.560
  765BOLB   GL218340  21.470  14.320  18.210
  765BOLB   C1A18341  21.170  14.230  18.580
  765BOLB   C2A18342  20.780  14.180  18.960
  765BOLB   C3A18343  20.440  13.990  19.000
  765BOLB   C4A18344  19.940  14.010  19.170
  765BOLB   C1B18345  21.140  13.940  18.070
  765BOLB   C2B18346  20.710  13.920  18.110
  765BOLB   C3B18347  20.390  13.660  18.200
  765BOLB   C4B18348  20.220  13.350  17.790
  765BOLB   NC218349  21.220  14.250  19.710
  765BOLB   PO218350  20.940  14.480  20.050
  765BOLB   GL318351  20.680  14.530  19.710
  765BOLB   GL418352  20.760  14.300  19.460
  765BOLB   C1C18353  20.290  14.750  19.580
  765BOLB   C2C18354  20.030  14.820  19.310
  765BOLB   C3C18355  19.790  14.670  18.990
  765BOLB   C4C18356  19.640  14.210  19.030
  765BOLB   C1D18357  20.690  14.630  19.180
  765BOLB   C2D18358  20.690  14.580  18.670
  765BOLB   C3D18359  20.860  14.390  18.210
  765BOLB   C4D18360  21.150  14.460  17.850
  766BOLB   NC118361   9.300  26.340  18.840
  766BOLB   PO118362   9.110  26.710  18.940
  766BOLB   GL118363   9.150  27.030  19.220
  766BOLB   GL218364   9.300  27.280  19.010
  766BOLB   C1A18365   8.990  27.200  19.520
  766BOLB   C2A18366   9.100  27.510  19.770
  766BOLB   C3A18367   9.140  27.670  20.150
  766BOLB   C4A18368   9.410  27.820  20.560
  766BOLB   C1B18369   9.120  27.610  19.300
  766BOLB   C2B18370   8.910  28.020  19.400
  766BOLB   C3B18371   9.040  28.450  19.510
  766BOLB   C4B18372   8.730  28.800  19.470
  766BOLB   NC218373   9.630  29.520  22.620
  766BOLB   PO218374  10.000  29.330  22.460
  766BOLB   GL318375   9.950  29.060  22.090
  766BOLB   GL418376  10.230  29.130  21.990
  766BOLB   C1C18377   9.860  28.710  21.860
  766BOLB   C2C18378   9.740  28.370  21.640
  766BOLB   C3C18379   9.580  28.130  21.480
  766BOLB   C4C18380   9.500  28.010  21.020
  766BOLB   C1D18381  10.430  29.010  21.490
  766BOLB   C2D18382  10.590  29.180  21.020
  766BOLB   C3D18383  10.530  28.930  20.700
  766BOLB   C4D18384  10.710  28.610  20.510
  767BOLB   NC118385   2.270  21.160  13.140
  767BOLB   PO118386   1.850  21.000  12.980
  767BOLB   GL118387   1.400  21.140  12.950
  767BOLB   GL218388   1.240  21.320  13.220
  767BOLB   C1A18389   1.090  21.250  12.740
  767BOLB   C2A18390   0.690  21.370  12.530
  767BOLB   C3A18391   0.320  21.630  12.590
  767BOLB   C4A18392   0.060  21.920  12.360
  767BOLB   C1B18393   0.840  21.520  13.020
  767BOLB   C2B18394   0.450  21.360  13.040
  767BOLB   C3B18395   0.070  21.490  13.210
  767BOLB   C4B18396  36.150  21.690  13.460
  767BOLB   NC218397  34.690  22.320  10.960
  767BOLB   PO218398  34.650  22.720  11.180
  767BOLB   GL318399  34.990  22.520  11.470
  767BOLB   GL418400  34.870  22.170  11.410
  767BOLB   C1C18401  35.370  22.490  11.480
  767BOLB   C2C18402  35.670  22.360  11.750
  767BOLB   C3C18403  35.900  22.050  11.870
  767BOLB   C4C18404  36.240  21.900  11.930
  767BOLB   C1D18405  34.870  21.780  11.680
  767BOLB   C2D18406  35.120  21.540  11.940
  767BOLB   C3D18407  35.390  21.630  12.380
  767BOLB   C4D18408  35.870  21.790  12.370
  768BOLB   NC118409   4.090  30.260  16.970
  768BOLB   PO118410   3.750  29.970  17.020
  768BOLB   GL118411   4.030  29.650  16.860
  768BOLB   GL218412   4.250  29.700  17.120
  768BOLB   C1A18413   3.950  29.350  16.500
  768BOLB   C2A18414   4.080  29.140  16.130
  768BOLB   C3A18415   4.470  29.010  15.900
  768BOLB   C4A18416   4.920  29.170  15.770
  768BOLB   C1B18417   4.470  29.460  17.500
  768BOLB   C2B18418   4.420  29.080  17.690
  768BOLB   C3B18419   4.480  28.570  17.650
  768BOLB   C4B18420   4.740  28.330  17.360
  768BOLB   NC218421   6.110  31.620  15.880
  768BOLB   PO218422   5.660  31.410  15.870
  768BOLB   GL318423   5.700  31.030  16.010
  768BOLB   GL418424   5.890  30.870  15.860
  768BOLB   C1C18425   5.620  30.630  16.170
  768BOLB   C2C18426   5.440  30.170  16.240
  768BOLB   C3C18427   5.410  29.780  16.130
  768BOLB   C4C18428   5.170  29.500  15.940
  768BOLB   C1D18429   5.980  30.410  15.850
  768BOLB   C2D18430   5.960  29.980  15.870
  768BOLB   C3D18431   5.770  29.520  15.900
  768BOLB   C4D18432   5.510  29.190  15.860
  769BOLB   NC118433  18.750  20.460  17.920
  769BOLB   PO118434  18.740  20.200  18.230
  769BOLB   GL118435  19.060  20.500  18.440
  769BOLB   GL218436  19.180  20.710  18.230
  769BOLB   C1A18437  19.380  20.710  18.630
  769BOLB   C2A18438  19.710  20.980  18.700
  769BOLB   C3A18439  19.990  21.100  18.990
  769BOLB   C4A18440  20.270  21.450  19.060
  769BOLB   C1B18441  19.450  21.000  18.180
  769BOLB   C2B18442  19.460  21.410  18.050
  769BOLB   C3B18443  19.850  21.790  18.200
  769BOLB   C4B18444  20.010  22.140  18.340
  769BOLB   NC218445  22.260  21.930  20.180
  769BOLB   PO218446  21.870  21.660  20.290
  769BOLB   GL318447  21.500  21.600  20.300
  769BOLB   GL418448  21.400  21.280  20.390
  769BOLB   C1C18449  21.240  21.600  19.930
  769BOLB   C2C18450  21.270  21.730  19.510
  769BOLB   C3C18451  21.030  21.580  19.160
  769BOLB   C4C18452  20.610  21.630  19.050
  769BOLB   C1D18453  21.100  21.120  20.020
  769BOLB   C2D18454  21.000  21.250  19.660
  769BOLB   C3D18455  20.790  21.140  19.250
  769BOLB   C4D18456  20.420  20.920  19.180
  770BOLB   NC118457  19.000  20.780  16.480
  770BOLB   PO118458  19.240  20.500  16.640
  770BOLB   GL118459  19.660  20.790  16.610
  770BOLB   GL218460  19.700  21.080  16.550
  770BOLB   C1A18461  20.000  20.670  16.510
  770BOLB   C2A18462  20.390  20.800  16.560
  770BOLB   C3A18463  20.870  20.980  16.710
  770BOLB   C4A18464  21.280  21.210  16.480
  770BOLB   C1B18465  20.090  21.240  16.640
  770BOLB   C2B18466  20.430  21.110  16.950
  770BOLB   C3B18467  20.490  21.050  17.410
  770BOLB   C4B18468  20.750  21.080  17.690
  770BOLB   NC218469  23.520  21.920  16.690
  770BOLB   PO218470  23.440  22.330  16.820
  770BOLB   GL318471  22.960  22.140  16.880
  770BOLB   GL418472  22.750  22.150  17.220
  770BOLB   C1C18473  22.780  21.790  16.780
  770BOLB   C2C18474  22.540  21.490  16.560
  770BOLB   C3C18475  22.080  21.370  16.510
  770BOLB   C4C18476  21.680  21.100  16.620
  770BOLB   C1D18477  22.250  22.160  17.280
  770BOLB   C2D18478  21.790  22.120  17.210
  770BOLB   C3D18479  21.390  22.080  17.070
  770BOLB   C4D18480  21.030  22.050  16.700
  771BOLB   NC118481  15.680  25.080  10.810
  771BOLB   PO118482  15.340  25.170  10.990
  771BOLB   GL118483  15.500  25.520  11.090
  771BOLB   GL218484  15.440  25.730  11.320
  771BOLB   C1A18485  15.790  25.870  11.000
  771BOLB   C2A18486  15.860  26.100  10.650
  771BOLB   C3A18487  15.880  26.470  10.310
  771BOLB   C4A18488  15.830  26.470   9.910
  771BOLB   C1B18489  15.310  26.110  11.150
  771BOLB   C2B18490  15.310  26.540  11.080
  771BOLB   C3B18491  15.540  26.830  11.130
  771BOLB   C4B18492  15.550  27.250  10.770
  771BOLB   NC218493  16.800  28.070   8.370
  771BOLB   PO218494  16.720  27.920   8.780
  771BOLB   GL318495  16.450  27.670   8.760
  771BOLB   GL418496  16.230  27.730   8.450
  771BOLB   C1C18497  16.250  27.360   8.960
  771BOLB   C2C18498  15.910  27.090   9.060
  771BOLB   C3C18499  15.660  26.840   9.280
  771BOLB   C4C18500  15.670  26.450   9.510
  771BOLB   C1D18501  16.270  27.310   8.380
  771BOLB   C2D18502  16.440  26.970   8.630
  771BOLB   C3D18503  16.280  26.670   9.000
  771BOLB   C4D18504  15.940  26.490   9.040
  772BOLB   NC118505   4.620  26.320  14.900
  772BOLB   PO118506   4.810  26.410  14.540
  772BOLB   GL118507   4.600  26.790  14.770
  772BOLB   GL218508   4.800  26.930  15.020
  772BOLB   C1A18509   4.410  27.210  14.600
  772BOLB   C2A18510   4.370  27.650  14.360
  772BOLB   C3A18511   4.180  28.050  14.300
  772BOLB   C4A18512   3.960  28.300  14.640
  772BOLB   C1B18513   4.820  27.290  14.970
  772BOLB   C2B18514   4.710  27.630  14.950
  772BOLB   C3B18515   4.380  27.870  14.890
  772BOLB   C4B18516   3.940  27.860  14.980
  772BOLB   NC218517   2.810  30.140  14.140
  772BOLB   PO218518   3.250  30.090  13.890
  772BOLB   GL318519   3.400  29.820  14.110
  772BOLB   GL418520   3.580  29.560  13.960
  772BOLB   C1C18521   3.400  29.600  14.450
  772BOLB   C2C18522   3.220  29.250  14.410
  772BOLB   C3C18523   3.270  28.900  14.550
  772BOLB   C4C18524   3.620  28.660  14.650
  772BOLB   C1D18525   3.510  29.030  14.010
  772BOLB   C2D18526   3.800  28.670  14.000
  772BOLB   C3D18527   3.830  28.350  14.010
  772BOLB   C4D18528   3.940  27.970  13.850
  773BOLB   NC118529  10.850  27.580  15.870
  773BOLB   PO118530  10.580  27.530  16.130
  773BOLB   GL118531  10.480  27.960  16.230
  773BOLB   GL218532  10.630  28.230  15.980
  773BOLB   C1A18533  10.050  28.220  16.250
  773BOLB   C2A18534   9.820  28.510  16.360
  773BOLB   C3A18535   9.770  28.860  16.430
  773BOLB   C4A18536   9.730  29.230  16.730
  773BOLB   C1B18537  10.800  28.640  15.890
  773BOLB   C2B18538  11.030  29.040  15.690
  773BOLB   C3B18539  11.040  29.440  15.600
  773BOLB   C4B18540  10.880  29.860  15.370
  773BOLB   NC218541   8.980  30.970  17.900
  773BOLB   PO218542   9.080  30.940  18.340
  773BOLB   GL318543   8.920  30.520  18.200
  773BOLB   GL418544   8.620  30.420  18.330
  773BOLB   C1C18545   9.070  30.330  17.830
  773BOLB   C2C18546   9.040  30.210  17.310
  773BOLB   C3C18547   9.260  29.920  17.050
  773BOLB   C4C18548   9.510  29.650  16.800
  773BOLB   C1D18549   8.620  30.040  18.170
  773BOLB   C2D18550   8.890  29.790  17.900
  773BOLB   C3D18551   8.730  29.370  17.730
  773BOLB   C4D18552   8.510  29.200  17.570
  774BOLB   NC118553  16.720  23.130  19.130
  774BOLB   PO118554  16.850  23.360  18.750
  774BOLB   GL118555  17.240  23.540  19.110
  774BOLB   GL218556  17.570  23.540  19.040
  774BOLB   C1A18557  17.380  23.550  19.500
  774BOLB   C2A18558  17.620  23.640  19.880
  774BOLB   C3A18559  17.950  23.990  20.020
  774BOLB   C4A18560  18.300  24.270  19.920
  774BOLB   C1B18561  18.010  23.550  19.170
  774BOLB   C2B18562  18.520  23.480  18.980
  774BOLB   C3B18563  19.050  23.380  18.910
  774BOLB   C4B18564  19.190  23.360  18.430
  774BOLB   NC218565  20.020  24.720  21.200
  774BOLB   PO218566  20.070  24.250  21.290
  774BOLB   GL318567  19.740  24.340  21.090
  774BOLB   GL418568  19.740  24.020  20.970
  774BOLB   C1C18569  19.370  24.430  20.810
  774BOLB   C2C18570  19.220  24.400  20.380
  774BOLB   C3C18571  19.170  24.570  20.010
  774BOLB   C4C18572  18.730  24.550  19.830
  774BOLB   C1D18573  19.570  23.650  20.830
  774BOLB   C2D18574  19.450  23.540  20.470
  774BOLB   C3D18575  19.330  23.540  20.180
  774BOLB   C4D18576  18.940  23.550  20.030
  775BOLB   NC118577  12.600  27.190  17.830
  775BOLB   PO118578  12.990  27.180  17.670
  775BOLB   GL118579  13.120  27.590  17.690
  775BOLB   GL218580  13.030  27.770  17.390
  775BOLB   C1A18581  13.190  27.780  18.110
  775BOLB   C2A18582  13.320  28.150  18.270
  775BOLB   C3A18583  13.330  28.600  18.470
  775BOLB   C4A18584  13.450  28.690  18.810
  775BOLB   C1B18585  13.080  28.100  17.720
  775BOLB   C2B18586  13.080  28.500  17.990
  775BOLB   C3B18587  13.140  28.940  18.090
  775BOLB   C4B18588  13.490  29.190  18.190
  775BOLB   NC218589  15.080  30.270  20.460
  775BOLB   PO218590  14.950  29.840  20.520
  775BOLB   GL318591  14.690  29.460  20.310
  775BOLB   GL418592  14.480  29.280  20.430
  775BOLB   C1C18593  14.650  29.200  19.940
  775BOLB   C2C18594  14.280  28.970  19.750
  775BOLB   C3C18595  14.100  28.890  19.390
  775BOLB   C4C18596  13.750  28.680  19.160
  775BOLB   C1D18597  14.010  29.380  20.390
  775BOLB   C2D18598  13.660  29.630  20.190
  775BOLB   C3D18599  13.450  29.960  19.990
  775BOLB   C4D18600  13.170  30.280  20.030
  776BOLB   NC118601  15.930  22.650  20.260
  776BOLB   PO118602  15.830  23.020  20.090
  776BOLB   GL118603  15.890  23.120  20.520
  776BOLB   GL218604  15.930  23.510  20.670
  776BOLB   C1A18605  16.220  23.210  20.870
  776BOLB   C2A18606  16.490  23.500  20.990
  776BOLB   C3A18607  16.820  23.730  21.210
  776BOLB   C4A18608  16.990  24.110  21.360
  776BOLB   C1B18609  16.080  23.690  21.050
  776BOLB   C2B18610  16.260  23.960  21.330
  776BOLB   C3B18611  16.420  24.230  21.590
  776BOLB   C4B18612  16.780  24.360  21.910
  776BOLB   NC218613  18.170  23.650  23.520
  776BOLB   PO218614  18.320  24.050  23.280
  776BOLB   GL318615  18.160  23.980  22.840
  776BOLB   GL418616  18.250  23.740  22.560
  776BOLB   C1C18617  17.940  24.180  22.470
  776BOLB   C2C18618  17.720  24.110  22.090
  776BOLB   C3C18619  17.650  24.170  21.610
  776BOLB   C4C18620  17.260  24.350  21.480
  776BOLB   C1D18621  17.800  23.690  22.560
  776BOLB   C2D18622  17.520  23.660  22.200
  776BOLB   C3D18623  17.200  23.510  22.040
  776BOLB   C4D18624  16.970  23.330  21.830
  777BOLB   NC118625  13.480  27.040  13.840
  777BOLB   PO118626  13.520  26.900  13.440
  777BOLB   GL118627  13.500  27.310  13.180
  777BOLB   GL218628  13.510  27.130  12.950
  777BOLB   C1A18629  13.440  27.760  13.190
  777BOLB   C2A18630  13.600  28.160  12.960
  777BOLB   C3A18631  13.540  28.640  13.030
  777BOLB   C4A18632  13.620  28.920  12.770
  777BOLB   C1B18633  13.560  27.640  12.700
  777BOLB   C2B18634  13.480  27.970  12.530
  777BOLB   C3B18635  13.550  28.300  12.260
  777BOLB   C4B18636  13.720  28.580  11.960
  777BOLB   NC218637  13.730  30.600  11.170
  777BOLB   PO218638  13.980  30.390  10.910
  777BOLB   GL318639  13.950  30.200  11.370
  777BOLB   GL418640  14.110  30.350  11.750
  777BOLB   C1C18641  14.000  29.860  11.610
  777BOLB   C2C18642  13.990  29.430  11.830
  777BOLB   C3C18643  13.810  29.110  12.030
  777BOLB   C4C18644  13.720  28.970  12.340
  777BOLB   C1D18645  14.290  29.970  11.980
  777BOLB   C2D18646  14.270  29.560  12.280
  777BOLB   C3D18647  14.160  29.230  12.470
  777BOLB   C4D18648  14.080  29.070  12.810
  778BOLB   NC118649   0.600  28.070  18.240
  778BOLB   PO118650   0.760  27.780  18.680
  778BOLB   GL118651   1.000  27.440  18.570
  778BOLB   GL218652   0.770  27.160  18.460
  778BOLB   C1A18653   1.440  27.350  18.540
  778BOLB   C2A18654   1.760  27.080  18.630
  778BOLB   C3A18655   1.960  26.680  18.810
  778BOLB   C4A18656   2.330  26.690  18.930
  778BOLB   C1B18657   1.130  26.940  18.580
  778BOLB   C2B18658   1.440  26.640  18.520
  778BOLB   C3B18659   1.600  26.280  18.380
  778BOLB   C4B18660   1.280  25.970  18.290
  778BOLB   NC218661   2.920  28.530  20.480
  778BOLB   PO218662   2.700  28.290  20.380
  778BOLB   GL318663   3.020  28.040  20.270
  778BOLB   GL418664   3.300  28.160  20.310
  778BOLB   C1C18665   3.100  27.990  19.870
  778BOLB   C2C18666   2.870  27.800  19.420
  778BOLB   C3C18667   2.670  27.520  19.210
  778BOLB   C4C18668   2.510  27.070  19.240
  778BOLB   C1D18669   3.680  28.000  20.030
  778BOLB   C2D18670   3.870  28.010  19.660
  778BOLB   C3D18671   3.890  27.700  19.310
  778BOLB   C4D18672   3.570  27.520  19.010
  779BOLB   NC118673   5.200  21.260  21.090
  779BOLB   PO118674   5.190  20.870  21.320
  779BOLB   GL118675   4.860  20.900  21.620
  779BOLB   GL218676   4.730  21.140  21.590
  779BOLB   C1A18677   4.670  20.770  22.030
  779BOLB   C2A18678   4.410  20.970  22.270
  779BOLB   C3A18679   4.110  20.990  22.590
  779BOLB   C4A18680   4.150  21.030  22.940
  779BOLB   C1B18681   4.350  21.350  21.800
  779BOLB   C2B18682   4.270  21.480  22.270
  779BOLB   C3B18683   4.460  21.810  22.560
  779BOLB   C4B18684   4.480  22.150  22.830
  779BOLB   NC218685   3.280  20.960  25.110
  779BOLB   PO218686   3.310  21.330  25.060
  779BOLB   GL318687   3.650  21.580  24.860
  779BOLB   GL418688   3.850  21.640  25.060
  779BOLB   C1C18689   3.690  21.530  24.450
  779BOLB   C2C18690   3.780  21.760  24.050
  779BOLB   C3C18691   3.960  21.720  23.570
  779BOLB   C4C18692   3.940  21.340  23.230
  779BOLB   C1D18693   4.160  21.730  24.660
  779BOLB   C2D18694   4.260  21.700  24.330
  779BOLB   C3D18695   4.290  21.890  23.980
  779BOLB   C4D18696   4.460  21.950  23.710
  780BOLB   NC118697  18.650  27.280   9.240
  780BOLB   PO118698  18.270  27.460   9.440
  780BOLB   GL118699  18.220  27.040   9.480
  780BOLB   GL218700  17.980  27.140   9.760
  780BOLB   C1A18701  18.310  26.740   9.830
  780BOLB   C2A18702  18.210  26.500  10.140
  780BOLB   C3A18703  18.160  26.140  10.310
  780BOLB   C4A18704  18.060  26.090  10.710
  780BOLB   C1B18705  17.820  26.670   9.560
  780BOLB   C2B18706  17.800  26.240   9.730
  780BOLB   C3B18707  17.310  26.160   9.620
  780BOLB   C4B18708  17.010  25.910   9.840
  780BOLB   NC218709  19.940  27.360   9.990
  780BOLB   PO218710  19.690  26.970  10.090
  780BOLB   GL318711  19.150  26.970  10.280
  780BOLB   GL418712  19.130  27.090  10.580
  780BOLB   C1C18713  18.620  27.060  10.270
  780BOLB   C2C18714  18.400  26.780  10.590
  780BOLB   C3C18715  18.370  26.640  11.010
  780BOLB   C4C18716  18.150  26.280  11.100
  780BOLB   C1D18717  18.960  26.800  10.690
  780BOLB   C2D18718  19.060  26.420  10.780
  780BOLB   C3D18719  18.980  26.060  10.640
  780BOLB   C4D18720  18.560  25.860  10.550
  781BOLB   NC118721  16.530  25.350  15.780
  781BOLB   PO118722  16.650  25.690  15.510
  781BOLB   GL118723  16.660  26.160  15.670
  781BOLB   GL218724  16.690  26.290  16.020
  781BOLB   C1A18725  17.010  26.550  15.700
  781BOLB   C2A18726  17.440  26.740  15.830
  781BOLB   C3A18727  17.860  26.840  15.920
  781BOLB   C4A18728  18.280  26.920  15.750
  781BOLB   C1B18729  17.160  26.480  16.200
  781BOLB   C2B18730  17.490  26.740  16.370
  781BOLB   C3B18731  17.880  26.920  16.430
  781BOLB   C4B18732  17.960  26.940  16.930
  781BOLB   NC218733  20.280  28.720  15.840
  781BOLB   PO218734  20.020  28.400  15.520
  781BOLB   GL318735  19.590  28.120  15.640
  781BOLB   GL418736  19.290  28.280  15.400
  781BOLB   C1C18737  19.440  27.900  16.030
  781BOLB   C2C18738  19.210  27.590  16.120
  781BOLB   C3C18739  19.050  27.240  15.960
  781BOLB   C4C18740  18.730  27.030  15.820
  781BOLB   C1D18741  19.260  27.820  15.520
  781BOLB   C2D18742  19.060  27.630  15.640
  781BOLB   C3D18743  18.880  27.270  15.420
  781BOLB   C4D18744  18.580  26.990  15.360
  782BOLB   NC118745  13.330  28.040  23.640
  782BOLB   PO118746  13.000  27.890  23.350
  782BOLB   GL118747  12.840  27.800  22.950
  782BOLB   GL218748  12.490  28.030  22.880
  782BOLB   C1A18749  12.790  27.510  22.590
  782BOLB   C2A18750  12.620  27.150  22.290
  782BOLB   C3A18751  12.320  26.890  22.250
  782BOLB   C4A18752  12.160  26.550  22.490
  782BOLB   C1B18753  12.370  27.820  22.580
  782BOLB   C2B18754  12.240  27.400  22.460
  782BOLB   C3B18755  12.120  27.130  22.750
  782BOLB   C4B18756  12.100  27.210  23.280
  782BOLB   NC218757  12.800  27.070  24.590
  782BOLB   PO218758  12.740  27.190  24.080
  782BOLB   GL318759  12.920  26.760  24.180
  782BOLB   GL418760  13.160  26.710  24.100
  782BOLB   C1C18761  12.970  26.290  23.890
  782BOLB   C2C18762  12.720  26.220  23.520
  782BOLB   C3C18763  12.520  26.190  23.100
  782BOLB   C4C18764  12.340  26.210  22.680
  782BOLB   C1D18765  12.930  26.800  23.570
  782BOLB   C2D18766  12.550  26.790  23.370
  782BOLB   C3D18767  12.250  26.660  23.070
  782BOLB   C4D18768  11.880  26.460  22.880
  783BOLB   NC118769  10.040  27.860  15.270
  783BOLB   PO118770  10.040  27.730  14.830
  783BOLB   GL118771  10.000  28.250  14.920
  783BOLB   GL218772   9.830  28.250  15.160
  783BOLB   C1A18773   9.870  28.720  14.950
  783BOLB   C2A18774   9.620  28.950  14.750
  783BOLB   C3A18775   9.360  29.090  15.010
  783BOLB   C4A18776   9.400  29.420  15.400
  783BOLB   C1B18777  10.190  28.660  15.300
  783BOLB   C2B18778  10.240  29.000  15.230
  783BOLB   C3B18779  10.390  29.430  15.050
  783BOLB   C4B18780  10.590  29.490  15.410
  783BOLB   NC218781  10.250  31.430  17.440
  783BOLB   PO218782  10.040  31.310  17.160
  783BOLB   GL318783   9.950  31.020  16.890
  783BOLB   GL418784  10.250  30.820  16.890
  783BOLB   C1C18785   9.840  30.820  16.510
  783BOLB   C2C18786   9.760  30.420  16.200
  783BOLB   C3C18787   9.650  30.110  15.860
  783BOLB   C4C18788   9.550  29.870  15.490
  783BOLB   C1D18789  10.020  30.460  16.770
  783BOLB   C2D18790  10.180  30.200  16.390
  783BOLB   C3D18791  10.270  29.740  16.330
  783BOLB   C4D18792   9.920  29.370  16.190
  784BOLB   NC118793   5.370  31.140  17.190
  784BOLB   PO118794   5.710  31.310  17.300
  784BOLB   GL118795   5.730  30.870  17.480
  784BOLB   GL218796   5.760  30.750  17.100
  784BOLB   C1A18797   5.830  30.430  17.500
  784BOLB   C2A18798   5.880  30.030  17.540
  784BOLB   C3A18799   5.870  29.670  17.780
  784BOLB   C4A18800   5.780  29.390  18.120
  784BOLB   C1B18801   5.730  30.470  16.810
  784BOLB   C2B18802   6.000  30.100  16.790
  784BOLB   C3B18803   6.180  29.920  17.130
  784BOLB   C4B18804   6.400  29.450  17.140
  784BOLB   NC218805   6.140  30.790  19.580
  784BOLB   PO218806   6.240  30.690  19.110
  784BOLB   GL318807   6.460  30.470  19.320
  784BOLB   GL418808   6.580  30.180  19.030
  784BOLB   C1C18809   6.300  30.040  19.480
  784BOLB   C2C18810   6.130  29.710  19.230
  784BOLB   C3C18811   5.880  29.440  18.860
  784BOLB   C4C18812   5.880  29.260  18.470
  784BOLB   C1D18813   6.670  29.690  18.960
  784BOLB   C2D18814   6.670  29.210  18.940
  784BOLB   C3D18815   6.500  28.680  18.980
  784BOLB   C4D18816   6.670  28.260  19.160
  785BOLB   NC118817   8.960  26.260  17.980
  785BOLB   PO118818   9.030  26.420  18.450
  785BOLB   GL118819   8.910  26.880  18.490
  785BOLB   GL218820   8.720  26.970  18.780
  785BOLB   C1A18821   9.010  27.330  18.580
  785BOLB   C2A18822   9.190  27.800  18.800
  785BOLB   C3A18823   9.280  28.140  19.070
  785BOLB   C4A18824   9.450  28.520  19.230
  785BOLB   C1B18825   8.710  27.330  18.980
  785BOLB   C2B18826   8.700  27.680  19.060
  785BOLB   C3B18827   8.490  27.940  19.150
  785BOLB   C4B18828   8.470  28.330  19.470
  785BOLB   NC218829  10.540  30.430  19.980
  785BOLB   PO218830  10.570  30.600  19.600
  785BOLB   GL318831  10.590  30.140  19.590
  785BOLB   GL418832  10.660  29.990  19.790
  785BOLB   C1C18833  10.520  29.730  19.370
  785BOLB   C2C18834  10.480  29.220  19.330
  785BOLB   C3C18835  10.140  28.850  19.210
  785BOLB   C4C18836   9.710  28.750  19.300
  785BOLB   C1D18837  11.090  29.840  19.590
  785BOLB   C2D18838  11.390  29.410  19.580
  785BOLB   C3D18839  11.430  29.070  19.290
  785BOLB   C4D18840  11.530  29.170  18.890
  786BOLB   NC118841   7.460  27.110  16.630
  786BOLB   PO118842   7.110  27.370  16.390
  786BOLB   GL118843   7.110  27.840  16.570
  786BOLB   GL218844   6.730  27.960  16.550
  786BOLB   C1A18845   7.240  28.180  16.620
  786BOLB   C2A18846   7.270  28.370  17.040
  786BOLB   C3A18847   7.340  28.730  17.080
  786BOLB   C4A18848   7.490  29.090  16.840
  786BOLB   C1B18849   6.650  28.190  16.190
  786BOLB   C2B18850   6.360  28.050  15.760
  786BOLB   C3B18851   6.400  28.270  15.480
  786BOLB   C4B18852   6.510  28.480  15.150
  786BOLB   NC218853   7.540  31.440  16.460
  786BOLB   PO218854   7.350  31.370  16.080
  786BOLB   GL318855   7.300  30.910  16.210
  786BOLB   GL418856   7.020  30.720  16.400
  786BOLB   C1C18857   7.380  30.480  16.130
  786BOLB   C2C18858   7.540  30.110  16.300
  786BOLB   C3C18859   7.730  29.850  16.650
  786BOLB   C4C18860   7.590  29.480  16.780
  786BOLB   C1D18861   7.030  30.340  16.460
  786BOLB   C2D18862   6.830  30.110  16.770
  786BOLB   C3D18863   6.770  29.830  17.150
  786BOLB   C4D18864   6.800  29.370  17.440
  787BOLB   NC118865  19.540  19.310  16.270
  787BOLB   PO118866  19.570  18.780  16.370
  787BOLB   GL118867  19.860  18.630  16.660
  787BOLB   GL218868  19.860  18.620  16.990
  787BOLB   C1A18869  20.230  18.650  16.500
  787BOLB   C2A18870  20.540  18.560  16.750
  787BOLB   C3A18871  20.800  18.650  16.920
  787BOLB   C4A18872  21.020  18.690  17.210
  787BOLB   C1B18873  20.150  18.400  17.100
  787BOLB   C2B18874  20.580  18.270  17.200
  787BOLB   C3B18875  20.850  18.350  17.500
  787BOLB   C4B18876  21.160  18.170  17.830
  787BOLB   NC218877  23.420  18.610  18.790
  787BOLB   PO218878  23.040  18.340  18.570
  787BOLB   GL318879  22.900  18.320  18.260
  787BOLB   GL418880  23.000  18.070  18.000
  787BOLB   C1C18881  22.490  18.480  18.100
  787BOLB   C2C18882  22.180  18.480  17.860
  787BOLB   C3C18883  21.720  18.370  17.780
  787BOLB   C4C18884  21.370  18.500  17.500
  787BOLB   C1D18885  22.800  18.310  17.730
  787BOLB   C2D18886  22.530  18.650  17.590
  787BOLB   C3D18887  22.740  19.040  17.470
  787BOLB   C4D18888  22.480  19.190  17.160
  788BOLB   NC118889   9.170  12.360  18.060
  788BOLB   PO118890   9.480  12.100  18.280
  788BOLB   GL118891   9.290  11.790  18.610
  788BOLB   GL218892   8.950  11.820  18.760
  788BOLB   C1A18893   9.350  11.690  19.120
  788BOLB   C2A18894   9.400  11.340  19.380
  788BOLB   C3A18895   9.400  10.940  19.580
  788BOLB   C4A18896   9.360  10.540  19.510
  788BOLB   C1B18897   8.950  11.400  18.740
  788BOLB   C2B18898   9.020  11.020  19.000
  788BOLB   C3B18899   9.010  10.680  19.220
  788BOLB   C4B18900   8.900  10.430  19.530
  788BOLB   NC218901   9.560   7.980  20.720
  788BOLB   PO218902   9.670   8.510  20.550
  788BOLB   GL318903   9.980   8.770  20.310
  788BOLB   GL418904   9.960   8.530  20.100
  788BOLB   C1C18905   9.980   9.210  20.280
  788BOLB   C2C18906   9.700   9.480  20.060
  788BOLB   C3C18907   9.730   9.740  19.670
  788BOLB   C4C18908   9.640  10.120  19.540
  788BOLB   C1D18909   9.490   8.530  19.850
  788BOLB   C2D18910   9.160   8.830  19.800
  788BOLB   C3D18911   8.870   8.910  19.430
  788BOLB   C4D18912   8.760   9.060  19.050
  789BOLB   NC118913  17.410  14.550  12.780
  789BOLB   PO118914  17.720  14.100  12.800
  789BOLB   GL118915  17.940  13.710  12.670
  789BOLB   GL218916  17.870  13.410  12.630
  789BOLB   C1A18917  18.400  13.400  12.730
  789BOLB   C2A18918  18.850  13.270  12.700
  789BOLB   C3A18919  18.950  13.150  13.080
  789BOLB   C4A18920  19.180  12.880  13.270
  789BOLB   C1B18921  17.980  13.070  12.790
  789BOLB   C2B18922  18.240  12.670  12.640
  789BOLB   C3B18923  18.520  12.360  12.830
  789BOLB   C4B18924  18.400  11.980  12.990
  789BOLB   NC218925  21.730  11.460  12.630
  789BOLB   PO218926  21.300  11.450  12.360
  789BOLB   GL318927  20.990  11.670  12.610
  789BOLB   GL418928  21.040  11.980  12.820
  789BOLB   C1C18929  20.410  11.870  12.740
  789BOLB   C2C18930  19.990  11.940  12.780
  789BOLB   C3C18931  19.590  12.120  12.970
  789BOLB   C4C18932  19.360  12.520  13.050
  789BOLB   C1D18933  20.920  12.420  12.590
  789BOLB   C2D18934  20.770  12.690  12.750
  789BOLB   C3D18935  20.620  13.010  13.060
  789BOLB   C4D18936  20.560  13.140  13.470
  790BOLB   NC118937  19.060  21.510  15.830
  790BOLB   PO118938  19.270  21.870  15.690
  790BOLB   GL118939  19.670  22.050  15.540
  790BOLB   GL218940  19.940  21.960  15.290
  790BOLB   C1A18941  20.000  22.230  15.740
  790BOLB   C2A18942  20.300  22.220  16.020
  790BOLB   C3A18943  20.450  22.200  16.490
  790BOLB   C4A18944  20.750  22.590  16.600
  790BOLB   C1B18945  20.350  22.090  15.390
  790BOLB   C2B18946  20.730  22.240  15.430
  790BOLB   C3B18947  20.920  22.630  15.520
  790BOLB   C4B18948  21.100  23.040  15.450
  790BOLB   NC218949  22.720  23.940  16.470
  790BOLB   PO218950  22.620  23.890  16.000
  790BOLB   GL318951  22.280  23.630  15.960
  790BOLB   GL418952  22.200  23.400  15.780
  790BOLB   C1C18953  21.770  23.600  16.000
  790BOLB   C2C18954  21.390  23.640  16.080
  790BOLB   C3C18955  21.050  23.340  16.150
  790BOLB   C4C18956  21.030  22.920  16.410
  790BOLB   C1D18957  21.770  23.270  15.620
  790BOLB   C2D18958  21.360  23.390  15.670
  790BOLB   C3D18959  21.020  23.580  15.710
  790BOLB   C4D18960  20.730  23.940  15.760
  791BOLB   NC118961   2.020  18.710  17.330
  791BOLB   PO118962   2.100  18.180  17.440
  791BOLB   GL118963   1.790  17.860  17.470
  791BOLB   GL218964   1.850  17.660  17.730
  791BOLB   C1A18965   1.360  17.870  17.600
  791BOLB   C2A18966   0.920  17.820  17.790
  791BOLB   C3A18967   0.700  17.500  18.110
  791BOLB   C4A18968   0.580  17.340  18.480
  791BOLB   C1B18969   1.520  17.480  17.800
  791BOLB   C2B18970   1.200  17.280  17.940
  791BOLB   C3B18971   0.790  17.000  17.980
  791BOLB   C4B18972   0.360  17.190  17.930
  791BOLB   NC218973  35.810  16.470  20.030
  791BOLB   PO218974  36.140  16.110  20.160
  791BOLB   GL318975  36.350  16.450  19.960
  791BOLB   GL418976   0.020  16.700  20.160
  791BOLB   C1C18977   0.200  16.720  19.710
  791BOLB   C2C18978   0.540  16.900  19.540
  791BOLB   C3C18979   0.780  17.090  19.340
  791BOLB   C4C18980   0.830  17.230  18.900
  791BOLB   C1D18981   0.310  17.110  20.000
  791BOLB   C2D18982   0.760  17.230  19.870
  791BOLB   C3D18983   0.870  17.470  19.730
  791BOLB   C4D18984   1.120  17.470  19.390
  792BOLB   NC118985  12.440   8.740  21.010
  792BOLB   PO118986  12.580   8.670  20.630
  792BOLB   GL118987  12.920   8.810  20.410
  792BOLB   GL218988  13.110   9.000  20.440
  792BOLB   C1A18989  13.270   8.820  20.000
  792BOLB   C2A18990  13.250   9.020  19.600
  792BOLB   C3A18991  13.060   8.850  19.290
  792BOLB   C4A18992  12.910   9.100  18.930
  792BOLB   C1B18993  13.120   9.270  20.190
  792BOLB   C2B18994  13.340   9.510  19.840
  792BOLB   C3B18995  13.210   9.720  19.480
  792BOLB   C4B18996  13.560   9.820  19.270
  792BOLB   NC218997  13.490   6.910  19.320
  792BOLB   PO218998  13.340   7.190  18.890
  792BOLB   GL318999  13.190   7.520  18.660
  792BOLB   GL419000  13.130   7.440  18.380
  792BOLB   C1C19001  13.260   7.930  18.460
  792BOLB   C2C19002  13.060   8.270  18.240
  792BOLB   C3C19003  13.130   8.710  18.160
  792BOLB   C4C19004  13.060   9.120  18.360
  792BOLB   C1D19005  12.850   7.810  18.210
  792BOLB   C2D19006  12.760   8.070  17.930
  792BOLB   C3D19007  12.880   8.410  17.730
  792BOLB   C4D19008  12.970   8.860  17.690
  793BOLB   NC119009  12.820  14.910  20.530
  793BOLB   PO119010  13.080  15.180  20.780
  793BOLB   GL119011  13.370  14.890  21.080
  793BOLB   GL219012  13.090  14.830  21.350
  793BOLB   C1A19013  13.590  14.810  21.540
  793BOLB   C2A19014  13.620  14.570  21.970
  793BOLB   C3A19015  13.600  14.380  22.220
  793BOLB   C4A19016  13.460  14.220  22.540
  793BOLB   C1B19017  12.990  14.670  21.810
  793BOLB   C2B19018  12.760  14.460  22.160
  793BOLB   C3B19019  12.540  14.510  22.540
  793BOLB   C4B19020  12.610  14.690  22.970
  793BOLB   NC219021  13.260  13.670  24.950
  793BOLB   PO219022  13.540  13.330  24.820
  793BOLB   GL319023  13.540  13.550  24.420
  793BOLB   GL419024  13.420  13.880  24.480
  793BOLB   C1C19025  13.590  13.830  24.060
  793BOLB   C2C19026  13.560  14.150  23.780
  793BOLB   C3C19027  13.610  14.110  23.420
  793BOLB   C4C19028  13.450  14.110  23.000
  793BOLB   C1D19029  13.250  14.250  24.280
  793BOLB   C2D19030  13.100  14.510  24.020
  793BOLB   C3D19031  12.960  14.520  23.640
  793BOLB   C4D19032  13.060  14.550  23.220
  794BOLB   NC119033  13.610  28.520  22.880
  794BOLB   PO119034  13.940  28.660  22.720
  794BOLB   GL119035  14.070  28.310  22.470
  794BOLB   GL219036  14.290  28.450  22.210
  794BOLB   C1A19037  14.120  27.830  22.460
  794BOLB   C2A19038  14.150  27.540  22.160
  794BOLB   C3A19039  14.380  27.210  21.940
  794BOLB   C4A19040  14.790  26.920  21.910
  794BOLB   C1B19041  14.120  28.230  21.840
  794BOLB   C2B19042  13.730  27.950  21.630
  794BOLB   C3B19043  13.250  27.900  21.580
  794BOLB   C4B19044  12.960  27.760  21.740
  794BOLB   NC219045  16.460  27.360  22.790
  794BOLB   PO219046  16.360  27.810  22.650
  794BOLB   GL319047  16.100  27.560  22.410
  794BOLB   GL419048  15.770  27.660  22.380
  794BOLB   C1C19049  15.850  27.300  21.980
  794BOLB   C2C19050  15.780  27.020  21.720
  794BOLB   C3C19051  15.410  26.980  21.490
  794BOLB   C4C19052  15.060  27.020  21.530
  794BOLB   C1D19053  15.580  27.280  22.400
  794BOLB   C2D19054  15.470  26.840  22.630
  794BOLB   C3D19055  15.330  26.400  22.630
  794BOLB   C4D19056  15.220  26.200  23.130
  795BOLB   NC119057  16.280  14.110   9.510
  795BOLB   PO119058  16.060  14.230   9.120
  795BOLB   GL119059  16.090  13.950   8.830
  795BOLB   GL219060  16.360  14.230   8.670
  795BOLB   C1A19061  16.060  13.470   8.850
  795BOLB   C2A19062  16.330  13.140   8.680
  795BOLB   C3A19063  16.720  13.010   8.580
  795BOLB   C4A19064  16.930  12.900   8.270
  795BOLB   C1B19065  16.710  14.210   8.460
  795BOLB   C2B19066  16.990  14.060   8.100
  795BOLB   C3B19067  16.800  13.710   7.770
  795BOLB   C4B19068  16.830  13.550   7.410
  795BOLB   NC219069  17.530  11.680   6.440
  795BOLB   PO219070  17.170  11.610   6.690
  795BOLB   GL319071  17.100  11.990   6.840
  795BOLB   GL419072  17.210  12.120   6.560
  795BOLB   C1C19073  17.070  12.080   7.300
  795BOLB   C2C19074  17.400  12.280   7.560
  795BOLB   C3C19075  17.640  12.610   7.790
  795BOLB   C4C19076  17.310  12.880   8.000
  795BOLB   C1D19077  16.750  12.330   6.770
  795BOLB   C2D19078  16.720  12.500   7.130
  795BOLB   C3D19079  17.030  12.610   7.450
  795BOLB   C4D19080  16.850  13.010   7.670
  796BOLB   NC119081  19.040  27.040  21.220
  796BOLB   PO119082  18.600  26.940  21.150
  796BOLB   GL119083  18.240  26.740  21.330
  796BOLB   GL219084  18.100  26.890  21.670
  796BOLB   C1A19085  17.880  26.490  21.150
  796BOLB   C2A19086  17.440  26.280  21.030
  796BOLB   C3A19087  17.020  26.050  21.190
  796BOLB   C4A19088  16.950  25.700  21.470
  796BOLB   C1B19089  17.710  26.780  21.560
  796BOLB   C2B19090  17.290  26.440  21.490
  796BOLB   C3B19091  16.980  26.330  21.670
  796BOLB   C4B19092  16.780  25.910  21.970
  796BOLB   NC219093  17.230  25.410  24.120
  796BOLB   PO219094  17.240  25.110  23.870
  796BOLB   GL319095  17.170  25.170  23.410
  796BOLB   GL419096  16.810  25.090  23.490
  796BOLB   C1C19097  17.260  25.170  22.930
  796BOLB   C2C19098  17.320  25.050  22.470
  796BOLB   C3C19099  17.000  25.090  22.140
  796BOLB   C4C19100  16.900  25.380  21.810
  796BOLB   C1D19101  16.670  24.760  23.220
  796BOLB   C2D19102  16.370  24.820  22.970
  796BOLB   C3D19103  16.160  24.660  22.690
  796BOLB   C4D19104  15.990  24.940  22.350
  797BOLB   NC119105  23.390  21.170  11.970
  797BOLB   PO119106  23.200  21.390  11.600
  797BOLB   GL119107  22.770  21.310  11.460
  797BOLB   GL219108  22.560  21.600  11.680
  797BOLB   C1A19109  22.390  21.140  11.380
  797BOLB   C2A19110  22.030  21.130  11.340
  797BOLB   C3A19111  21.640  20.950  11.370
  797BOLB   C4A19112  21.390  20.880  11.040
  797BOLB   C1B19113  22.310  21.550  12.060
  797BOLB   C2B19114  22.210  21.450  12.530
  797BOLB   C3B19115  22.210  21.060  12.740
  797BOLB   C4B19116  21.900  20.940  12.930
  797BOLB   NC219117  23.140  20.350  10.220
  797BOLB   PO219118  23.050  20.600   9.830
  797BOLB   GL319119  22.560  20.570   9.740
  797BOLB   GL419120  22.620  20.320  10.040
  797BOLB   C1C19121  22.200  20.550   9.870
  797BOLB   C2C19122  21.780  20.510  10.110
  797BOLB   C3C19123  21.540  20.540  10.450
  797BOLB   C4C19124  21.240  20.600  10.740
  797BOLB   C1D19125  22.380  20.100  10.320
  797BOLB   C2D19126  21.920  20.100  10.380
  797BOLB   C3D19127  21.500  20.060  10.350
  797BOLB   C4D19128  21.110  20.180  10.460
  798BOLB   NC119129  20.120  18.670  13.390
  798BOLB   PO119130  19.780  18.390  13.640
  798BOLB   GL119131  20.070  18.170  13.770
  798BOLB   GL219132  20.240  17.990  13.530
  798BOLB   C1A19133  20.530  18.290  13.940
  798BOLB   C2A19134  20.990  18.330  13.940
  798BOLB   C3A19135  21.350  18.640  13.980
  798BOLB   C4A19136  21.860  18.650  14.020
  798BOLB   C1B19137  20.560  17.880  13.580
  798BOLB   C2B19138  20.720  17.630  13.270
  798BOLB   C3B19139  21.030  17.700  13.120
  798BOLB   C4B19140  21.410  17.600  13.190
  798BOLB   NC219141  24.140  19.020  13.360
  798BOLB   PO219142  24.060  18.570  13.530
  798BOLB   GL319143  23.590  18.720  13.590
  798BOLB   GL419144  23.670  19.010  13.510
  798BOLB   C1C19145  23.120  18.710  13.660
  798BOLB   C2C19146  22.830  18.470  13.650
  798BOLB   C3C19147  22.480  18.240  13.760
  798BOLB   C4C19148  22.140  18.410  13.950
  798BOLB   C1D19149  23.250  19.200  13.470
  798BOLB   C2D19150  22.890  19.300  13.300
  798BOLB   C3D19151  22.450  19.410  13.140
  798BOLB   C4D19152  22.310  19.790  12.850
  799BOLB   NC119153   9.290  14.960  21.040
  799BOLB   PO119154   9.720  14.730  21.240
  799BOLB   GL119155   9.290  14.450  21.320
  799BOLB   GL219156   9.480  14.090  21.480
  799BOLB   C1A19157   8.900  14.330  21.500
  799BOLB   C2A19158   8.590  14.100  21.650
  799BOLB   C3A19159   8.210  14.060  21.950
  799BOLB   C4A19160   8.190  13.790  22.320
  799BOLB   C1B19161   9.730  14.060  21.850
  799BOLB   C2B19162   9.870  13.750  22.110
  799BOLB   C3B19163   9.720  13.460  22.470
  799BOLB   C4B19164   9.340  13.200  22.430
  799BOLB   NC219165   8.620  12.620  24.610
  799BOLB   PO219166   8.580  13.030  24.760
  799BOLB   GL319167   8.780  13.080  24.340
  799BOLB   GL419168   9.080  13.340  24.440
  799BOLB   C1C19169   8.790  13.080  23.840
  799BOLB   C2C19170   8.520  13.300  23.540
  799BOLB   C3C19171   8.640  13.320  23.040
  799BOLB   C4C19172   8.360  13.560  22.710
  799BOLB   C1D19173   9.180  13.610  24.090
  799BOLB   C2D19174   9.310  13.930  23.880
  799BOLB   C3D19175   9.630  14.100  23.480
  799BOLB   C4D19176   9.440  14.490  23.340
  800BOLB   NC119177  17.200  20.920   4.040
  800BOLB   PO119178  17.190  21.360   4.150
  800BOLB   GL119179  17.090  21.510   4.540
  800BOLB   GL219180  17.410  21.540   4.720
  800BOLB   C1A19181  16.880  21.630   4.910
  800BOLB   C2A19182  16.910  21.290   5.270
  800BOLB   C3A19183  16.850  21.010   5.520
  800BOLB   C4A19184  16.670  20.570   5.790
  800BOLB   C1B19185  17.280  21.090   4.820
  800BOLB   C2B19186  17.060  20.870   5.120
  800BOLB   C3B19187  16.810  20.520   5.320
  800BOLB   C4B19188  16.840  20.150   5.060
  800BOLB   NC219189  17.840  19.070   3.640
  800BOLB   PO219190  17.610  19.300   3.950
  800BOLB   GL319191  17.270  19.490   4.240
  800BOLB   GL419192  16.810  19.350   4.290
  800BOLB   C1C19193  17.150  19.570   4.660
  800BOLB   C2C19194  16.820  19.620   5.010
  800BOLB   C3C19195  16.580  19.740   5.350
  800BOLB   C4C19196  16.620  20.100   5.560
  800BOLB   C1D19197  16.470  19.510   4.540
  800BOLB   C2D19198  15.970  19.650   4.570
  800BOLB   C3D19199  15.600  19.830   4.530
  800BOLB   C4D19200  15.150  19.760   4.570
  801BOLB   NC119201  21.360  15.000  20.660
  801BOLB   PO119202  21.070  14.650  20.620
  801BOLB   GL119203  20.870  14.980  20.390
  801BOLB   GL219204  20.820  15.040  20.040
  801BOLB   C1A19205  20.440  15.260  20.400
  801BOLB   C2A19206  20.010  15.260  20.390
  801BOLB   C3A19207  19.750  15.480  20.160
  801BOLB   C4A19208  19.770  15.950  20.130
  801BOLB   C1B19209  20.810  15.440  19.860
  801BOLB   C2B19210  20.550  15.590  19.490
  801BOLB   C3B19211  20.370  15.830  19.300
  801BOLB   C4B19212  20.430  16.380  19.240
  801BOLB   NC219213  21.460  16.200  20.940
  801BOLB   PO219214  21.580  16.350  20.550
  801BOLB   GL319215  21.180  16.270  20.450
  801BOLB   GL419216  20.970  16.260  20.790
  801BOLB   C1C19217  20.790  16.380  20.230
  801BOLB   C2C19218  20.530  16.780  20.190
  801BOLB   C3C19219  20.150  16.720  19.950
  801BOLB   C4C19220  19.910  16.420  20.060
  801BOLB   C1D19221  20.700  16.480  20.670
  801BOLB   C2D19222  20.360  16.530  20.550
  801BOLB   C3D19223  19.890  16.560  20.610
  801BOLB   C4D19224  19.610  16.190  20.530
  802BOLB   NC119225  19.070  21.110  10.620
  802BOLB   PO119226  18.990  21.310  10.930
  802BOLB   GL119227  19.410  21.410  11.030
  802BOLB   GL219228  19.460  21.460  10.820
  802BOLB   C1A19229  19.930  21.480  11.030
  802BOLB   C2A19230  20.060  21.700  10.600
  802BOLB   C3A19231  20.280  21.880  10.550
  802BOLB   C4A19232  20.570  22.170  10.590
  802BOLB   C1B19233  19.800  21.160  10.530
  802BOLB   C2B19234  20.020  21.080  10.180
  802BOLB   C3B19235  20.210  20.890   9.900
  802BOLB   C4B19236  20.620  20.860   9.590
  802BOLB   NC219237  22.720  23.170   9.380
  802BOLB   PO219238  22.710  23.080   9.760
  802BOLB   GL319239  22.310  23.000   9.820
  802BOLB   GL419240  22.230  23.050  10.150
  802BOLB   C1C19241  22.040  22.660   9.970
  802BOLB   C2C19242  21.830  22.460  10.380
  802BOLB   C3C19243  21.460  22.340  10.570
  802BOLB   C4C19244  21.000  22.210  10.450
  802BOLB   C1D19245  22.100  22.830  10.470
  802BOLB   C2D19246  21.690  22.800  10.680
  802BOLB   C3D19247  21.490  22.680  11.150
  802BOLB   C4D19248  21.090  22.650  11.230
  803BOLB   NC119249   7.590  19.520  22.600
  803BOLB   PO119250   7.970  19.330  22.780
  803BOLB   GL119251   8.030  19.550  23.140
  803BOLB   GL219252   8.110  19.360  23.440
  803BOLB   C1A19253   7.910  19.710  23.620
  803BOLB   C2A19254   7.730  19.830  24.040
  803BOLB   C3A19255   7.780  20.110  24.520
  803BOLB   C4A19256   8.050  20.250  24.710
  803BOLB   C1B19257   8.480  19.080  23.560
  803BOLB   C2B19258   8.590  19.140  23.900
  803BOLB   C3B19259   8.540  19.250  24.310
  803BOLB   C4B19260   8.860  19.160  24.650
  803BOLB   NC219261   7.560  20.250  26.870
  803BOLB   PO219262   7.260  20.550  26.860
  803BOLB   GL319263   7.180  20.220  26.500
  803BOLB   GL419264   7.420  20.040  26.390
  803BOLB   C1C19265   7.060  20.260  25.990
  803BOLB   C2C19266   7.240  20.140  25.640
  803BOLB   C3C19267   7.540  20.090  25.400
  803BOLB   C4C19268   8.000  20.200  25.170
  803BOLB   C1D19269   7.800  19.760  26.250
  803BOLB   C2D19270   7.970  19.520  25.890
  803BOLB   C3D19271   8.360  19.500  25.760
  803BOLB   C4D19272   8.550  19.230  25.480
  804BOLB   NC119273  12.400  29.700  22.360
  804BOLB   PO119274  12.430  29.670  21.950
  804BOLB   GL119275  12.170  29.610  21.620
  804BOLB   GL219276  12.070  29.610  21.320
  804BOLB   C1A19277  11.970  29.200  21.450
  804BOLB   C2A19278  11.630  29.060  21.250
  804BOLB   C3A19279  11.620  28.700  20.990
  804BOLB   C4A19280  11.730  28.310  20.910
  804BOLB   C1B19281  12.010  29.290  20.940
  804BOLB   C2B19282  11.850  29.030  20.750
  804BOLB   C3B19283  12.080  28.570  20.690
  804BOLB   C4B19284  12.320  28.220  20.610
  804BOLB   NC219285  12.170  28.800  23.310
  804BOLB   PO219286  12.250  28.520  22.860
  804BOLB   GL319287  12.510  28.360  22.470
  804BOLB   GL419288  12.710  28.650  22.300
  804BOLB   C1C19289  12.490  28.110  22.140
  804BOLB   C2C19290  12.530  28.040  21.780
  804BOLB   C3C19291  12.280  28.230  21.450
  804BOLB   C4C19292  12.140  28.220  21.060
  804BOLB   C1D19293  12.470  28.600  21.930
  804BOLB   C2D19294  12.430  28.680  21.550
  804BOLB   C3D19295  12.580  28.420  21.090
  804BOLB   C4D19296  12.690  27.980  20.880
  805BOLB   NC119297  23.350  21.630  17.890
  805BOLB   PO119298  23.210  21.820  17.520
  805BOLB   GL119299  22.860  21.720  17.440
  805BOLB   GL219300  22.970  21.540  17.200
  805BOLB   C1A19301  22.510  21.810  17.570
  805BOLB   C2A19302  22.040  21.980  17.710
  805BOLB   C3A19303  21.620  22.060  17.700
  805BOLB   C4A19304  21.180  22.200  17.470
  805BOLB   C1B19305  22.550  21.440  17.140
  805BOLB   C2B19306  22.280  21.780  16.990
  805BOLB   C3B19307  22.090  21.870  16.570
  805BOLB   C4B19308  21.750  21.770  16.350
  805BOLB   NC219309  22.400  23.690  17.220
  805BOLB   PO219310  22.540  23.240  17.210
  805BOLB   GL319311  22.320  22.800  17.060
  805BOLB   GL419312  22.360  22.670  17.350
  805BOLB   C1C19313  22.010  22.530  16.940
  805BOLB   C2C19314  21.590  22.510  16.970
  805BOLB   C3C19315  21.230  22.490  16.800
  805BOLB   C4C19316  20.910  22.300  17.130
  805BOLB   C1D19317  21.960  22.490  17.580
  805BOLB   C2D19318  21.620  22.540  17.470
  805BOLB   C3D19319  21.270  22.730  17.310
  805BOLB   C4D19320  21.140  23.230  17.240
  806BOLB   NC119321  21.060  15.580   7.590
  806BOLB   PO119322  20.770  15.470   7.220
  806BOLB   GL119323  20.470  15.460   7.430
  806BOLB   GL219324  20.540  15.730   7.620
  806BOLB   C1A19325  20.320  15.320   7.860
  806BOLB   C2A19326  20.070  15.300   8.110
  806BOLB   C3A19327  19.650  15.320   8.160
  806BOLB   C4A19328  19.140  15.300   8.060
  806BOLB   C1B19329  20.330  16.040   7.900
  806BOLB   C2B19330  20.380  16.640   7.920
  806BOLB   C3B19331  20.540  17.080   8.040
  806BOLB   C4B19332  20.420  17.200   8.400
  806BOLB   NC219333  18.560  14.170   6.050
  806BOLB   PO219334  18.420  14.110   6.370
  806BOLB   GL319335  18.270  14.300   6.680
  806BOLB   GL419336  18.020  14.100   6.780
  806BOLB   C1C19337  18.180  14.760   6.670
  806BOLB   C2C19338  18.360  15.270   6.860
  806BOLB   C3C19339  18.650  15.400   7.240
  806BOLB   C4C19340  18.880  15.540   7.660
  806BOLB   C1D19341  17.640  14.050   7.020
  806BOLB   C2D19342  17.650  14.090   7.490
  806BOLB   C3D19343  17.530  14.350   7.680
  806BOLB   C4D19344  17.660  14.830   7.640
  807BOLB   NC119345  16.590  13.390  10.350
  807BOLB   PO119346  16.960  13.620  10.560
  807BOLB   GL119347  17.110  13.240  10.680
  807BOLB   GL219348  17.150  13.070  10.950
  807BOLB   C1A19349  17.350  12.870  10.500
  807BOLB   C2A19350  17.600  12.620  10.290
  807BOLB   C3A19351  17.890  12.480  10.180
  807BOLB   C4A19352  18.340  12.170  10.170
  807BOLB   C1B19353  17.430  12.720  11.030
  807BOLB   C2B19354  17.950  12.540  11.150
  807BOLB   C3B19355  18.300  12.540  11.510
  807BOLB   C4B19356  18.340  12.330  11.840
  807BOLB   NC219357  19.650  10.470  10.250
  807BOLB   PO219358  19.870  10.880  10.330
  807BOLB   GL319359  19.660  11.040  10.690
  807BOLB   GL419360  19.770  11.260  10.940
  807BOLB   C1C19361  19.260  11.250  10.930
  807BOLB   C2C19362  19.000  11.560  10.740
  807BOLB   C3C19363  18.710  11.570  10.340
  807BOLB   C4C19364  18.530  11.740  10.150
  807BOLB   C1D19365  19.790  11.750  10.970
  807BOLB   C2D19366  19.360  12.020  10.980
  807BOLB   C3D19367  18.990  12.110  10.720
  807BOLB   C4D19368  18.710  12.440  10.560
  808BOLB   NC119369   7.960  19.190  26.500
  808BOLB   PO119370   8.330  19.350  26.700
  808BOLB   GL119371   8.500  19.200  26.230
  808BOLB   GL219372   8.950  19.160  26.160
  808BOLB   C1A19373   8.390  19.030  25.930
  808BOLB   C2A19374   8.180  18.890  25.550
  808BOLB   C3A19375   8.090  18.890  25.230
  808BOLB   C4A19376   8.450  18.980  25.010
  808BOLB   C1B19377   9.040  19.050  25.700
  808BOLB   C2B19378   9.380  19.420  25.640
  808BOLB   C3B19379   9.610  19.630  25.280
  808BOLB   C4B19380   9.900  19.600  25.050
  808BOLB   NC219381   9.650  18.400  26.780
  808BOLB   PO219382   9.250  18.590  26.690
  808BOLB   GL319383   9.250  18.820  26.410
  808BOLB   GL419384   9.530  18.530  26.250
  808BOLB   C1C19385   9.460  18.990  26.030
  808BOLB   C2C19386   9.540  18.930  25.620
  808BOLB   C3C19387   9.360  19.050  25.290
  808BOLB   C4C19388   8.890  19.070  25.200
  808BOLB   C1D19389   9.330  18.490  25.870
  808BOLB   C2D19390   9.070  18.510  25.540
  808BOLB   C3D19391   8.900  18.180  25.200
  808BOLB   C4D19392   8.820  17.860  24.890
  809BOLB   NC119393  17.390  16.500  19.100
  809BOLB   PO119394  17.660  16.090  19.030
  809BOLB   GL119395  17.920  15.810  19.030
  809BOLB   GL219396  18.110  15.460  18.880
  809BOLB   C1A19397  18.100  15.600  19.350
  809BOLB   C2A19398  18.490  15.400  19.580
  809BOLB   C3A19399  18.600  15.150  19.990
  809BOLB   C4A19400  18.990  14.840  20.090
  809BOLB   C1B19401  18.190  15.020  19.090
  809BOLB   C2B19402  18.020  14.600  19.370
  809BOLB   C3B19403  18.150  14.370  19.710
  809BOLB   C4B19404  18.410  14.240  20.210
  809BOLB   NC219405  20.240  13.190  20.580
  809BOLB   PO219406  20.670  13.210  20.410
  809BOLB   GL319407  20.290  13.350  20.140
  809BOLB   GL419408  20.200  13.190  19.770
  809BOLB   C1C19409  20.090  13.760  20.130
  809BOLB   C2C19410  19.670  14.060  20.000
  809BOLB   C3C19411  19.460  14.250  20.030
  809BOLB   C4C19412  19.300  14.540  19.860
  809BOLB   C1D19413  19.810  12.960  19.600
  809BOLB   C2D19414  19.590  13.000  19.290
  809BOLB   C3D19415  19.140  12.800  19.280
  809BOLB   C4D19416  18.670  12.670  19.180
  810BOLB   NC119417  23.850  16.900  15.130
  810BOLB   PO119418  23.440  16.690  15.070
  810BOLB   GL119419  23.140  16.760  14.830
  810BOLB   GL219420  22.850  16.670  14.990
  810BOLB   C1A19421  23.100  16.730  14.470
  810BOLB   C2A19422  22.840  16.940  14.280
  810BOLB   C3A19423  22.480  17.080  14.220
  810BOLB   C4A19424  22.150  17.300  14.470
  810BOLB   C1B19425  22.710  17.060  14.740
  810BOLB   C2B19426  22.610  17.450  14.680
  810BOLB   C3B19427  22.320  17.800  14.500
  810BOLB   C4B19428  22.160  18.090  14.330
  810BOLB   NC219429  23.870  17.000  15.870
  810BOLB   PO219430  23.420  17.060  15.980
  810BOLB   GL319431  23.170  16.770  15.710
  810BOLB   GL419432  23.110  16.810  15.410
  810BOLB   C1C19433  22.760  16.540  15.670
  810BOLB   C2C19434  22.580  16.580  15.410
  810BOLB   C3C19435  22.370  16.810  15.030
  810BOLB   C4C19436  22.070  17.080  14.820
  810BOLB   C1D19437  22.730  17.020  15.520
  810BOLB   C2D19438  22.480  17.320  15.620
  810BOLB   C3D19439  22.100  17.660  15.480
  810BOLB   C4D19440  21.790  17.870  15.290
  811BOLB   NC119441  19.550  20.830  15.000
  811BOLB   PO119442  19.510  20.820  14.520
  811BOLB   GL119443  19.850  21.050  14.500
  811BOLB   GL219444  20.050  21.050  14.210
  811BOLB   C1A19445  20.250  21.310  14.690
  811BOLB   C2A19446  20.590  21.250  14.520
  811BOLB   C3A19447  20.980  21.250  14.400
  811BOLB   C4A19448  21.420  21.460  14.280
  811BOLB   C1B19449  20.270  21.510  14.210
  811BOLB   C2B19450  20.760  21.680  14.270
  811BOLB   C3B19451  21.150  21.850  14.180
  811BOLB   C4B19452  21.310  22.140  13.900
  811BOLB   NC219453  23.470  21.380  14.200
  811BOLB   PO219454  23.440  21.780  13.830
  811BOLB   GL319455  23.000  21.550  13.720
  811BOLB   GL419456  22.970  21.180  13.860
  811BOLB   C1C19457  22.530  21.600  13.580
  811BOLB   C2C19458  22.280  21.970  13.580
  811BOLB   C3C19459  21.840  21.990  13.780
  811BOLB   C4C19460  21.510  21.710  13.880
  811BOLB   C1D19461  22.550  21.130  14.010
  811BOLB   C2D19462  22.480  21.450  14.180
  811BOLB   C3D19463  22.310  21.540  14.550
  811BOLB   C4D19464  22.380  21.800  14.910
  812BOLB   NC119465  14.300  12.130  12.780
  812BOLB   PO119466  14.250  11.760  12.510
  812BOLB   GL119467  14.530  11.440  12.360
  812BOLB   GL219468  14.650  11.590  12.130
  812BOLB   C1A19469  14.870  11.120  12.470
  812BOLB   C2A19470  14.800  10.660  12.570
  812BOLB   C3A19471  14.900  10.210  12.420
  812BOLB   C4A19472  14.740   9.790  12.280
  812BOLB   C1B19473  14.870  11.350  11.900
  812BOLB   C2B19474  14.970  10.990  11.570
  812BOLB   C3B19475  15.250  10.640  11.390
  812BOLB   C4B19476  15.250  10.250  11.470
  812BOLB   NC219477  15.050   7.810  10.890
  812BOLB   PO219478  15.250   7.820  11.260
  812BOLB   GL319479  15.120   8.110  11.430
  812BOLB   GL419480  14.930   8.240  11.060
  812BOLB   C1C19481  14.970   8.420  11.650
  812BOLB   C2C19482  14.920   8.700  12.010
  812BOLB   C3C19483  14.580   9.000  12.270
  812BOLB   C4C19484  14.600   9.440  12.170
  812BOLB   C1D19485  14.740   8.540  11.010
  812BOLB   C2D19486  14.340   8.620  10.950
  812BOLB   C3D19487  13.940   8.540  10.720
  812BOLB   C4D19488  13.570   8.910  10.740
  813BOLB   NC119489  14.420  26.990  13.730
  813BOLB   PO119490  13.940  27.150  13.960
  813BOLB   GL119491  13.890  27.500  13.770
  813BOLB   GL219492  13.600  27.450  13.630
  813BOLB   C1A19493  14.010  28.020  13.800
  813BOLB   C2A19494  14.410  28.230  13.680
  813BOLB   C3A19495  14.600  28.450  13.330
  813BOLB   C4A19496  14.780  28.520  12.950
  813BOLB   C1B19497  13.500  27.880  13.690
  813BOLB   C2B19498  13.620  28.300  13.810
  813BOLB   C3B19499  13.670  28.760  13.680
  813BOLB   C4B19500  13.730  29.000  13.280
  813BOLB   NC219501  14.920  30.680  12.140
  813BOLB   PO219502  15.040  30.480  11.810
  813BOLB   GL319503  15.220  30.140  12.110
  813BOLB   GL419504  15.370  30.130  11.870
  813BOLB   C1C19505  15.320  29.760  12.180
  813BOLB   C2C19506  15.290  29.550  12.450
  813BOLB   C3C19507  15.170  29.260  12.740
  813BOLB   C4C19508  14.950  28.850  12.840
  813BOLB   C1D19509  15.080  29.840  11.760
  813BOLB   C2D19510  15.220  29.500  11.570
  813BOLB   C3D19511  15.560  29.140  11.610
  813BOLB   C4D19512  16.070  29.150  11.910
  814BOLB   NC119513  14.030  23.020   8.120
  814BOLB   PO119514  13.690  23.060   7.810
  814BOLB   GL119515  13.860  23.290   7.620
  814BOLB   GL219516  13.670  23.540   7.660
  814BOLB   C1A19517  14.130  23.610   7.370
  814BOLB   C2A19518  14.300  23.550   6.900
  814BOLB   C3A19519  14.600  23.740   6.630
  814BOLB   C4A19520  14.900  23.750   6.470
  814BOLB   C1B19521  13.780  23.980   7.440
  814BOLB   C2B19522  13.720  24.350   7.200
  814BOLB   C3B19523  13.600  24.870   7.090
  814BOLB   C4B19524  13.490  25.300   7.330
  814BOLB   NC219525  15.940  24.430   4.600
  814BOLB   PO219526  16.230  24.100   4.480
  814BOLB   GL319527  16.190  24.190   4.990
  814BOLB   GL419528  16.320  23.950   5.160
  814BOLB   C1C19529  15.810  24.150   5.240
  814BOLB   C2C19530  15.410  24.140   5.400
  814BOLB   C3C19531  15.200  24.260   5.780
  814BOLB   C4C19532  15.010  24.110   6.170
  814BOLB   C1D19533  15.960  23.760   5.460
  814BOLB   C2D19534  15.740  23.670   5.790
  814BOLB   C3D19535  15.610  23.440   6.200
  814BOLB   C4D19536  15.560  23.030   6.440
  815BOLB   NC119537  13.040  24.490  21.140
  815BOLB   PO119538  12.660  24.520  21.170
  815BOLB   GL119539  12.890  24.780  21.590
  815BOLB   GL219540  13.120  24.560  21.780
  815BOLB   C1A19541  12.640  25.000  21.900
  815BOLB   C2A19542  12.360  25.320  22.160
  815BOLB   C3A19543  12.240  25.510  22.570
  815BOLB   C4A19544  12.180  25.760  22.930
  815BOLB   C1B19545  13.150  24.970  21.980
  815BOLB   C2B19546  13.540  25.100  22.100
  815BOLB   C3B19547  13.450  25.120  22.510
  815BOLB   C4B19548  13.650  24.830  22.820
  815BOLB   NC219549  11.950  27.430  24.080
  815BOLB   PO219550  11.560  27.330  24.220
  815BOLB   GL319551  11.380  27.080  24.150
  815BOLB   GL419552  11.420  26.670  24.270
  815BOLB   C1C19553  11.270  26.850  23.840
  815BOLB   C2C19554  11.460  26.520  23.490
  815BOLB   C3C19555  11.620  26.270  23.340
  815BOLB   C4C19556  12.040  26.080  23.200
  815BOLB   C1D19557  11.260  26.310  24.370
  815BOLB   C2D19558  11.040  25.970  24.140
  815BOLB   C3D19559  10.910  25.690  23.860
  815BOLB   C4D19560  11.060  25.260  23.740
  816BOLB   NC119561  18.920  21.860  11.850
  816BOLB   PO119562  19.250  21.960  11.580
  816BOLB   GL119563  19.380  22.300  11.490
  816BOLB   GL219564  19.220  22.610  11.370
  816BOLB   C1A19565  19.820  22.140  11.360
  816BOLB   C2A19566  20.130  21.830  11.340
  816BOLB   C3A19567  20.380  21.750  11.030
  816BOLB   C4A19568  20.790  21.890  10.970
  816BOLB   C1B19569  19.330  22.860  10.980
  816BOLB   C2B19570  19.640  23.190  10.780
  816BOLB   C3B19571  20.070  23.360  10.700
  816BOLB   C4B19572  20.150  23.560  10.300
  816BOLB   NC219573  22.360  23.480   9.280
  816BOLB   PO219574  22.380  23.490   9.740
  816BOLB   GL319575  22.040  23.480   9.990
  816BOLB   GL419576  21.720  23.780  10.100
  816BOLB   C1C19577  21.740  23.140  10.050
  816BOLB   C2C19578  21.340  22.960  10.300
  816BOLB   C3C19579  21.110  22.660  10.700
  816BOLB   C4C19580  21.000  22.250  10.910
  816BOLB   C1D19581  21.440  23.810  10.370
  816BOLB   C2D19582  21.150  23.600  10.760
  816BOLB   C3D19583  20.820  23.570  11.020
  816BOLB   C4D19584  20.640  23.400  11.480
  817BOLB   NC119585  11.100  23.710  21.860
  817BOLB   PO119586  10.970  24.120  21.670
  817BOLB   GL119587  11.050  24.430  21.940
  817BOLB   GL219588  11.240  24.320  22.240
  817BOLB   C1A19589  11.250  24.770  22.250
  817BOLB   C2A19590  11.120  25.140  22.180
  817BOLB   C3A19591  10.990  25.470  22.330
  817BOLB   C4A19592  10.750  25.790  22.560
  817BOLB   C1B19593  10.910  24.340  22.510
  817BOLB   C2B19594  10.870  24.550  22.820
  817BOLB   C3B19595  10.810  24.770  23.180
  817BOLB   C4B19596  10.660  25.220  23.250
  817BOLB   NC219597  10.840  27.070  24.940
  817BOLB   PO219598  10.570  26.710  24.870
  817BOLB   GL319599  10.580  26.430  24.500
  817BOLB   GL419600  10.700  26.080  24.530
  817BOLB   C1C19601  10.530  26.410  23.980
  817BOLB   C2C19602  10.440  26.420  23.500
  817BOLB   C3C19603  10.520  26.190  23.250
  817BOLB   C4C19604  10.660  25.910  22.910
  817BOLB   C1D19605  10.470  25.930  24.190
  817BOLB   C2D19606  10.460  25.950  23.740
  817BOLB   C3D19607  10.690  25.680  23.390
  817BOLB   C4D19608  10.960  25.680  23.290
  818BOLB   NC119609  12.330  13.710  20.410
  818BOLB   PO119610  11.880  13.880  20.540
  818BOLB   GL119611  12.070  13.670  20.960
  818BOLB   GL219612  12.220  13.740  21.320
  818BOLB   C1A19613  12.110  13.290  21.160
  818BOLB   C2A19614  12.230  13.040  21.440
  818BOLB   C3A19615  12.480  12.870  21.840
  818BOLB   C4A19616  12.900  12.720  21.870
  818BOLB   C1B19617  12.310  13.550  21.590
  818BOLB   C2B19618  12.240  13.290  21.890
  818BOLB   C3B19619  12.290  13.170  22.270
  818BOLB   C4B19620  12.370  13.110  22.630
  818BOLB   NC219621  13.880  10.670  22.200
  818BOLB   PO219622  14.230  10.760  22.400
  818BOLB   GL319623  14.190  11.070  22.130
  818BOLB   GL419624  14.380  11.280  22.330
  818BOLB   C1C19625  13.930  11.470  22.070
  818BOLB   C2C19626  13.850  11.830  21.840
  818BOLB   C3C19627  13.520  12.100  21.830
  818BOLB   C4C19628  13.250  12.470  21.910
  818BOLB   C1D19629  14.320  11.660  22.330
  818BOLB   C2D19630  14.230  12.080  22.190
  818BOLB   C3D19631  14.150  12.240  21.850
  818BOLB   C4D19632  13.840  12.380  21.580
  819BOLB   NC119633  17.730  16.090  24.730
  819BOLB   PO119634  17.360  16.210  24.450
  819BOLB   GL119635  16.970  16.350  24.300
  819BOLB   GL219636  16.720  16.130  24.290
  819BOLB   C1A19637  16.670  16.640  23.960
  819BOLB   C2A19638  16.500  16.950  23.700
  819BOLB   C3A19639  16.280  17.110  23.330
  819BOLB   C4A19640  15.910  17.340  23.330
  819BOLB   C1B19641  16.710  16.130  23.830
  819BOLB   C2B19642  16.670  16.020  23.540
  819BOLB   C3B19643  16.810  15.710  23.350
  819BOLB   C4B19644  17.270  15.740  23.230
  819BOLB   NC219645  15.480  18.540  20.890
  819BOLB   PO219646  15.190  18.370  21.170
  819BOLB   GL319647  15.420  18.310  21.500
  819BOLB   GL419648  15.300  18.410  21.790
  819BOLB   C1C19649  15.700  18.170  21.880
  819BOLB   C2C19650  15.820  17.950  22.270
  819BOLB   C3C19651  15.660  17.870  22.660
  819BOLB   C4C19652  15.610  17.670  23.120
  819BOLB   C1D19653  15.500  18.560  22.190
  819BOLB   C2D19654  15.620  18.370  22.530
  819BOLB   C3D19655  15.980  18.270  22.630
  819BOLB   C4D19656  16.360  18.240  22.830
  820BOLB   NC119657  17.580  17.010  19.020
  820BOLB   PO119658  18.020  17.030  19.110
  820BOLB   GL119659  18.340  17.140  19.440
  820BOLB   GL219660  18.400  17.160  19.770
  820BOLB   C1A19661  18.780  17.120  19.460
  820BOLB   C2A19662  19.170  16.790  19.470
  820BOLB   C3A19663  19.480  16.540  19.670
  820BOLB   C4A19664  19.760  16.170  19.600
  820BOLB   C1B19665  18.630  17.280  20.130
  820BOLB   C2B19666  18.850  17.350  20.480
  820BOLB   C3B19667  19.330  17.140  20.490
  820BOLB   C4B19668  19.750  17.030  20.610
  820BOLB   NC219669  18.680  16.160  17.440
  820BOLB   PO219670  18.630  15.920  17.790
  820BOLB   GL319671  19.030  15.860  17.880
  820BOLB   GL419672  18.920  16.000  18.260
  820BOLB   C1C19673  19.460  15.780  18.100
  820BOLB   C2C19674  19.870  15.750  18.310
  820BOLB   C3C19675  19.730  15.910  18.660
  820BOLB   C4C19676  19.890  16.010  19.080
  820BOLB   C1D19677  19.200  15.790  18.640
  820BOLB   C2D19678  19.480  15.530  18.900
  820BOLB   C3D19679  19.680  15.160  19.030
  820BOLB   C4D19680  20.140  15.010  18.880
  821BOLB   NC119681  18.800  18.640  18.190
  821BOLB   PO119682  18.980  18.670  17.820
  821BOLB   GL119683  19.280  18.800  18.090
  821BOLB   GL219684  19.450  18.640  18.340
  821BOLB   C1A19685  19.370  19.180  18.260
  821BOLB   C2A19686  19.710  19.300  18.550
  821BOLB   C3A19687  20.120  19.420  18.650
  821BOLB   C4A19688  20.380  19.720  18.750
  821BOLB   C1B19689  19.830  18.800  18.370
  821BOLB   C2B19690  20.140  19.090  18.270
  821BOLB   C3B19691  20.540  19.270  18.370
  821BOLB   C4B19692  20.890  19.520  18.660
  821BOLB   NC219693  22.090  19.700  20.060
  821BOLB   PO219694  21.950  19.990  20.350
  821BOLB   GL319695  21.690  20.190  20.030
  821BOLB   GL419696  21.620  19.890  19.940
  821BOLB   C1C19697  21.410  20.330  19.650
  821BOLB   C2C19698  21.130  20.270  19.520
  821BOLB   C3C19699  20.940  20.160  19.090
  821BOLB   C4C19700  20.620  20.000  18.890
  821BOLB   C1D19701  21.250  19.760  20.040
  821BOLB   C2D19702  21.030  19.750  19.670
  821BOLB   C3D19703  20.650  19.850  19.410
  821BOLB   C4D19704  20.250  19.670  19.240
  822BOLB   NC119705  17.430   8.060  16.540
  822BOLB   PO119706  17.710   8.230  16.740
  822BOLB   GL119707  17.400   8.510  16.590
  822BOLB   GL219708  17.370   8.600  16.250
  822BOLB   C1A19709  16.880   8.790  16.560
  822BOLB   C2A19710  16.710   9.220  16.440
  822BOLB   C3A19711  16.400   9.560  16.270
  822BOLB   C4A19712  16.290   9.900  15.920
  822BOLB   C1B19713  17.140   8.990  16.210
  822BOLB   C2B19714  16.960   9.470  16.060
  822BOLB   C3B19715  16.770   9.830  16.090
  822BOLB   C4B19716  16.480  10.120  16.370
  822BOLB   NC219717  17.550   7.980  15.340
  822BOLB   PO219718  17.530   7.970  15.750
  822BOLB   GL319719  17.190   8.210  15.820
  822BOLB   GL419720  17.170   8.130  16.100
  822BOLB   C1C19721  16.980   8.720  15.710
  822BOLB   C2C19722  16.940   9.230  15.600
  822BOLB   C3C19723  16.900   9.720  15.600
  822BOLB   C4C19724  16.600  10.010  15.600
  822BOLB   C1D19725  16.780   8.410  16.120
  822BOLB   C2D19726  16.600   8.790  16.110
  822BOLB   C3D19727  16.570   9.090  15.930
  822BOLB   C4D19728  16.480   9.450  15.710
  823BOLB   NC119729  18.970  16.700  23.500
  823BOLB   PO119730  18.910  16.300  23.630
  823BOLB   GL119731  18.740  16.260  23.210
  823BOLB   GL219732  18.870  16.370  23.100
  823BOLB   C1A19733  18.500  16.230  22.850
  823BOLB   C2A19734  18.200  16.400  22.790
  823BOLB   C3A19735  17.960  16.630  22.630
  823BOLB   C4A19736  18.050  16.860  22.330
  823BOLB   C1B19737  18.950  16.360  22.700
  823BOLB   C2B19738  19.200  16.590  22.410
  823BOLB   C3B19739  19.220  16.760  22.060
  823BOLB   C4B19740  19.520  16.780  21.730
  823BOLB   NC219741  20.130  16.140  23.220
  823BOLB   PO219742  19.730  16.110  23.400
  823BOLB   GL319743  19.640  16.340  23.060
  823BOLB   GL419744  19.390  16.190  22.890
  823BOLB   C1C19745  19.310  16.710  22.920
  823BOLB   C2C19746  19.080  17.020  22.650
  823BOLB   C3C19747  18.810  17.010  22.330
  823BOLB   C4C19748  18.380  17.080  22.240
  823BOLB   C1D19749  19.250  16.110  22.400
  823BOLB   C2D19750  18.950  16.320  22.110
  823BOLB   C3D19751  18.630  16.070  21.780
  823BOLB   C4D19752  18.230  16.040  21.620
  824BOLB   NC119753  19.560  19.790  15.820
  824BOLB   PO119754  19.650  19.990  15.530
  824BOLB   GL119755  19.960  20.110  15.860
  824BOLB   GL219756  19.880  19.920  16.200
  824BOLB   C1A19757  20.350  20.110  16.140
  824BOLB   C2A19758  20.720  19.910  16.250
  824BOLB   C3A19759  21.080  19.760  16.470
  824BOLB   C4A19760  21.400  19.560  16.330
  824BOLB   C1B19761  20.180  19.680  16.390
  824BOLB   C2B19762  20.440  19.680  16.760
  824BOLB   C3B19763  20.780  19.750  16.830
  824BOLB   C4B19764  21.140  20.100  16.860
  824BOLB   NC219765  23.350  18.640  16.840
  824BOLB   PO219766  23.570  18.880  17.030
  824BOLB   GL319767  23.170  19.140  17.020
  824BOLB   GL419768  22.930  18.970  17.000
  824BOLB   C1C19769  22.820  19.340  16.760
  824BOLB   C2C19770  22.630  19.590  16.510
  824BOLB   C3C19771  22.250  19.660  16.510
  824BOLB   C4C19772  21.840  19.490  16.430
  824BOLB   C1D19773  22.600  18.910  16.740
  824BOLB   C2D19774  22.300  19.230  16.690
  824BOLB   C3D19775  22.030  19.410  16.850
  824BOLB   C4D19776  21.670  19.310  16.820
  825BOLB   NC119777  19.580  16.780  14.310
  825BOLB   PO119778  19.610  16.660  13.950
  825BOLB   GL119779  19.950  16.430  13.830
  825BOLB   GL219780  20.050  16.480  13.570
  825BOLB   C1A19781  20.160  16.140  14.060
  825BOLB   C2A19782  20.450  15.920  14.150
  825BOLB   C3A19783  20.840  15.870  14.110
  825BOLB   C4A19784  21.270  15.880  14.140
  825BOLB   C1B19785  20.440  16.350  13.510
  825BOLB   C2B19786  20.660  16.300  13.780
  825BOLB   C3B19787  21.100  16.500  13.890
  825BOLB   C4B19788  21.450  16.720  14.050
  825BOLB   NC219789  23.640  15.240  14.140
  825BOLB   PO219790  23.370  15.390  14.540
  825BOLB   GL319791  23.080  15.490  14.780
  825BOLB   GL419792  22.960  15.790  15.000
  825BOLB   C1C19793  22.670  15.500  14.650
  825BOLB   C2C19794  22.490  15.490  14.230
  825BOLB   C3C19795  22.040  15.640  14.110
  825BOLB   C4C19796  21.700  15.860  14.050
  825BOLB   C1D19797  22.460  15.780  15.070
  825BOLB   C2D19798  22.070  15.590  15.020
  825BOLB   C3D19799  21.750  15.300  15.060
  825BOLB   C4D19800  21.710  15.010  15.280
  826BOLB   NC119801  14.420  20.270  21.870
  826BOLB   PO119802  14.070  20.140  22.130
  826BOLB   GL119803  14.210  20.270  22.520
  826BOLB   GL219804  14.480  20.360  22.390
  826BOLB   C1A19805  14.260  20.620  22.720
  826BOLB   C2A19806  14.440  20.790  23.070
  826BOLB   C3A19807  14.720  20.900  23.350
  826BOLB   C4A19808  14.930  21.190  23.530
  826BOLB   C1B19809  14.720  20.510  22.780
  826BOLB   C2B19810  14.930  20.350  23.200
  826BOLB   C3B19811  14.990  20.030  23.510
  826BOLB   C4B19812  15.280  19.920  23.800
  826BOLB   NC219813  15.550  21.620  26.180
  826BOLB   PO219814  15.490  21.540  25.730
  826BOLB   GL319815  15.350  21.950  25.540
  826BOLB   GL419816  15.060  21.810  25.510
  826BOLB   C1C19817  15.360  21.900  25.080
  826BOLB   C2C19818  15.320  21.500  24.840
  826BOLB   C3C19819  15.240  21.510  24.420
  826BOLB   C4C19820  15.140  21.460  23.910
  826BOLB   C1D19821  14.920  21.490  25.200
  826BOLB   C2D19822  14.840  21.400  24.830
  826BOLB   C3D19823  14.500  21.410  24.540
  826BOLB   C4D19824  14.240  21.430  24.270
  827BOLB   NC119825   7.440  15.920  21.130
  827BOLB   PO119826   7.710  15.620  21.150
  827BOLB   GL119827   7.610  15.540  21.500
  827BOLB   GL219828   7.260  15.500  21.420
  827BOLB   C1A19829   7.680  15.260  21.690
  827BOLB   C2A19830   7.640  14.860  21.820
  827BOLB   C3A19831   7.530  14.630  22.140
  827BOLB   C4A19832   7.240  14.490  22.380
  827BOLB   C1B19833   6.970  15.250  21.620
  827BOLB   C2B19834   6.660  15.140  21.920
  827BOLB   C3B19835   6.340  14.980  22.130
  827BOLB   C4B19836   5.990  14.830  22.090
  827BOLB   NC219837   7.570  12.200  23.540
  827BOLB   PO219838   7.230  12.400  23.480
  827BOLB   GL319839   7.100  12.810  23.370
  827BOLB   GL419840   6.750  13.050  23.520
  827BOLB   C1C19841   7.210  13.200  23.170
  827BOLB   C2C19842   7.420  13.580  23.120
  827BOLB   C3C19843   7.330  13.890  22.920
  827BOLB   C4C19844   7.380  14.150  22.540
  827BOLB   C1D19845   6.730  13.160  23.070
  827BOLB   C2D19846   7.040  13.090  22.690
  827BOLB   C3D19847   6.920  13.330  22.370
  827BOLB   C4D19848   7.090  13.570  22.080
  828BOLB   NC119849  12.860  17.020  26.800
  828BOLB   PO119850  12.600  16.740  26.620
  828BOLB   GL119851  12.340  16.670  26.280
  828BOLB   GL219852  12.540  16.850  26.080
  828BOLB   C1A19853  12.330  16.370  25.950
  828BOLB   C2A19854  12.310  16.390  25.500
  828BOLB   C3A19855  12.250  16.450  25.110
  828BOLB   C4A19856  12.190  16.730  24.670
  828BOLB   C1B19857  12.650  16.710  25.780
  828BOLB   C2B19858  12.660  16.780  25.390
  828BOLB   C3B19859  12.430  16.900  25.060
  828BOLB   C4B19860  12.110  17.190  24.930
  828BOLB   NC219861  12.870  16.410  26.290
  828BOLB   PO219862  13.030  16.860  26.340
  828BOLB   GL319863  13.070  17.110  25.990
  828BOLB   GL419864  12.810  17.330  25.920
  828BOLB   C1C19865  13.070  17.120  25.490
  828BOLB   C2C19866  12.800  17.300  25.200
  828BOLB   C3C19867  12.710  17.290  24.750
  828BOLB   C4C19868  12.440  17.100  24.530
  828BOLB   C1D19869  12.550  17.200  25.660
  828BOLB   C2D19870  12.320  17.330  25.360
  828BOLB   C3D19871  12.380  17.570  25.050
  828BOLB   C4D19872  12.350  17.590  24.620
  829BOLB   NC119873  16.450  24.940  12.480
  829BOLB   PO119874  16.830  24.970  12.690
  829BOLB   GL119875  16.940  25.350  12.450
  829BOLB   GL219876  16.570  25.440  12.360
  829BOLB   C1A19877  17.170  25.740  12.170
  829BOLB   C2A19878  17.430  26.170  12.240
  829BOLB   C3A19879  17.730  26.420  12.180
  829BOLB   C4A19880  18.050  26.480  11.990
  829BOLB   C1B19881  16.700  25.890  12.100
  829BOLB   C2B19882  17.010  26.110  11.880
  829BOLB   C3B19883  17.500  26.050  11.770
  829BOLB   C4B19884  17.810  25.950  11.460
  829BOLB   NC219885  18.570  27.830  10.040
  829BOLB   PO219886  18.880  28.020  10.280
  829BOLB   GL319887  18.740  27.670  10.570
  829BOLB   GL419888  18.500  27.700  10.550
  829BOLB   C1C19889  18.600  27.210  10.740
  829BOLB   C2C19890  18.740  26.990  11.120
  829BOLB   C3C19891  18.650  26.880  11.540
  829BOLB   C4C19892  18.340  26.840  11.890
  829BOLB   C1D19893  18.210  27.330  10.380
  829BOLB   C2D19894  18.030  26.940  10.220
  829BOLB   C3D19895  17.670  26.730  10.420
  829BOLB   C4D19896  17.300  26.710  10.400
  830BOLB   NC119897  22.650  15.500  18.500
  830BOLB   PO119898  22.280  15.340  18.830
  830BOLB   GL119899  21.900  15.660  18.860
  830BOLB   GL219900  21.630  15.610  19.120
  830BOLB   C1A19901  21.590  15.800  18.580
  830BOLB   C2A19902  21.640  15.960  18.170
  830BOLB   C3A19903  21.630  16.150  17.690
  830BOLB   C4A19904  21.430  16.250  17.270
  830BOLB   C1B19905  21.200  15.690  18.940
  830BOLB   C2B19906  21.110  15.940  18.600
  830BOLB   C3B19907  21.130  16.100  18.280
  830BOLB   C4B19908  21.410  16.390  18.140
  830BOLB   NC219909  23.450  15.210  16.330
  830BOLB   PO219910  23.120  15.500  16.430
  830BOLB   GL319911  22.810  15.810  16.420
  830BOLB   GL419912  23.000  15.850  16.130
  830BOLB   C1C19913  22.360  15.880  16.300
  830BOLB   C2C19914  21.890  16.020  16.410
  830BOLB   C3C19915  21.600  15.950  16.750
  830BOLB   C4C19916  21.250  16.150  16.910
  830BOLB   C1D19917  22.660  15.690  15.900
  830BOLB   C2D19918  22.460  15.920  15.580
  830BOLB   C3D19919  22.100  16.120  15.450
  830BOLB   C4D19920  21.850  16.420  15.310
  831BOLB   NC119921  18.180  14.670  17.490
  831BOLB   PO119922  18.250  14.390  17.230
  831BOLB   GL119923  18.590  14.230  17.210
  831BOLB   GL219924  18.650  14.020  17.110
  831BOLB   C1A19925  18.830  14.110  17.570
  831BOLB   C2A19926  18.840  13.840  17.910
  831BOLB   C3A19927  18.880  13.460  18.200
  831BOLB   C4A19928  19.120  13.100  18.230
  831BOLB   C1B19929  18.940  13.840  17.170
  831BOLB   C2B19930  19.180  13.590  17.480
  831BOLB   C3B19931  19.240  13.550  17.900
  831BOLB   C4B19932  19.420  13.530  18.360
  831BOLB   NC219933  21.250  12.430  19.000
  831BOLB   PO219934  20.840  12.500  19.110
  831BOLB   GL319935  20.790  12.480  18.730
  831BOLB   GL419936  21.010  12.750  18.670
  831BOLB   C1C19937  20.500  12.620  18.520
  831BOLB   C2C19938  20.130  12.850  18.340
  831BOLB   C3C19939  19.720  12.780  18.290
  831BOLB   C4C19940  19.380  12.850  18.420
  831BOLB   C1D19941  20.870  12.890  18.330
  831BOLB   C2D19942  20.960  13.040  17.890
  831BOLB   C3D19943  21.130  12.900  17.620
  831BOLB   C4D19944  21.250  12.440  17.450
  832BOLB   NC119945  13.610  12.170  11.360
  832BOLB   PO119946  13.620  11.700  11.550
  832BOLB   GL119947  13.830  11.320  11.390
  832BOLB   GL219948  14.120  11.230  11.510
  832BOLB   C1A19949  14.000  11.210  11.020
  832BOLB   C2A19950  14.060  10.830  10.800
  832BOLB   C3A19951  13.900  10.450  10.800
  832BOLB   C4A19952  13.620  10.160  10.840
  832BOLB   C1B19953  14.360  10.900  11.350
  832BOLB   C2B19954  14.360  10.440  11.210
  832BOLB   C3B19955  14.220  10.010  11.160
  832BOLB   C4B19956  14.240   9.540  11.240
  832BOLB   NC219957  13.260   7.490   9.970
  832BOLB   PO219958  13.160   7.520  10.430
  832BOLB   GL319959  13.140   8.070  10.210
  832BOLB   GL419960  13.410   8.130  10.070
  832BOLB   C1C19961  13.190   8.560  10.380
  832BOLB   C2C19962  13.130   9.000  10.430
  832BOLB   C3C19963  13.210   9.260  10.610
  832BOLB   C4C19964  13.500   9.650  10.640
  832BOLB   C1D19965  13.440   8.510   9.910
  832BOLB   C2D19966  13.610   8.890   9.710
  832BOLB   C3D19967  13.490   9.290   9.500
  832BOLB   C4D19968  13.240   9.730   9.610
  833BOLB   NC119969   7.670  30.530  19.790
  833BOLB   PO119970   8.070  30.440  19.530
  833BOLB   GL119971   8.400  30.270  19.300
  833BOLB   GL219972   8.490  29.950  19.480
  833BOLB   C1A19973   8.360  29.820  19.020
  833BOLB   C2A19974   8.340  29.380  19.010
  833BOLB   C3A19975   8.740  29.190  18.960
  833BOLB   C4A19976   9.140  28.950  19.160
  833BOLB   C1B19977   8.740  29.550  19.250
  833BOLB   C2B19978   9.150  29.540  19.150
  833BOLB   C3B19979   9.580  29.700  19.040
  833BOLB   C4B19980   9.830  29.890  18.730
  833BOLB   NC219981   9.740  30.750  19.430
  833BOLB   PO219982   9.320  30.630  19.260
  833BOLB   GL319983   9.500  30.270  19.330
  833BOLB   GL419984   9.330  29.970  19.390
  833BOLB   C1C19985   9.970  30.090  19.250
  833BOLB   C2C19986  10.090  29.630  19.130
  833BOLB   C3C19987   9.860  29.280  19.150
  833BOLB   C4C19988   9.480  29.160  19.130
  833BOLB   C1D19989   9.450  29.550  19.530
  833BOLB   C2D19990   9.620  29.240  19.820
  833BOLB   C3D19991   9.960  29.010  19.870
  833BOLB   C4D19992  10.030  28.540  19.750
  834BOLB   NC119993  16.500  12.270  16.500
  834BOLB   PO119994  16.090  12.520  16.740
  834BOLB   GL119995  16.170  12.140  16.990
  834BOLB   GL219996  16.170  12.220  17.190
  834BOLB   C1A19997  16.420  11.780  17.020
  834BOLB   C2A19998  16.780  11.740  17.190
  834BOLB   C3A19999  17.030  11.670  17.550
  834BOLB   C4A20000  17.160  11.860  17.980
  834BOLB   C1B20001  16.600  12.140  17.370
  834BOLB   C2B20002  16.930  12.120  17.650
  834BOLB   C3B20003  17.230  12.380  17.750
  834BOLB   C4B20004  17.340  12.820  17.640
  834BOLB   NC220005  19.230  10.360  18.330
  834BOLB   PO220006  18.940  10.390  18.650
  834BOLB   GL320007  18.740  10.660  18.390
  834BOLB   GL420008  18.710  10.580  18.110
  834BOLB   C1C20009  18.420  11.020  18.430
  834BOLB   C2C20010  18.140  11.310  18.510
  834BOLB   C3C20011  17.780  11.540  18.290
  834BOLB   C4C20012  17.330  11.730  18.400
  834BOLB   C1D20013  18.390  10.550  17.870
  834BOLB   C2D20014  17.970  10.640  17.670
  834BOLB   C3D20015  17.710  10.800  17.360
  834BOLB   C4D20016  17.600  11.150  17.080
  835BOLB   NC120017  16.450  24.220  12.060
  835BOLB   PO120018  16.570  24.740  12.030
  835BOLB   GL120019  16.870  25.000  12.150
  835BOLB   GL220020  17.230  24.940  12.240
  835BOLB   C1A20021  17.010  25.350  11.900
  835BOLB   C2A20022  17.020  25.700  11.480
  835BOLB   C3A20023  17.140  25.840  11.200
  835BOLB   C4A20024  17.410  26.190  11.300
  835BOLB   C1B20025  17.410  25.280  12.240
  835BOLB   C2B20026  17.650  25.680  12.090
  835BOLB   C3B20027  17.970  25.980  11.960
  835BOLB   C4B20028  18.340  26.030  12.100
  835BOLB   NC220029  18.690  28.240  11.280
  835BOLB   PO220030  18.790  28.280  11.760
  835BOLB   GL320031  18.770  27.830  11.590
  835BOLB   GL420032  18.930  27.520  11.830
  835BOLB   C1C20033  18.580  27.420  11.430
  835BOLB   C2C20034  18.300  27.120  11.320
  835BOLB   C3C20035  18.160  26.750  11.380
  835BOLB   C4C20036  17.780  26.430  11.450
  835BOLB   C1D20037  18.720  27.200  11.930
  835BOLB   C2D20038  18.590  26.990  12.390
  835BOLB   C3D20039  18.400  26.920  12.730
  835BOLB   C4D20040  18.510  26.560  12.940
  836BOLB   NC120041  13.030  16.770  21.290
  836BOLB   PO120042  12.960  16.390  21.560
  836BOLB   GL120043  13.000  16.350  22.030
  836BOLB   GL220044  12.830  16.410  22.290
  836BOLB   C1A20045  13.170  16.040  22.290
  836BOLB   C2A20046  13.030  15.720  22.560
  836BOLB   C3A20047  12.880  15.380  22.900
  836BOLB   C4A20048  12.890  15.060  23.120
  836BOLB   C1B20049  12.830  16.130  22.730
  836BOLB   C2B20050  12.850  15.890  23.060
  836BOLB   C3B20051  12.570  15.930  23.310
  836BOLB   C4B20052  12.650  15.940  23.720
  836BOLB   NC220053  13.610  15.120  25.380
  836BOLB   PO220054  13.540  14.770  25.140
  836BOLB   GL320055  13.200  15.020  24.970
  836BOLB   GL420056  13.180  15.420  25.010
  836BOLB   C1C20057  12.890  15.230  24.700
  836BOLB   C2C20058  12.610  15.350  24.400
  836BOLB   C3C20059  12.470  15.230  24.090
  836BOLB   C4C20060  12.670  14.970  23.560
  836BOLB   C1D20061  13.430  15.560  24.640
  836BOLB   C2D20062  13.610  15.630  24.250
  836BOLB   C3D20063  13.660  15.870  23.860
  836BOLB   C4D20064  13.670  16.080  23.450
  837BOLB   NC120065  18.080  20.480   9.820
  837BOLB   PO120066  18.440  20.600  10.060
  837BOLB   GL120067  18.830  20.720   9.880
  837BOLB   GL220068  19.010  20.360   9.780
  837BOLB   C1A20069  19.200  21.000   9.790
  837BOLB   C2A20070  19.330  21.380   9.420
  837BOLB   C3A20071  19.600  21.660   9.390
  837BOLB   C4A20072  19.630  22.030   9.400
  837BOLB   C1B20073  19.340  20.590   9.560
  837BOLB   C2B20074  19.580  20.540   9.180
  837BOLB   C3B20075  19.800  20.240   8.920
  837BOLB   C4B20076  20.150  19.990   8.690
  837BOLB   NC220077  22.160  22.510   9.050
  837BOLB   PO220078  21.760  22.760   8.980
  837BOLB   GL320079  21.300  22.830   8.840
  837BOLB   GL420080  21.230  22.970   8.530
  837BOLB   C1C20081  21.010  22.610   8.890
  837BOLB   C2C20082  20.530  22.330   8.930
  837BOLB   C3C20083  20.260  22.330   9.290
  837BOLB   C4C20084  19.810  22.320   9.340
  837BOLB   C1D20085  20.820  22.930   8.590
  837BOLB   C2D20086  20.510  22.780   8.810
  837BOLB   C3D20087  20.140  22.820   9.090
  837BOLB   C4D20088  19.800  23.080   9.330
  838BOLB   NC120089  19.140  19.410  12.720
  838BOLB   PO120090  19.590  19.360  12.620
  838BOLB   GL120091  19.950  19.550  12.440
  838BOLB   GL220092  20.310  19.340  12.520
  838BOLB   C1A20093  20.260  19.780  12.300
  838BOLB   C2A20094  20.620  19.920  12.450
  838BOLB   C3A20095  20.910  19.990  12.870
  838BOLB   C4A20096  21.360  19.990  13.140
  838BOLB   C1B20097  20.720  19.440  12.690
  838BOLB   C2B20098  21.070  19.530  12.950
  838BOLB   C3B20099  21.510  19.460  13.110
  838BOLB   C4B20100  21.900  19.500  13.020
  838BOLB   NC220101  24.240  20.060  13.520
  838BOLB   PO220102  23.870  19.950  13.830
  838BOLB   GL320103  23.480  19.960  13.720
  838BOLB   GL420104  23.450  20.300  13.580
  838BOLB   C1C20105  23.080  19.980  13.380
  838BOLB   C2C20106  22.590  20.040  13.260
  838BOLB   C3C20107  22.120  20.080  13.200
  838BOLB   C4C20108  21.730  20.060  13.320
  838BOLB   C1D20109  23.090  20.320  13.810
  838BOLB   C2D20110  22.690  20.140  13.840
  838BOLB   C3D20111  22.270  20.050  13.750
  838BOLB   C4D20112  21.830  19.880  13.830
  839BOLB   NC120113  16.240  15.820  19.360
  839BOLB   PO120114  16.590  15.660  19.620
  839BOLB   GL120115  16.970  15.340  19.880
  839BOLB   GL220116  16.940  15.280  20.220
  839BOLB   C1A20117  17.250  14.920  20.070
  839BOLB   C2A20118  17.640  14.900  20.220
  839BOLB   C3A20119  17.840  15.000  20.540
  839BOLB   C4A20120  18.160  15.060  20.830
  839BOLB   C1B20121  17.280  15.110  20.590
  839BOLB   C2B20122  17.510  15.010  20.960
  839BOLB   C3B20123  17.640  15.100  21.340
  839BOLB   C4B20124  17.420  15.070  21.750
  839BOLB   NC220125  20.190  15.010  22.360
  839BOLB   PO220126  19.780  14.980  22.550
  839BOLB   GL320127  19.400  15.050  22.440
  839BOLB   GL420128  19.370  15.360  22.400
  839BOLB   C1C20129  19.090  14.900  22.180
  839BOLB   C2C20130  18.890  15.110  21.900
  839BOLB   C3C20131  18.720  15.080  21.490
  839BOLB   C4C20132  18.560  14.990  21.020
  839BOLB   C1D20133  19.360  15.440  21.910
  839BOLB   C2D20134  18.970  15.490  21.580
  839BOLB   C3D20135  18.560  15.670  21.480
  839BOLB   C4D20136  18.290  15.810  21.180
  840BOLB   NC120137  22.900  24.680  15.630
  840BOLB   PO120138  22.480  24.580  15.700
  840BOLB   GL120139  22.110  24.550  15.520
  840BOLB   GL220140  22.020  24.250  15.300
  840BOLB   C1A20141  21.820  24.780  15.140
  840BOLB   C2A20142  21.570  24.350  14.970
  840BOLB   C3A20143  21.240  24.150  14.880
  840BOLB   C4A20144  20.940  24.060  14.590
  840BOLB   C1B20145  21.680  24.310  15.510
  840BOLB   C2B20146  21.300  24.470  15.390
  840BOLB   C3B20147  21.210  24.750  15.010
  840BOLB   C4B20148  21.080  24.970  14.650
  840BOLB   NC220149  22.210  25.000  13.160
  840BOLB   PO220150  22.280  24.640  13.490
  840BOLB   GL320151  21.950  24.300  13.470
  840BOLB   GL420152  22.120  23.960  13.460
  840BOLB   C1C20153  21.540  24.110  13.240
  840BOLB   C2C20154  21.160  23.980  13.430
  840BOLB   C3C20155  21.100  23.990  13.820
  840BOLB   C4C20156  20.880  23.980  14.290
  840BOLB   C1D20157  22.140  23.830  13.940
  840BOLB   C2D20158  21.920  23.740  14.220
  840BOLB   C3D20159  21.750  23.680  14.540
  840BOLB   C4D20160  21.320  23.690  14.730
  841BOLB   NC120161  18.790  17.330  18.540
  841BOLB   PO120162  18.640  16.980  18.460
  841BOLB   GL120163  18.830  16.800  18.660
  841BOLB   GL220164  19.080  17.060  18.850
  841BOLB   C1A20165  18.890  16.670  19.100
  841BOLB   C2A20166  19.120  16.310  19.300
  841BOLB   C3A20167  19.250  16.020  19.590
  841BOLB   C4A20168  19.380  15.630  19.760
  841BOLB   C1B20169  19.210  17.220  19.230
  841BOLB   C2B20170  19.530  17.250  19.300
  841BOLB   C3B20171  19.740  16.940  19.650
  841BOLB   C4B20172  19.710  16.870  20.120
  841BOLB   NC220173  20.800  14.430  20.990
  841BOLB   PO220174  20.480  14.350  21.220
  841BOLB   GL320175  20.160  14.180  20.900
  841BOLB   GL420176  19.800  14.190  20.980
  841BOLB   C1C20177  19.990  14.230  20.490
  841BOLB   C2C20178  19.700  14.610  20.300
  841BOLB   C3C20179  19.510  14.850  20.150
  841BOLB   C4C20180  19.320  15.280  20.010
  841BOLB   C1D20181  19.800  14.570  20.960
  841BOLB   C2D20182  19.800  14.910  20.670
  841BOLB   C3D20183  19.520  15.160  20.580
  841BOLB   C4D20184  19.220  15.400  20.810
  842BOLB   NC120185  17.610  23.000  11.770
  842BOLB   PO120186  17.950  23.300  11.630
  842BOLB   GL120187  18.330  23.530  11.540
  842BOLB   GL220188  18.640  23.360  11.580
  842BOLB   C1A20189  18.710  23.800  11.400
  842BOLB   C2A20190  18.960  24.070  11.430
  842BOLB   C3A20191  19.040  24.400  11.240
  842BOLB   C4A20192  19.060  24.820  10.900
  842BOLB   C1B20193  18.560  23.380  11.100
  842BOLB   C2B20194  18.650  23.310  10.650
  842BOLB   C3B20195  18.600  23.110  10.350
  842BOLB   C4B20196  18.800  22.980  10.080
  842BOLB   NC220197  19.750  26.540   9.800
  842BOLB   PO220198  19.480  26.540   9.460
  842BOLB   GL320199  19.290  26.370   9.880
  842BOLB   GL420200  19.420  26.580  10.150
  842BOLB   C1C20201  19.140  26.010  10.170
  842BOLB   C2C20202  18.910  25.630  10.120
  842BOLB   C3C20203  18.800  25.420  10.520
  842BOLB   C4C20204  18.920  25.150  10.810
  842BOLB   C1D20205  18.980  26.500  10.290
  842BOLB   C2D20206  18.640  26.350  10.460
  842BOLB   C3D20207  18.610  26.250  10.930
  842BOLB   C4D20208  18.580  25.920  11.210
  843BOLB   NC120209  21.490  21.090   7.400
  843BOLB   PO120210  21.790  20.980   7.780
  843BOLB   GL120211  21.360  21.130   7.890
  843BOLB   GL220212  21.110  21.060   7.730
  843BOLB   C1A20213  21.190  21.010   8.370
  843BOLB   C2A20214  21.200  20.790   8.840
  843BOLB   C3A20215  21.000  20.390   8.800
  843BOLB   C4A20216  20.610  20.250   8.600
  843BOLB   C1B20217  20.760  20.950   7.940
  843BOLB   C2B20218  20.470  21.050   8.250
  843BOLB   C3B20219  20.210  20.810   8.440
  843BOLB   C4B20220  19.840  20.700   8.650
  843BOLB   NC220221  20.840  20.520   6.360
  843BOLB   PO220222  20.840  20.210   6.590
  843BOLB   GL320223  20.720  20.220   6.900
  843BOLB   GL420224  20.390  20.120   6.820
  843BOLB   C1C20225  20.590  20.320   7.330
  843BOLB   C2C20226  20.130  20.250   7.560
  843BOLB   C3C20227  20.180  20.180   7.980
  843BOLB   C4C20228  20.270  20.240   8.300
  843BOLB   C1D20229  20.190  20.010   7.120
  843BOLB   C2D20230  20.290  19.760   7.540
  843BOLB   C3D20231  20.640  20.000   7.750
  843BOLB   C4D20232  20.800  20.100   8.130
  844BOLB   NC120233  18.940  19.010  16.240
  844BOLB   PO120234  19.190  19.080  16.590
  844BOLB   GL120235  19.590  19.110  16.740
  844BOLB   GL220236  19.950  19.190  16.580
  844BOLB   C1A20237  19.940  19.060  17.080
  844BOLB   C2A20238  20.340  18.940  17.220
  844BOLB   C3A20239  20.650  18.840  17.630
  844BOLB   C4A20240  21.000  18.720  17.920
  844BOLB   C1B20241  20.320  19.090  16.740
  844BOLB   C2B20242  20.730  19.170  17.000
  844BOLB   C3B20243  21.020  19.280  17.300
  844BOLB   C4B20244  21.210  19.030  17.560
  844BOLB   NC220245  23.440  18.910  17.970
  844BOLB   PO220246  23.280  19.300  18.160
  844BOLB   GL320247  22.870  19.220  18.150
  844BOLB   GL420248  22.670  19.400  18.440
  844BOLB   C1C20249  22.510  18.970  18.070
  844BOLB   C2C20250  22.150  19.040  17.760
  844BOLB   C3C20251  21.720  18.880  17.800
  844BOLB   C4C20252  21.420  18.680  18.030
  844BOLB   C1D20253  22.330  19.520  18.130
  844BOLB   C2D20254  21.930  19.550  17.970
  844BOLB   C3D20255  21.810  19.360  17.660
  844BOLB   C4D20256  21.490  19.380  17.340
  845BOLB   NC120257  17.430  19.600  19.290
  845BOLB   PO120258  17.850  19.760  19.620
  845BOLB   GL120259  18.260  19.700  19.800
  845BOLB   GL220260  18.200  19.970  19.890
  845BOLB   C1A20261  18.680  19.730  20.040
  845BOLB   C2A20262  19.010  19.600  20.370
  845BOLB   C3A20263  19.480  19.570  20.510
  845BOLB   C4A20264  19.370  19.250  20.870
  845BOLB   C1B20265  18.230  19.770  20.320
  845BOLB   C2B20266  18.520  19.640  20.560
  845BOLB   C3B20267  18.600  19.920  20.960
  845BOLB   C4B20268  18.660  20.310  20.880
  845BOLB   NC220269  20.300  19.470  23.340
  845BOLB   PO220270  20.020  19.370  23.070
  845BOLB   GL320271  20.060  19.530  22.600
  845BOLB   GL420272  20.090  19.230  22.340
  845BOLB   C1C20273  19.970  19.740  22.170
  845BOLB   C2C20274  19.700  19.540  21.930
  845BOLB   C3C20275  19.440  19.350  21.620
  845BOLB   C4C20276  19.320  19.400  21.250
  845BOLB   C1D20277  19.640  19.170  22.290
  845BOLB   C2D20278  19.250  19.240  22.080
  845BOLB   C3D20279  18.870  19.030  22.210
  845BOLB   C4D20280  18.890  18.960  22.600
  846BOLB   NC120281  14.700  15.860  25.640
  846BOLB   PO120282  14.600  15.420  25.510
  846BOLB   GL120283  14.610  15.480  25.100
  846BOLB   GL220284  14.290  15.580  25.080
  846BOLB   C1A20285  14.620  15.580  24.650
  846BOLB   C2A20286  14.580  15.650  24.190
  846BOLB   C3A20287  14.620  15.570  23.720
  846BOLB   C4A20288  14.650  15.900  23.510
  846BOLB   C1B20289  14.230  15.900  24.740
  846BOLB   C2B20290  14.380  16.170  24.650
  846BOLB   C3B20291  14.770  16.130  24.430
  846BOLB   C4B20292  14.760  16.130  23.980
  846BOLB   NC220293  15.330  16.570  25.200
  846BOLB   PO220294  15.190  16.140  25.250
  846BOLB   GL320295  15.060  16.240  24.860
  846BOLB   GL420296  15.470  16.320  24.760
  846BOLB   C1C20297  15.230  16.030  24.480
  846BOLB   C2C20298  15.320  16.170  24.060
  846BOLB   C3C20299  15.240  16.110  23.610
  846BOLB   C4C20300  14.930  16.080  23.410
  846BOLB   C1D20301  15.280  16.510  24.450
  846BOLB   C2D20302  14.920  16.570  24.120
  846BOLB   C3D20303  14.970  16.560  23.790
  846BOLB   C4D20304  14.590  16.420  23.570
  847BOLB   NC120305  16.990  23.520  10.040
  847BOLB   PO120306  16.820  23.170   9.880
  847BOLB   GL120307  17.260  23.340   9.690
  847BOLB   GL220308  17.400  23.660   9.820
  847BOLB   C1A20309  17.390  23.570   9.340
  847BOLB   C2A20310  17.260  23.750   8.860
  847BOLB   C3A20311  17.510  24.100   8.650
  847BOLB   C4A20312  17.480  24.160   8.170
  847BOLB   C1B20313  17.790  23.930   9.920
  847BOLB   C2B20314  18.220  23.690   9.800
  847BOLB   C3B20315  18.690  23.480   9.950
  847BOLB   C4B20316  19.170  23.360   9.990
  847BOLB   NC220317  18.730  25.740   7.240
  847BOLB   PO220318  19.070  25.440   7.160
  847BOLB   GL320319  18.730  25.290   7.420
  847BOLB   GL420320  18.810  25.050   7.670
  847BOLB   C1C20321  18.390  25.040   7.360
  847BOLB   C2C20322  18.060  24.780   7.400
  847BOLB   C3C20323  17.850  24.470   7.590
  847BOLB   C4C20324  17.600  24.260   7.760
  847BOLB   C1D20325  18.400  24.960   7.920
  847BOLB   C2D20326  18.010  24.820   7.910
  847BOLB   C3D20327  17.660  24.620   8.070
  847BOLB   C4D20328  17.590  24.600   8.500
  848BOLB   NC120329  23.860  19.820  12.920
  848BOLB   PO120330  23.770  19.970  13.290
  848BOLB   GL120331  23.390  20.090  13.010
  848BOLB   GL220332  23.370  19.930  12.730
  848BOLB   C1A20333  23.060  20.290  13.000
  848BOLB   C2A20334  22.780  20.260  12.830
  848BOLB   C3A20335  22.480  20.190  12.590
  848BOLB   C4A20336  22.570  20.000  12.280
  848BOLB   C1B20337  23.160  19.860  12.480
  848BOLB   C2B20338  22.990  19.680  12.110
  848BOLB   C3B20339  22.730  19.360  11.890
  848BOLB   C4B20340  22.500  18.920  11.850
  848BOLB   NC220341  23.720  18.750  11.490
  848BOLB   PO220342  23.930  19.100  11.780
  848BOLB   GL320343  23.580  19.060  11.890
  848BOLB   GL420344  23.460  18.790  11.960
  848BOLB   C1C20345  23.210  19.210  11.700
  848BOLB   C2C20346  23.030  19.480  11.400
  848BOLB   C3C20347  22.710  19.780  11.450
  848BOLB   C4C20348  22.570  19.800  11.850
  848BOLB   C1D20349  23.010  18.680  11.800
  848BOLB   C2D20350  22.620  18.520  11.590
  848BOLB   C3D20351  22.480  18.110  11.560
  848BOLB   C4D20352  22.300  17.780  11.570
  849BOLB   NC120353  11.700  13.140  19.970
  849BOLB   PO120354  12.120  13.230  19.840
  849BOLB   GL120355  12.190  13.040  20.190
  849BOLB   GL220356  11.890  12.900  20.380
  849BOLB   C1A20357  12.370  12.820  20.510
  849BOLB   C2A20358  12.770  12.730  20.600
  849BOLB   C3A20359  13.120  12.550  20.840
  849BOLB   C4A20360  13.290  12.040  20.870
  849BOLB   C1B20361  11.880  12.760  20.830
  849BOLB   C2B20362  11.980  12.640  21.250
  849BOLB   C3B20363  11.670  12.400  21.530
  849BOLB   C4B20364  11.420  12.100  21.710
  849BOLB   NC220365  14.900   9.770  21.540
  849BOLB   PO220366  14.690  10.090  21.750
  849BOLB   GL320367  14.440  10.260  21.490
  849BOLB   GL420368  14.480  10.240  21.160
  849BOLB   C1C20369  14.080  10.550  21.220
  849BOLB   C2C20370  13.970  10.980  21.050
  849BOLB   C3C20371  13.760  11.380  20.970
  849BOLB   C4C20372  13.450  11.650  20.890
  849BOLB   C1D20373  14.440  10.530  20.870
  849BOLB   C2D20374  14.340  10.810  20.630
  849BOLB   C3D20375  14.450  11.340  20.470
  849BOLB   C4D20376  14.350  11.540  20.040
  850BOLB   NC120377  13.810  24.610  20.770
  850BOLB   PO120378  13.410  24.270  20.950
  850BOLB   GL120379  13.570  24.550  21.240
  850BOLB   GL220380  13.860  24.670  21.250
  850BOLB   C1A20381  13.580  24.650  21.700
  850BOLB   C2A20382  13.900  24.940  21.840
  850BOLB   C3A20383  14.050  25.370  21.940
  850BOLB   C4A20384  14.340  25.530  22.180
  850BOLB   C1B20385  14.040  25.070  21.380
  850BOLB   C2B20386  14.110  25.430  21.410
  850BOLB   C3B20387  14.280  25.730  21.670
  850BOLB   C4B20388  14.390  25.960  21.970
  850BOLB   NC220389  15.410  26.360  24.150
  850BOLB   PO220390  14.860  26.450  24.140
  850BOLB   GL320391  14.590  26.470  23.810
  850BOLB   GL420392  14.780  26.110  23.500
  850BOLB   C1C20393  14.300  26.370  23.480
  850BOLB   C2C20394  14.110  26.020  23.330
  850BOLB   C3C20395  14.230  25.780  22.930
  850BOLB   C4C20396  14.460  25.640  22.570
  850BOLB   C1D20397  14.690  25.970  23.100
  850BOLB   C2D20398  14.770  26.070  22.690
  850BOLB   C3D20399  14.940  25.950  22.270
  850BOLB   C4D20400  15.360  26.190  22.120
  851BOLB   NC120401  19.880   9.890  12.790
  851BOLB   PO120402  19.780  10.250  12.470
  851BOLB   GL120403  19.400  10.490  12.530
  851BOLB   GL220404  19.300  10.800  12.300
  851BOLB   C1A20405  19.270  10.730  12.870
  851BOLB   C2A20406  19.060  10.660  13.220
  851BOLB   C3A20407  18.960  10.620  13.650
  851BOLB   C4A20408  18.860  10.890  14.070
  851BOLB   C1B20409  18.960  10.620  12.190
  851BOLB   C2B20410  18.680  10.720  11.820
  851BOLB   C3B20411  18.270  10.780  11.990
  851BOLB   C4B20412  17.910  11.020  12.110
  851BOLB   NC220413  17.210  12.860  13.770
  851BOLB   PO220414  16.770  12.620  13.800
  851BOLB   GL320415  17.150  12.360  13.990
  851BOLB   GL420416  17.420  12.420  13.760
  851BOLB   C1C20417  17.580  12.200  14.180
  851BOLB   C2C20418  17.930  11.860  14.300
  851BOLB   C3C20419  18.240  11.500  14.510
  851BOLB   C4C20420  18.470  11.160  14.260
  851BOLB   C1D20421  17.720  12.250  13.660
  851BOLB   C2D20422  18.030  12.050  13.760
  851BOLB   C3D20423  18.410  12.070  14.130
  851BOLB   C4D20424  18.900  11.890  14.220
  852BOLB   NC120425  18.670  22.530  11.360
  852BOLB   PO120426  18.850  22.160  11.180
  852BOLB   GL120427  19.270  22.220  11.000
  852BOLB   GL220428  19.430  21.950  10.930
  852BOLB   C1A20429  19.560  22.470  10.760
  852BOLB   C2A20430  19.670  22.790  10.530
  852BOLB   C3A20431  20.000  22.960  10.370
  852BOLB   C4A20432  20.520  22.880  10.470
  852BOLB   C1B20433  19.850  22.050  10.840
  852BOLB   C2B20434  20.210  22.320  11.060
  852BOLB   C3B20435  20.590  22.300  11.460
  852BOLB   C4B20436  20.960  22.480  11.680
  852BOLB   NC220437  22.690  21.930   9.490
  852BOLB   PO220438  22.530  22.260   9.230
  852BOLB   GL320439  22.080  22.120   9.440
  852BOLB   GL420440  22.160  21.880   9.640
  852BOLB   C1C20441  21.750  22.350   9.640
  852BOLB   C2C20442  21.540  22.710   9.930
  852BOLB   C3C20443  21.120  22.670   9.930
  852BOLB   C4C20444  20.800  22.630  10.340
  852BOLB   C1D20445  21.680  21.850   9.710
  852BOLB   C2D20446  21.730  21.680  10.120
  852BOLB   C3D20447  21.980  21.340  10.300
  852BOLB   C4D20448  22.070  20.960  10.060
  853BOLB   NC120449  16.440  15.430  20.090
  853BOLB   PO120450  16.030  15.320  20.120
  853BOLB   GL120451  16.080  15.160  20.480
  853BOLB   GL220452  16.080  14.840  20.570
  853BOLB   C1A20453  16.270  15.070  20.940
  853BOLB   C2A20454  16.510  14.900  21.180
  853BOLB   C3A20455  16.740  14.530  21.460
  853BOLB   C4A20456  17.170  14.470  21.480
  853BOLB   C1B20457  16.510  14.730  20.710
  853BOLB   C2B20458  16.820  14.580  20.960
  853BOLB   C3B20459  17.300  14.520  20.990
  853BOLB   C4B20460  17.490  14.600  20.590
  853BOLB   NC220461  18.080  13.370  22.860
  853BOLB   PO220462  18.320  12.950  22.710
  853BOLB   GL320463  18.110  13.120  22.380
  853BOLB   GL420464  18.230  13.350  22.350
  853BOLB   C1C20465  17.720  13.360  22.270
  853BOLB   C2C20466  17.750  13.820  22.390
  853BOLB   C3C20467  17.670  14.110  22.140
  853BOLB   C4C20468  17.430  14.390  21.840
  853BOLB   C1D20469  18.120  13.470  21.980
  853BOLB   C2D20470  17.750  13.670  21.800
  853BOLB   C3D20471  17.330  13.640  21.390
  853BOLB   C4D20472  17.290  13.660  20.980
  854BOLB   NC120473  19.160  17.380  13.630
  854BOLB   PO120474  19.400  17.000  13.620
  854BOLB   GL120475  19.850  16.940  13.450
  854BOLB   GL220476  20.050  16.900  13.700
  854BOLB   C1A20477  20.090  16.810  13.120
  854BOLB   C2A20478  20.630  16.850  13.020
  854BOLB   C3A20479  20.980  16.840  12.880
  854BOLB   C4A20480  21.250  16.550  12.720
  854BOLB   C1B20481  20.430  16.930  13.650
  854BOLB   C2B20482  20.770  16.690  13.460
  854BOLB   C3B20483  21.140  16.600  13.350
  854BOLB   C4B20484  21.620  16.640  13.510
  854BOLB   NC220485  23.800  15.990  12.670
  854BOLB   PO220486  23.480  16.000  12.320
  854BOLB   GL320487  23.060  15.890  12.380
  854BOLB   GL420488  22.980  15.930  12.740
  854BOLB   C1C20489  22.680  15.850  12.270
  854BOLB   C2C20490  22.230  15.970  12.240
  854BOLB   C3C20491  21.850  16.120  12.400
  854BOLB   C4C20492  21.600  16.310  12.730
  854BOLB   C1D20493  22.810  16.180  13.130
  854BOLB   C2D20494  22.380  16.330  13.220
  854BOLB   C3D20495  22.090  16.460  13.490
  854BOLB   C4D20496  21.870  16.360  13.850
  855BOLB   NC120497  13.620  24.000  26.090
  855BOLB   PO120498  13.520  23.540  25.930
  855BOLB   GL120499  13.400  23.180  25.660
  855BOLB   GL220500  13.420  22.850  25.780
  855BOLB   C1A20501  13.230  22.990  25.320
  855BOLB   C2A20502  13.260  22.940  24.910
  855BOLB   C3A20503  13.030  23.030  24.570
  855BOLB   C4A20504  12.770  23.300  24.470
  855BOLB   C1B20505  13.030  22.600  25.560
  855BOLB   C2B20506  12.780  22.350  25.190
  855BOLB   C3B20507  12.980  22.060  24.880
  855BOLB   C4B20508  13.170  22.090  24.460
  855BOLB   NC220509  13.340  24.350  25.920
  855BOLB   PO220510  13.300  24.410  25.510
  855BOLB   GL320511  13.180  24.260  25.210
  855BOLB   GL420512  13.090  24.480  25.040
  855BOLB   C1C20513  12.910  23.930  25.190
  855BOLB   C2C20514  12.560  23.890  25.140
  855BOLB   C3C20515  12.420  23.880  24.800
  855BOLB   C4C20516  12.480  23.660  24.530
  855BOLB   C1D20517  13.060  24.550  24.600
  855BOLB   C2D20518  13.180  24.500  24.150
  855BOLB   C3D20519  12.970  24.710  23.890
  855BOLB   C4D20520  12.910  25.160  23.740
  856BOLB   NC120521  23.270  20.150  17.130
  856BOLB   PO120522  23.360  19.830  16.820
  856BOLB   GL120523  22.880  19.710  17.040
  856BOLB   GL220524  22.880  19.490  17.290
  856BOLB   C1A20525  22.460  19.660  16.980
  856BOLB   C2A20526  22.090  19.550  17.300
  856BOLB   C3A20527  21.700  19.780  17.470
  856BOLB   C4A20528  21.350  19.740  17.750
  856BOLB   C1B20529  22.550  19.460  17.620
  856BOLB   C2B20530  22.190  19.850  17.670
  856BOLB   C3B20531  21.970  20.250  17.520
  856BOLB   C4B20532  21.920  20.600  17.650
  856BOLB   NC220533  23.180  19.360  18.620
  856BOLB   PO220534  23.180  19.010  18.950
  856BOLB   GL320535  22.770  19.060  18.820
  856BOLB   GL420536  22.540  19.140  19.030
  856BOLB   C1C20537  22.340  18.940  18.540
  856BOLB   C2C20538  22.090  19.060  18.270
  856BOLB   C3C20539  21.710  19.120  18.260
  856BOLB   C4C20540  21.400  19.280  18.040
  856BOLB   C1D20541  22.330  19.520  18.750
  856BOLB   C2D20542  22.000  19.430  18.520
  856BOLB   C3D20543  21.650  19.580  18.350
  856BOLB   C4D20544  21.390  19.830  18.280
  857BOLB   NC120545  17.270  24.510  12.740
  857BOLB   PO120546  17.500  24.160  12.640
  857BOLB   GL120547  17.610  24.330  12.340
  857BOLB   GL220548  17.700  24.160  12.040
  857BOLB   C1A20549  17.900  24.720  12.150
  857BOLB   C2A20550  18.190  25.020  11.890
  857BOLB   C3A20551  18.550  25.260  11.700
  857BOLB   C4A20552  18.850  25.480  11.390
  857BOLB   C1B20553  18.060  24.250  11.990
  857BOLB   C2B20554  18.540  24.270  11.900
  857BOLB   C3B20555  18.950  24.470  12.000
  857BOLB   C4B20556  19.160  24.420  11.720
  857BOLB   NC220557  20.580  26.980  11.040
  857BOLB   PO220558  20.520  26.870  10.600
  857BOLB   GL320559  20.350  26.580  10.840
  857BOLB   GL420560  20.080  26.620  10.780
  857BOLB   C1C20561  20.170  26.270  11.200
  857BOLB   C2C20562  19.830  26.030  11.340
  857BOLB   C3C20563  19.560  25.980  11.480
  857BOLB   C4C20564  19.170  25.790  11.520
  857BOLB   C1D20565  19.720  26.410  11.000
  857BOLB   C2D20566  19.440  26.310  11.060
  857BOLB   C3D20567  19.070  26.050  11.160
  857BOLB   C4D20568  18.960  25.640  10.950
  858BOLB   NC120569  18.980  19.070  15.650
  858BOLB   PO120570  19.420  19.260  15.810
  858BOLB   GL120571  19.880  19.350  15.630
  858BOLB   GL220572  19.950  19.470  15.900
  858BOLB   C1A20573  20.370  19.170  15.730
  858BOLB   C2A20574  20.800  19.150  15.820
  858BOLB   C3A20575  21.000  19.240  16.060
  858BOLB   C4A20576  21.380  19.060  16.250
  858BOLB   C1B20577  20.300  19.620  15.870
  858BOLB   C2B20578  20.700  19.620  15.870
  858BOLB   C3B20579  21.090  19.780  15.950
  858BOLB   C4B20580  21.450  19.890  15.900
  858BOLB   NC220581  23.940  18.890  17.790
  858BOLB   PO220582  23.470  18.780  17.520
  858BOLB   GL320583  23.100  18.660  17.330
  858BOLB   GL420584  23.050  18.260  17.160
  858BOLB   C1C20585  22.680  18.540  17.160
  858BOLB   C2C20586  22.300  18.690  17.060
  858BOLB   C3C20587  21.950  18.700  16.800
  858BOLB   C4C20588  21.620  18.860  16.560
  858BOLB   C1D20589  22.690  18.040  17.300
  858BOLB   C2D20590  22.280  18.240  17.350
  858BOLB   C3D20591  21.930  18.660  17.360
  858BOLB   C4D20592  21.970  19.080  17.240
  859BOLB   NC120593  16.600  13.560  17.680
  859BOLB   PO120594  16.290  13.320  17.840
  859BOLB   GL120595  16.540  12.950  18.010
  859BOLB   GL220596  16.410  12.650  18.160
  859BOLB   C1A20597  16.890  12.730  18.200
  859BOLB   C2A20598  17.160  12.420  18.290
  859BOLB   C3A20599  17.570  12.150  18.210
  859BOLB   C4A20600  18.020  12.050  18.450
  859BOLB   C1B20601  16.480  12.390  18.540
  859BOLB   C2B20602  16.360  12.080  18.770
  859BOLB   C3B20603  16.210  11.800  19.030
  859BOLB   C4B20604  16.160  11.770  19.520
  859BOLB   NC220605  19.950  12.000  20.150
  859BOLB   PO220606  20.150  11.990  19.770
  859BOLB   GL320607  19.700  11.960  19.630
  859BOLB   GL420608  19.370  11.940  19.840
  859BOLB   C1C20609  19.290  11.860  19.350
  859BOLB   C2C20610  19.070  11.750  18.960
  859BOLB   C3C20611  18.700  11.750  18.780
  859BOLB   C4C20612  18.420  11.890  18.640
  859BOLB   C1D20613  18.920  11.830  19.580
  859BOLB   C2D20614  18.690  12.110  19.290
  859BOLB   C3D20615  18.560  12.270  18.940
  859BOLB   C4D20616  18.480  12.360  18.470
  860BOLB   NC120617  16.170  12.330  12.570
  860BOLB   PO120618  16.110  12.260  13.040
  860BOLB   GL120619  16.500  12.360  12.990
  860BOLB   GL220620  16.670  12.500  12.690
  860BOLB   C1A20621  16.880  11.980  12.980
  860BOLB   C2A20622  17.190  11.780  13.010
  860BOLB   C3A20623  17.350  11.440  13.140
  860BOLB   C4A20624  17.810  11.260  13.270
  860BOLB   C1B20625  16.940  12.250  12.580
  860BOLB   C2B20626  17.220  11.900  12.540
  860BOLB   C3B20627  17.600  11.720  12.410
  860BOLB   C4B20628  17.930  11.470  12.370
  860BOLB   NC220629  18.900   9.190  13.170
  860BOLB   PO220630  19.130   9.570  12.980
  860BOLB   GL320631  18.880   9.800  12.750
  860BOLB   GL420632  18.600   9.780  12.520
  860BOLB   C1C20633  18.590  10.210  12.960
  860BOLB   C2C20634  18.410  10.450  13.330
  860BOLB   C3C20635  18.150  10.680  13.390
  860BOLB   C4C20636  18.120  11.110  13.420
  860BOLB   C1D20637  18.280   9.860  12.860
  860BOLB   C2D20638  18.050  10.120  12.920
  860BOLB   C3D20639  18.270  10.550  12.880
  860BOLB   C4D20640  18.350  10.950  12.980
  861BOLB   NC120641   9.570  11.650  18.170
  861BOLB   PO120642   9.200  11.770  17.950
  861BOLB   GL120643   8.990  11.500  18.260
  861BOLB   GL220644   9.250  11.320  18.390
  861BOLB   C1A20645   8.700  11.280  18.280
  861BOLB   C2A20646   8.710  10.900  18.490
  861BOLB   C3A20647   8.430  10.580  18.400
  861BOLB   C4A20648   8.180  10.210  18.220
  861BOLB   C1B20649   9.380  11.290  18.820
  861BOLB   C2B20650   9.490  10.940  19.060
  861BOLB   C3B20651   9.440  10.530  18.890
  861BOLB   C4B20652   9.470  10.360  18.530
  861BOLB   NC220653   7.300   8.020  18.830
  861BOLB   PO220654   7.110   8.450  18.820
  861BOLB   GL320655   6.920   8.690  18.500
  861BOLB   GL420656   6.970   8.590  18.310
  861BOLB   C1C20657   6.980   9.120  18.470
  861BOLB   C2C20658   7.210   9.460  18.260
  861BOLB   C3C20659   7.560   9.760  18.170
  861BOLB   C4C20660   7.890   9.950  18.240
  861BOLB   C1D20661   7.270   9.020  18.080
  861BOLB   C2D20662   7.300   9.250  17.680
  861BOLB   C3D20663   7.500   9.290  17.260
  861BOLB   C4D20664   7.560   9.660  16.960
  862BOLB   NC120665  15.890  13.370  18.480
  862BOLB   PO120666  16.020  13.660  18.760
  862BOLB   GL120667  16.290  13.350  18.830
  862BOLB   GL220668  16.590  13.430  18.810
  862BOLB   C1A20669  16.470  13.000  18.880
  862BOLB   C2A20670  16.540  12.550  19.020
  862BOLB   C3A20671  16.780  12.250  19.050
  862BOLB   C4A20672  16.970  11.890  19.080
  862BOLB   C1B20673  16.820  13.260  19.080
  862BOLB   C2B20674  16.900  12.880  19.230
  862BOLB   C3B20675  17.200  12.580  19.390
  862BOLB   C4B20676  17.310  12.190  19.290
  862BOLB   NC220677  17.310  10.940  21.330
  862BOLB   PO220678  17.150  10.560  21.370
  862BOLB   GL320679  16.900  10.770  21.070
  862BOLB   GL420680  16.800  10.830  20.810
  862BOLB   C1C20681  17.120  11.170  20.640
  862BOLB   C2C20682  17.050  11.420  20.170
  862BOLB   C3C20683  17.090  11.410  19.730
  862BOLB   C4C20684  17.030  11.600  19.350
  862BOLB   C1D20685  16.540  10.580  20.460
  862BOLB   C2D20686  16.190  10.420  20.430
  862BOLB   C3D20687  15.750  10.660  20.410
  862BOLB   C4D20688  15.310  10.810  20.330
  863BOLB   NC120689  16.700  22.740   9.750
  863BOLB   PO120690  16.930  22.280   9.580
  863BOLB   GL120691  17.130  22.510   9.300
  863BOLB   GL220692  17.490  22.690   9.440
  863BOLB   C1A20693  17.380  22.610   8.870
  863BOLB   C2A20694  17.500  22.920   8.650
  863BOLB   C3A20695  17.830  23.110   8.570
  863BOLB   C4A20696  18.060  23.400   8.230
  863BOLB   C1B20697  17.750  22.740   9.140
  863BOLB   C2B20698  18.100  22.800   8.820
  863BOLB   C3B20699  18.170  22.770   8.410
  863BOLB   C4B20700  18.580  22.600   8.240
  863BOLB   NC220701  18.700  24.730   6.300
  863BOLB   PO220702  18.590  24.320   6.120
  863BOLB   GL320703  18.290  24.410   6.360
  863BOLB   GL420704  17.990  24.390   6.420
  863BOLB   C1C20705  18.240  24.260   6.850
  863BOLB   C2C20706  18.200  24.180   7.190
  863BOLB   C3C20707  18.090  23.710   7.370
  863BOLB   C4C20708  18.020  23.450   7.770
  863BOLB   C1D20709  17.770  24.190   6.710
  863BOLB   C2D20710  17.320  24.000   6.600
  863BOLB   C3D20711  17.210  23.670   6.300
  863BOLB   C4D20712  17.140  23.210   6.360
  864BOLB   NC120713  16.110  27.190   5.720
  864BOLB   PO120714  16.390  26.780   5.760
  864BOLB   GL120715  16.270  26.450   5.930
  864BOLB   GL220716  15.980  26.550   6.040
  864BOLB   C1A20717  16.220  26.170   6.290
  864BOLB   C2A20718  15.930  26.090   6.750
  864BOLB   C3A20719  15.660  26.370   6.850
  864BOLB   C4A20720  15.170  26.390   7.010
  864BOLB   C1B20721  15.740  26.270   6.230
  864BOLB   C2B20722  15.860  25.760   6.300
  864BOLB   C3B20723  15.730  25.530   6.600
  864BOLB   C4B20724  15.690  25.220   6.730
  864BOLB   NC220725  13.950  28.390   7.290
  864BOLB   PO220726  14.160  28.090   7.060
  864BOLB   GL320727  14.220  27.720   7.290
  864BOLB   GL420728  14.440  27.430   7.120
  864BOLB   C1C20729  14.260  27.370   7.560
  864BOLB   C2C20730  14.440  27.010   7.700
  864BOLB   C3C20731  14.730  26.730   7.630
  864BOLB   C4C20732  14.870  26.540   7.290
  864BOLB   C1D20733  14.570  26.960   7.150
  864BOLB   C2D20734  14.350  26.560   7.360
  864BOLB   C3D20735  14.520  26.210   7.580
  864BOLB   C4D20736  14.830  26.110   7.730
  865BOLB   NC120737  22.080  19.530  20.550
  865BOLB   PO120738  22.060  19.110  20.750
  865BOLB   GL120739  21.680  19.240  20.610
  865BOLB   GL220740  21.440  19.370  20.830
  865BOLB   C1A20741  21.180  19.370  20.360
  865BOLB   C2A20742  21.040  19.270  19.980
  865BOLB   C3A20743  20.800  18.960  19.960
  865BOLB   C4A20744  20.860  18.520  20.110
  865BOLB   C1B20745  21.270  19.760  20.880
  865BOLB   C2B20746  20.900  20.090  20.920
  865BOLB   C3B20747  20.560  20.270  21.000
  865BOLB   C4B20748  20.540  20.700  21.250
  865BOLB   NC220749  22.060  18.420  21.380
  865BOLB   PO220750  21.990  18.730  21.640
  865BOLB   GL320751  21.600  18.650  21.400
  865BOLB   GL420752  21.530  18.330  21.190
  865BOLB   C1C20753  21.170  18.340  21.500
  865BOLB   C2C20754  20.810  18.110  21.330
  865BOLB   C3C20755  20.730  18.150  20.880
  865BOLB   C4C20756  20.850  18.110  20.450
  865BOLB   C1D20757  21.260  18.440  21.010
  865BOLB   C2D20758  21.010  18.520  20.710
  865BOLB   C3D20759  20.910  18.930  20.430
  865BOLB   C4D20760  20.690  19.260  20.570
  866BOLB   NC120761   8.000  17.950  22.670
  866BOLB   PO120762   7.670  17.780  22.460
  866BOLB   GL120763   7.380  18.020  22.750
  866BOLB   GL220764   7.560  18.080  23.040
  866BOLB   C1A20765   7.060  17.880  23.080
  866BOLB   C2A20766   6.860  17.750  23.440
  866BOLB   C3A20767   6.540  17.570  23.620
  866BOLB   C4A20768   6.190  17.480  23.840
  866BOLB   C1B20769   7.480  17.700  23.390
  866BOLB   C2B20770   7.230  17.510  23.750
  866BOLB   C3B20771   6.900  17.340  24.010
  866BOLB   C4B20772   6.600  17.500  24.310
  866BOLB   NC220773   3.740  16.420  24.670
  866BOLB   PO220774   3.840  16.960  24.650
  866BOLB   GL320775   4.270  17.280  24.520
  866BOLB   GL420776   4.270  17.400  24.310
  866BOLB   C1C20777   4.750  17.430  24.600
  866BOLB   C2C20778   5.090  17.490  24.410
  866BOLB   C3C20779   5.380  17.350  24.170
  866BOLB   C4C20780   5.770  17.460  23.970
  866BOLB   C1D20781   4.200  17.380  23.910
  866BOLB   C2D20782   4.240  17.390  23.540
  866BOLB   C3D20783   4.430  17.330  23.110
  866BOLB   C4D20784   4.820  17.430  22.970
  867BOLB   NC120785  14.600  15.860  20.840
  867BOLB   PO120786  14.880  16.130  20.910
  867BOLB   GL120787  15.190  16.010  21.190
  867BOLB   GL220788  15.240  16.240  21.350
  867BOLB   C1A20789  15.630  15.810  21.370
  867BOLB   C2A20790  15.810  15.470  21.700
  867BOLB   C3A20791  16.000  15.090  21.980
  867BOLB   C4A20792  15.950  14.660  22.010
  867BOLB   C1B20793  15.310  16.170  21.710
  867BOLB   C2B20794  15.430  15.770  21.970
  867BOLB   C3B20795  15.450  15.640  22.380
  867BOLB   C4B20796  15.700  15.830  22.740
  867BOLB   NC220797  16.510  13.170  23.790
  867BOLB   PO220798  16.560  12.850  23.570
  867BOLB   GL320799  16.490  13.090  23.270
  867BOLB   GL420800  16.220  13.040  23.260
  867BOLB   C1C20801  16.330  13.400  22.930
  867BOLB   C2C20802  16.190  13.780  22.870
  867BOLB   C3C20803  15.850  13.980  22.700
  867BOLB   C4C20804  16.010  14.300  22.370
  867BOLB   C1D20805  15.890  13.150  23.200
  867BOLB   C2D20806  15.550  12.970  22.860
  867BOLB   C3D20807  15.300  13.290  22.620
  867BOLB   C4D20808  15.420  13.710  22.630
  868BOLB   NC120809  19.250  16.560  14.960
  868BOLB   PO120810  19.620  16.750  14.820
  868BOLB   GL120811  19.870  16.460  14.590
  868BOLB   GL220812  20.010  16.540  14.310
  868BOLB   C1A20813  20.270  16.260  14.580
  868BOLB   C2A20814  20.660  16.100  14.590
  868BOLB   C3A20815  20.910  15.810  14.560
  868BOLB   C4A20816  21.120  15.500  14.380
  868BOLB   C1B20817  20.430  16.540  14.110
  868BOLB   C2B20818  20.810  16.450  14.240
  868BOLB   C3B20819  21.090  16.260  14.380
  868BOLB   C4B20820  21.540  16.240  14.290
  868BOLB   NC220821  23.300  15.010  14.800
  868BOLB   PO220822  23.050  14.850  15.090
  868BOLB   GL320823  22.670  14.780  14.800
  868BOLB   GL420824  22.580  14.500  14.780
  868BOLB   C1C20825  22.440  14.920  14.420
  868BOLB   C2C20826  22.230  15.090  14.040
  868BOLB   C3C20827  21.860  15.190  14.070
  868BOLB   C4C20828  21.450  15.430  14.060
  868BOLB   C1D20829  22.170  14.650  14.810
  868BOLB   C2D20830  21.900  14.860  14.800
  868BOLB   C3D20831  21.490  14.860  14.880
  868BOLB   C4D20832  21.100  14.670  14.740
  869BOLB   NC120833  17.310  17.470  20.260
  869BOLB   PO120834  17.460  17.700  19.810
  869BOLB   GL120835  17.880  17.580  20.030
  869BOLB   GL220836  17.790  17.640  20.320
  869BOLB   C1A20837  18.290  17.600  20.180
  869BOLB   C2A20838  18.500  17.780  20.450
  869BOLB   C3A20839  18.810  17.830  20.650
  869BOLB   C4A20840  19.150  17.560  20.980
  869BOLB   C1B20841  17.870  17.470  20.770
  869BOLB   C2B20842  18.250  17.300  20.970
  869BOLB   C3B20843  18.630  17.250  21.040
  869BOLB   C4B20844  18.940  17.060  20.910
  869BOLB   NC220845  20.090  17.570  22.780
  869BOLB   PO220846  20.190  17.120  22.660
  869BOLB   GL320847  20.340  17.170  22.320
  869BOLB   GL420848  20.140  17.530  22.230
  869BOLB   C1C20849  20.310  16.930  21.930
  869BOLB   C2C20850  19.960  17.000  21.700
  869BOLB   C3C20851  19.650  17.130  21.410
  869BOLB   C4C20852  19.470  17.280  21.030
  869BOLB   C1D20853  19.840  17.310  22.200
  869BOLB   C2D20854  19.570  17.260  21.900
  869BOLB   C3D20855  19.150  17.320  21.890
  869BOLB   C4D20856  18.820  17.470  22.130
  870BOLB   NC120857  16.940  13.420  15.220
  870BOLB   PO120858  17.400  13.390  15.300
  870BOLB   GL120859  17.730  13.150  15.210
  870BOLB   GL220860  17.960  13.160  15.400
  870BOLB   C1A20861  17.770  12.810  14.980
  870BOLB   C2A20862  17.960  12.450  15.130
  870BOLB   C3A20863  18.090  12.000  15.260
  870BOLB   C4A20864  18.370  11.670  15.030
  870BOLB   C1B20865  18.170  12.810  15.530
  870BOLB   C2B20866  18.320  12.380  15.570
  870BOLB   C3B20867  18.690  12.120  15.440
  870BOLB   C4B20868  18.800  11.920  15.120
  870BOLB   NC220869  19.630  10.110  14.570
  870BOLB   PO220870  19.770   9.880  14.250
  870BOLB   GL320871  19.560  10.340  14.110
  870BOLB   GL420872  19.790  10.460  14.300
  870BOLB   C1C20873  19.340  10.710  14.170
  870BOLB   C2C20874  19.090  10.980  14.490
  870BOLB   C3C20875  18.870  11.300  14.660
  870BOLB   C4C20876  18.590  11.450  14.890
  870BOLB   C1D20877  19.640  10.760  14.660
  870BOLB   C2D20878  19.620  11.200  14.560
  870BOLB   C3D20879  19.390  11.440  14.870
  870BOLB   C4D20880  19.300  11.810  15.140
  871BOLB   NC120881  17.800  19.390   9.060
  871BOLB   PO120882  17.930  19.780   9.240
  871BOLB   GL120883  18.200  20.090   9.040
  871BOLB   GL220884  18.440  20.100   9.140
  871BOLB   C1A20885  18.350  20.270   8.620
  871BOLB   C2A20886  18.590  20.660   8.350
  871BOLB   C3A20887  18.960  20.740   8.230
  871BOLB   C4A20888  19.440  20.520   8.280
  871BOLB   C1B20889  18.730  20.190   8.960
  871BOLB   C2B20890  19.240  19.970   8.970
  871BOLB   C3B20891  19.520  19.780   8.920
  871BOLB   C4B20892  19.740  19.600   8.630
  871BOLB   NC220893  20.960  20.660   6.880
  871BOLB   PO220894  21.420  20.660   7.000
  871BOLB   GL320895  21.160  20.570   7.310
  871BOLB   GL420896  21.370  20.180   7.520
  871BOLB   C1C20897  21.000  20.510   7.710
  871BOLB   C2C20898  20.570  20.460   7.860
  871BOLB   C3C20899  20.330  20.670   7.970
  871BOLB   C4C20900  19.890  20.550   8.180
  871BOLB   C1D20901  21.220  20.060   7.900
  871BOLB   C2D20902  21.060  19.690   8.070
  871BOLB   C3D20903  20.870  19.570   8.400
  871BOLB   C4D20904  20.520  19.780   8.390
  872BOLB   NC120905  15.930  16.070  20.410
  872BOLB   PO120906  15.610  15.950  20.740
  872BOLB   GL120907  15.820  15.680  20.890
  872BOLB   GL220908  15.510  15.520  21.000
  872BOLB   C1A20909  15.980  15.410  21.190
  872BOLB   C2A20910  16.300  15.210  21.460
  872BOLB   C3A20911  16.480  15.030  21.770
  872BOLB   C4A20912  16.460  15.020  22.210
  872BOLB   C1B20913  15.530  15.190  21.310
  872BOLB   C2B20914  15.590  14.820  21.610
  872BOLB   C3B20915  15.360  14.630  21.990
  872BOLB   C4B20916  15.470  14.610  22.420
  872BOLB   NC220917  16.690  13.610  24.580
  872BOLB   PO220918  16.820  13.970  24.350
  872BOLB   GL320919  16.750  14.200  23.930
  872BOLB   GL420920  16.400  14.230  23.910
  872BOLB   C1C20921  16.640  14.540  23.630
  872BOLB   C2C20922  16.620  14.940  23.390
  872BOLB   C3C20923  16.310  15.140  23.070
  872BOLB   C4C20924  16.260  15.260  22.640
  872BOLB   C1D20925  16.310  14.090  23.480
  872BOLB   C2D20926  16.050  14.160  23.130
  872BOLB   C3D20927  15.860  14.470  22.940
  872BOLB   C4D20928  16.000  14.770  22.560
  873BOLB   NC120929  18.900  18.150  17.260
  873BOLB   PO120930  19.000  18.590  17.180
  873BOLB   GL120931  19.300  18.540  17.470
  873BOLB   GL220932  19.410  18.380  17.780
  873BOLB   C1A20933  19.680  18.810  17.490
  873BOLB   C2A20934  19.980  18.730  17.520
  873BOLB   C3A20935  20.280  18.430  17.570
  873BOLB   C4A20936  20.550  18.370  17.940
  873BOLB   C1B20937  19.750  18.530  17.920
  873BOLB   C2B20938  20.100  18.660  18.020
  873BOLB   C3B20939  20.530  18.750  18.200
  873BOLB   C4B20940  21.040  18.670  18.470
  873BOLB   NC220941  22.900  18.100  18.980
  873BOLB   PO220942  22.800  18.230  19.370
  873BOLB   GL320943  22.440  18.140  19.060
  873BOLB   GL420944  22.510  18.330  18.670
  873BOLB   C1C20945  21.970  17.920  18.960
  873BOLB   C2C20946  21.540  18.070  18.840
  873BOLB   C3C20947  21.110  18.210  18.700
  873BOLB   C4C20948  20.890  18.220  18.300
  873BOLB   C1D20949  22.100  18.410  18.720
  873BOLB   C2D20950  21.740  18.560  19.030
  873BOLB   C3D20951  21.260  18.580  19.030
  873BOLB   C4D20952  20.840  18.480  18.970
  874BOLB   NC120953  17.570  22.620  10.940
  874BOLB   PO120954  17.770  22.890  10.730
  874BOLB   GL120955  17.920  22.990  10.360
  874BOLB   GL220956  17.770  22.860  10.050
  874BOLB   C1A20957  18.210  23.210   9.970
  874BOLB   C2A20958  18.460  23.390   9.480
  874BOLB   C3A20959  18.280  23.760   9.290
  874BOLB   C4A20960  18.560  24.090   9.140
  874BOLB   C1B20961  17.720  23.100   9.660
  874BOLB   C2B20962  17.900  23.500   9.390
  874BOLB   C3B20963  17.760  23.870   9.210
  874BOLB   C4B20964  17.920  24.190   8.910
  874BOLB   NC220965  19.620  25.680   8.040
  874BOLB   PO220966  19.350  25.830   8.010
  874BOLB   GL320967  19.100  25.650   8.200
  874BOLB   GL420968  19.240  25.340   8.100
  874BOLB   C1C20969  18.860  25.440   8.670
  874BOLB   C2C20970  18.960  25.140   8.920
  874BOLB   C3C20971  19.100  24.780   9.130
  874BOLB   C4C20972  18.920  24.420   9.360
  874BOLB   C1D20973  19.200  25.130   8.500
  874BOLB   C2D20974  19.440  24.990   8.770
  874BOLB   C3D20975  19.720  24.950   9.270
  874BOLB   C4D20976  20.130  25.190   9.510
  875BOLB   NC120977  16.530  14.880  18.330
  875BOLB   PO120978  16.650  14.410  18.520
  875BOLB   GL120979  16.890  14.020  18.770
  875BOLB   GL220980  17.030  13.740  18.670
  875BOLB   C1A20981  16.780  13.780  19.180
  875BOLB   C2A20982  17.000  13.570  19.530
  875BOLB   C3A20983  17.120  13.370  19.820
  875BOLB   C4A20984  17.460  13.300  19.990
  875BOLB   C1B20985  17.250  13.610  19.030
  875BOLB   C2B20986  17.520  13.520  19.440
  875BOLB   C3B20987  17.880  13.260  19.650
  875BOLB   C4B20988  18.140  13.030  19.970
  875BOLB   NC220989  18.510  11.340  21.330
  875BOLB   PO220990  18.790  11.620  21.070
  875BOLB   GL320991  18.720  11.970  20.990
  875BOLB   GL420992  18.610  12.080  20.630
  875BOLB   C1C20993  18.400  12.350  20.930
  875BOLB   C2C20994  18.110  12.590  20.880
  875BOLB   C3C20995  17.730  12.700  20.600
  875BOLB   C4C20996  17.670  12.970  20.230
  875BOLB   C1D20997  18.410  12.000  20.290
  875BOLB   C2D20998  17.980  12.190  20.200
  875BOLB   C3D20999  17.610  12.460  20.180
  875BOLB   C4D21000  17.220  12.860  20.210
  876BOLB   NC121001  18.660  23.750  15.630
  876BOLB   PO121002  18.400  23.900  15.200
  876BOLB   GL121003  18.680  24.250  15.210
  876BOLB   GL221004  18.990  24.070  15.280
  876BOLB   C1A21005  18.890  24.450  14.990
  876BOLB   C2A21006  19.290  24.360  14.880
  876BOLB   C3A21007  19.680  24.460  14.860
  876BOLB   C4A21008  20.110  24.520  14.780
  876BOLB   C1B21009  19.300  24.300  15.470
  876BOLB   C2B21010  19.580  24.540  15.420
  876BOLB   C3B21011  20.010  24.560  15.290
  876BOLB   C4B21012  20.140  24.920  15.490
  876BOLB   NC221013  22.780  24.980  14.230
  876BOLB   PO221014  22.440  25.110  14.410
  876BOLB   GL321015  21.960  25.060  14.520
  876BOLB   GL421016  21.890  25.290  14.670
  876BOLB   C1C21017  21.630  24.760  14.680
  876BOLB   C2C21018  21.230  24.530  14.560
  876BOLB   C3C21019  20.850  24.530  14.710
  876BOLB   C4C21020  20.460  24.370  14.630
  876BOLB   C1D21021  21.470  25.260  14.840
  876BOLB   C2D21022  21.010  25.270  15.030
  876BOLB   C3D21023  20.750  24.990  15.120
  876BOLB   C4D21024  20.560  24.620  15.190
  877BOLB   NC121025  23.080  17.280  18.720
  877BOLB   PO121026  22.860  17.650  18.820
  877BOLB   GL121027  22.700  17.900  18.540
  877BOLB   GL221028  22.370  17.860  18.640
  877BOLB   C1A21029  22.600  17.920  18.100
  877BOLB   C2A21030  22.320  18.030  17.790
  877BOLB   C3A21031  21.850  17.960  17.940
  877BOLB   C4A21032  21.530  18.110  18.290
  877BOLB   C1B21033  22.250  17.540  18.950
  877BOLB   C2B21034  21.910  17.310  18.910
  877BOLB   C3B21035  21.560  17.350  19.060
  877BOLB   C4B21036  21.160  17.670  19.070
  877BOLB   NC221037  23.010  18.890  19.820
  877BOLB   PO221038  22.700  18.620  19.740
  877BOLB   GL321039  22.470  18.640  19.360
  877BOLB   GL421040  22.270  18.880  19.510
  877BOLB   C1C21041  22.190  18.800  18.980
  877BOLB   C2C21042  21.900  19.000  18.800
  877BOLB   C3C21043  21.530  18.880  18.670
  877BOLB   C4C21044  21.510  18.530  18.540
  877BOLB   C1D21045  21.860  18.960  19.360
  877BOLB   C2D21046  21.480  18.970  19.230
  877BOLB   C3D21047  21.150  19.090  18.980
  877BOLB   C4D21048  20.760  19.030  18.750
  878BOLB   NC121049  18.380  14.400  16.720
  878BOLB   PO121050  18.160  14.060  16.900
  878BOLB   GL121051  18.370  13.690  16.870
  878BOLB   GL221052  18.200  13.590  16.630
  878BOLB   C1A21053  18.560  13.230  16.780
  878BOLB   C2A21054  18.750  12.820  16.780
  878BOLB   C3A21055  19.040  12.510  16.850
  878BOLB   C4A21056  19.490  12.520  16.970
  878BOLB   C1B21057  18.060  13.160  16.610
  878BOLB   C2B21058  18.250  12.780  16.630
  878BOLB   C3B21059  18.510  12.410  16.550
  878BOLB   C4B21060  18.780  12.110  16.670
  878BOLB   NC221061  21.350  10.860  15.860
  878BOLB   PO221062  21.250  11.140  15.530
  878BOLB   GL321063  20.960  11.530  15.600
  878BOLB   GL421064  21.100  11.790  15.330
  878BOLB   C1C21065  20.700  11.910  15.790
  878BOLB   C2C21066  20.450  12.320  16.090
  878BOLB   C3C21067  20.160  12.420  16.300
  878BOLB   C4C21068  19.740  12.650  16.500
  878BOLB   C1D21069  20.740  12.010  15.280
  878BOLB   C2D21070  20.350  11.790  15.470
  878BOLB   C3D21071  20.070  11.410  15.590
  878BOLB   C4D21072  19.980  11.130  15.860
  879BOLB   NC121073  16.500  24.990  15.330
  879BOLB   PO121074  16.950  25.170  15.490
  879BOLB   GL121075  17.170  25.580  15.360
  879BOLB   GL221076  17.010  25.820  15.110
  879BOLB   C1A21077  17.510  25.820  15.110
  879BOLB   C2A21078  17.770  26.140  14.940
  879BOLB   C3A21079  18.060  26.300  14.850
  879BOLB   C4A21080  18.230  26.700  14.850
  879BOLB   C1B21081  16.930  26.270  15.210
  879BOLB   C2B21082  17.060  26.860  15.290
  879BOLB   C3B21083  17.370  27.160  15.480
  879BOLB   C4B21084  17.650  27.420  15.710
  879BOLB   NC221085  19.730  28.740  15.290
  879BOLB   PO221086  19.590  28.510  14.910
  879BOLB   GL321087  19.220  28.380  14.850
  879BOLB   GL421088  19.160  28.230  14.580
  879BOLB   C1C21089  18.980  28.070  15.010
  879BOLB   C2C21090  18.620  27.860  15.110
  879BOLB   C3C21091  18.370  27.420  15.200
  879BOLB   C4C21092  18.160  27.080  15.100
  879BOLB   C1D21093  18.890  27.840  14.530
  879BOLB   C2D21094  18.740  27.350  14.420
  879BOLB   C3D21095  18.470  27.020  14.300
  879BOLB   C4D21096  18.360  26.520  14.390
  880BOLB   NC121097  18.060  14.020  14.680
  880BOLB   PO121098  18.240  14.360  14.860
  880BOLB   GL121099  18.550  14.100  15.000
  880BOLB   GL221100  18.740  14.060  14.760
  880BOLB   C1A21101  18.880  13.830  15.270
  880BOLB   C2A21102  19.150  13.570  15.280
  880BOLB   C3A21103  19.290  13.230  15.260
  880BOLB   C4A21104  19.330  12.880  15.500
  880BOLB   C1B21105  19.200  14.010  14.910
  880BOLB   C2B21106  19.440  13.740  14.940
  880BOLB   C3B21107  19.760  13.440  15.050
  880BOLB   C4B21108  20.100  13.140  14.910
  880BOLB   NC221109  21.280  11.370  15.110
  880BOLB   PO221110  21.160  10.920  14.840
  880BOLB   GL321111  20.860  11.310  14.820
  880BOLB   GL421112  20.740  11.470  14.560
  880BOLB   C1C21113  20.490  11.740  14.900
  880BOLB   C2C21114  20.130  11.880  15.030
  880BOLB   C3C21115  19.810  12.270  15.120
  880BOLB   C4C21116  19.650  12.630  15.410
  880BOLB   C1D21117  20.490  11.830  14.390
  880BOLB   C2D21118  20.050  11.970  14.300
  880BOLB   C3D21119  19.670  12.220  14.340
  880BOLB   C4D21120  19.770  12.430  14.650
  881BOLB   NC121121  19.910  28.480  16.750
  881BOLB   PO121122  19.880  28.240  17.100
  881BOLB   GL121123  19.500  27.960  17.210
  881BOLB   GL221124  19.280  28.150  17.150
  881BOLB   C1A21125  19.360  27.540  17.010
  881BOLB   C2A21126  19.180  27.060  17.080
  881BOLB   C3A21127  19.030  26.680  16.890
  881BOLB   C4A21128  19.260  26.290  16.970
  881BOLB   C1B21129  18.980  27.980  16.850
  881BOLB   C2B21130  18.670  27.640  16.820
  881BOLB   C3B21131  18.300  27.360  16.820
  881BOLB   C4B21132  17.970  27.380  16.630
  881BOLB   NC221133  20.510  27.800  16.110
  881BOLB   PO221134  20.660  27.320  16.160
  881BOLB   GL321135  20.500  26.960  16.220
  881BOLB   GL421136  20.500  26.920  15.800
  881BOLB   C1C21137  20.360  26.510  16.240
  881BOLB   C2C21138  20.080  26.230  16.420
  881BOLB   C3C21139  19.810  25.990  16.630
  881BOLB   C4C21140  19.430  26.000  16.720
  881BOLB   C1D21141  20.090  26.690  15.830
  881BOLB   C2D21142  19.960  26.330  15.920
  881BOLB   C3D21143  19.820  26.090  15.650
  881BOLB   C4D21144  19.510  25.800  15.580
  882BOLB   NC121145  17.760  21.990  17.980
  882BOLB   PO121146  18.140  21.990  18.270
  882BOLB   GL121147  18.440  22.150  18.610
  882BOLB   GL221148  18.740  22.170  18.450
  882BOLB   C1A21149  18.760  22.410  18.880
  882BOLB   C2A21150  18.940  22.590  19.320
  882BOLB   C3A21151  18.950  22.830  19.680
  882BOLB   C4A21152  18.890  23.080  19.960
  882BOLB   C1B21153  18.820  21.950  18.830
  882BOLB   C2B21154  19.010  22.080  19.290
  882BOLB   C3B21155  19.120  22.340  19.670
  882BOLB   C4B21156  19.420  22.530  19.890
  882BOLB   NC221157  19.460  25.300  21.160
  882BOLB   PO221158  19.610  24.960  21.350
  882BOLB   GL321159  19.340  24.570  21.420
  882BOLB   GL421160  18.990  24.540  21.520
  882BOLB   C1C21161  19.270  24.170  21.200
  882BOLB   C2C21162  19.140  23.830  20.960
  882BOLB   C3C21163  19.030  23.450  20.760
  882BOLB   C4C21164  18.980  23.160  20.390
  882BOLB   C1D21165  18.840  24.420  21.030
  882BOLB   C2D21166  18.900  24.160  20.730
  882BOLB   C3D21167  18.700  23.720  20.420
  882BOLB   C4D21168  18.450  23.790  20.090
  883BOLB   NC121169  10.960  18.530  22.870
  883BOLB   PO121170  11.280  18.200  22.830
  883BOLB   GL121171  11.440  18.260  23.290
  883BOLB   GL221172  11.740  18.200  23.380
  883BOLB   C1A21173  11.390  18.430  23.690
  883BOLB   C2A21174  11.480  18.380  24.160
  883BOLB   C3A21175  11.340  18.540  24.510
  883BOLB   C4A21176  11.510  18.530  24.870
  883BOLB   C1B21177  11.900  18.320  23.850
  883BOLB   C2B21178  12.160  18.450  24.150
  883BOLB   C3B21179  12.640  18.530  24.080
  883BOLB   C4B21180  13.010  18.620  24.260
  883BOLB   NC221181  12.850  17.990  26.610
  883BOLB   PO221182  12.460  18.170  26.890
  883BOLB   GL321183  12.360  18.430  26.510
  883BOLB   GL421184  12.360  18.090  26.310
  883BOLB   C1C21185  12.400  18.650  26.200
  883BOLB   C2C21186  12.420  18.680  25.720
  883BOLB   C3C21187  12.080  18.630  25.520
  883BOLB   C4C21188  11.720  18.520  25.290
  883BOLB   C1D21189  12.430  18.230  25.940
  883BOLB   C2D21190  12.670  18.210  25.670
  883BOLB   C3D21191  13.020  18.220  25.410
  883BOLB   C4D21192  13.100  18.250  24.970
  884BOLB   NC121193  23.860  18.580  14.000
  884BOLB   PO121194  23.950  18.370  14.410
  884BOLB   GL121195  23.460  18.430  14.260
  884BOLB   GL221196  23.400  18.440  14.080
  884BOLB   C1A21197  23.190  18.760  14.480
  884BOLB   C2A21198  22.870  18.870  14.330
  884BOLB   C3A21199  22.590  18.720  13.990
  884BOLB   C4A21200  22.410  18.690  13.550
  884BOLB   C1B21201  23.030  18.300  14.070
  884BOLB   C2B21202  22.690  18.340  14.340
  884BOLB   C3B21203  22.370  18.220  14.730
  884BOLB   C4B21204  21.970  18.100  14.800
  884BOLB   NC221205  23.940  20.190  12.110
  884BOLB   PO221206  23.900  19.850  12.420
  884BOLB   GL321207  23.710  19.490  12.610
  884BOLB   GL421208  23.670  19.190  12.380
  884BOLB   C1C21209  23.260  19.360  12.670
  884BOLB   C2C21210  22.880  19.140  12.810
  884BOLB   C3C21211  22.500  19.130  12.780
  884BOLB   C4C21212  22.520  18.950  13.180
  884BOLB   C1D21213  23.350  18.850  12.530
  884BOLB   C2D21214  23.260  18.500  12.810
  884BOLB   C3D21215  23.310  18.410  13.320
  884BOLB   C4D21216  23.180  18.040  13.600
  885BOLB   NC121217  16.670  21.350  25.610
  885BOLB   PO121218  16.650  21.260  25.110
  885BOLB   GL121219  16.560  21.120  24.790
  885BOLB   GL221220  16.940  21.260  24.590
  885BOLB   C1A21221  16.450  20.780  24.440
  885BOLB   C2A21222  16.290  20.380  24.230
  885BOLB   C3A21223  15.940  20.110  24.280
  885BOLB   C4A21224  15.530  20.180  24.160
  885BOLB   C1B21225  16.730  21.220  24.220
  885BOLB   C2B21226  16.540  21.020  23.930
  885BOLB   C3B21227  16.220  20.660  23.800
  885BOLB   C4B21228  15.890  20.420  23.820
  885BOLB   NC221229  14.600  19.500  22.050
  885BOLB   PO221230  14.460  19.800  22.230
  885BOLB   GL321231  14.550  19.890  22.590
  885BOLB   GL421232  14.240  19.730  22.730
  885BOLB   C1C21233  14.680  19.940  23.010
  885BOLB   C2C21234  14.520  19.880  23.520
  885BOLB   C3C21235  14.690  20.060  23.860
  885BOLB   C4C21236  15.020  20.210  24.170
  885BOLB   C1D21237  14.120  19.830  23.040
  885BOLB   C2D21238  13.760  19.830  23.370
  885BOLB   C3D21239  13.730  19.780  23.830
  885BOLB   C4D21240  13.720  19.870  24.170
  886BOLB   NC121241  16.970   8.020  10.970
  886BOLB   PO121242  16.790   8.390  11.130
  886BOLB   GL121243  16.580   8.660  11.360
  886BOLB   GL221244  16.520   8.770  11.710
  886BOLB   C1A21245  16.790   9.110  11.430
  886BOLB   C2A21246  16.570   9.400  11.600
  886BOLB   C3A21247  16.160   9.620  11.420
  886BOLB   C4A21248  15.880   9.940  11.140
  886BOLB   C1B21249  16.790   9.080  12.060
  886BOLB   C2B21250  16.970   9.470  12.400
  886BOLB   C3B21251  16.750   9.680  12.670
  886BOLB   C4B21252  16.630  10.020  12.900
  886BOLB   NC221253  16.470   8.800  10.040
  886BOLB   PO221254  16.130   8.840   9.840
  886BOLB   GL321255  16.020   9.140   9.690
  886BOLB   GL421256  16.190   9.330   9.470
  886BOLB   C1C21257  15.720   9.540   9.700
  886BOLB   C2C21258  15.760   9.920   9.810
  886BOLB   C3C21259  15.740  10.060  10.210
  886BOLB   C4C21260  15.720   9.950  10.680
  886BOLB   C1D21261  16.180   9.530   9.940
  886BOLB   C2D21262  15.940   9.550  10.300
  886BOLB   C3D21263  15.500   9.610  10.180
  886BOLB   C4D21264  15.300   9.890  10.520
  887BOLB   NC121265  21.870  24.350  10.350
  887BOLB   PO121266  21.630  24.790  10.360
  887BOLB   GL121267  21.340  24.510  10.470
  887BOLB   GL221268  21.220  24.250  10.390
  887BOLB   C1A21269  20.900  24.550  10.570
  887BOLB   C2A21270  20.600  24.200  10.670
  887BOLB   C3A21271  20.470  23.790  10.690
  887BOLB   C4A21272  20.580  23.340  10.580
  887BOLB   C1B21273  21.030  24.010  10.550
  887BOLB   C2B21274  21.080  24.060  10.880
  887BOLB   C3B21275  20.680  24.050  11.200
  887BOLB   C4B21276  20.350  23.740  11.240
  887BOLB   NC221277  22.570  23.530  10.230
  887BOLB   PO221278  22.610  23.750  10.620
  887BOLB   GL321279  22.220  23.870  10.850
  887BOLB   GL421280  21.880  23.820  10.590
  887BOLB   C1C21281  22.020  23.690  11.120
  887BOLB   C2C21282  21.690  23.410  11.060
  887BOLB   C3C21283  21.310  23.120  10.940
  887BOLB   C4C21284  20.950  23.130  10.620
  887BOLB   C1D21285  21.620  23.880  10.870
  887BOLB   C2D21286  21.320  23.780  11.280
  887BOLB   C3D21287  20.980  23.830  11.510
  887BOLB   C4D21288  20.590  23.940  11.720
  888BOLB   NC121289  14.780  21.000  21.120
  888BOLB   PO121290  15.070  20.940  21.380
  888BOLB   GL121291  15.280  20.760  21.700
  888BOLB   GL221292  15.620  21.090  21.650
  888BOLB   C1A21293  15.510  20.750  22.180
  888BOLB   C2A21294  15.860  20.700  22.480
  888BOLB   C3A21295  16.330  20.720  22.500
  888BOLB   C4A21296  16.750  20.830  22.680
  888BOLB   C1B21297  15.920  21.080  21.990
  888BOLB   C2B21298  16.030  21.260  22.440
  888BOLB   C3B21299  16.130  21.090  22.860
  888BOLB   C4B21300  16.150  21.000  23.290
  888BOLB   NC221301  18.430  20.500  24.820
  888BOLB   PO221302  18.290  20.270  24.360
  888BOLB   GL321303  17.970  20.170  24.140
  888BOLB   GL421304  17.870  20.490  24.080
  888BOLB   C1C21305  17.810  20.120  23.730
  888BOLB   C2C21306  17.470  20.260  23.460
  888BOLB   C3C21307  17.320  20.520  23.130
  888BOLB   C4C21308  17.140  20.740  22.750
  888BOLB   C1D21309  17.900  20.580  23.700
  888BOLB   C2D21310  17.900  20.450  23.250
  888BOLB   C3D21311  18.110  20.740  22.920
  888BOLB   C4D21312  18.550  20.520  22.900
  889BOLB   NC121313  15.810  24.510  19.600
  889BOLB   PO121314  16.000  24.240  19.440
  889BOLB   GL121315  16.370  24.400  19.630
  889BOLB   GL221316  16.240  24.590  19.800
  889BOLB   C1A21317  16.760  24.350  19.990
  889BOLB   C2A21318  17.090  24.050  19.990
  889BOLB   C3A21319  17.460  23.970  20.190
  889BOLB   C4A21320  17.680  23.920  20.480
  889BOLB   C1B21321  16.380  24.920  20.100
  889BOLB   C2B21322  16.400  25.360  20.210
  889BOLB   C3B21323  16.370  25.680  20.540
  889BOLB   C4B21324  16.480  25.770  20.930
  889BOLB   NC221325  18.210  24.520  23.050
  889BOLB   PO221326  18.680  24.450  22.980
  889BOLB   GL321327  18.540  24.230  22.550
  889BOLB   GL421328  18.740  23.980  22.460
  889BOLB   C1C21329  18.400  24.180  22.190
  889BOLB   C2C21330  18.220  24.090  21.690
  889BOLB   C3C21331  18.060  23.940  21.300
  889BOLB   C4C21332  17.890  24.050  20.860
  889BOLB   C1D21333  18.630  23.760  21.990
  889BOLB   C2D21334  18.490  23.580  21.600
  889BOLB   C3D21335  18.440  23.260  21.300
  889BOLB   C4D21336  18.010  23.080  21.130
  890BOLB   NC121337   3.340  16.860  18.760
  890BOLB   PO121338   3.730  16.870  18.940
  890BOLB   GL121339   3.540  16.560  19.260
  890BOLB   GL221340   3.410  16.350  19.120
  890BOLB   C1A21341   3.100  16.630  19.440
  890BOLB   C2A21342   2.810  16.330  19.280
  890BOLB   C3A21343   2.550  15.930  19.240
  890BOLB   C4A21344   2.240  15.570  19.250
  890BOLB   C1B21345   3.330  16.200  19.570
  890BOLB   C2B21346   2.900  16.370  19.780
  890BOLB   C3B21347   2.520  16.510  20.070
  890BOLB   C4B21348   2.210  16.280  20.150
  890BOLB   NC221349   0.360  14.270  19.570
  890BOLB   PO221350   0.090  14.250  19.180
  890BOLB   GL321351   0.360  14.360  18.940
  890BOLB   GL421352   0.170  14.400  18.630
  890BOLB   C1C21353   0.770  14.580  19.100
  890BOLB   C2C21354   1.040  14.940  19.100
  890BOLB   C3C21355   1.300  15.300  19.080
  890BOLB   C4C21356   1.730  15.360  19.320
  890BOLB   C1D21357   0.700  14.440  18.550
  890BOLB   C2D21358   1.010  14.430  18.160
  890BOLB   C3D21359   1.370  14.570  18.250
  890BOLB   C4D21360   1.810  14.670  18.160
  891BOLB   NC121361  11.300  17.840  22.400
  891BOLB   PO121362  11.800  17.710  22.470
  891BOLB   GL121363  11.540  17.530  22.760
  891BOLB   GL221364  11.230  17.740  22.870
  891BOLB   C1A21365  11.570  17.300  23.170
  891BOLB   C2A21366  11.500  17.370  23.630
  891BOLB   C3A21367  11.450  17.440  24.140
  891BOLB   C4A21368  11.370  17.200  24.480
  891BOLB   C1B21369  11.250  17.770  23.270
  891BOLB   C2B21370  11.400  17.890  23.710
  891BOLB   C3B21371  11.290  17.900  24.130
  891BOLB   C4B21372  11.330  17.680  24.580
  891BOLB   NC221373  10.660  16.540  26.820
  891BOLB   PO221374  10.900  16.900  26.650
  891BOLB   GL321375  10.970  17.260  26.330
  891BOLB   GL421376  10.760  17.420  26.210
  891BOLB   C1C21377  11.260  17.310  25.990
  891BOLB   C2C21378  11.320  17.430  25.560
  891BOLB   C3C21379  11.420  17.490  25.180
  891BOLB   C4C21380  11.520  17.270  24.790
  891BOLB   C1D21381  10.820  17.480  25.740
  891BOLB   C2D21382  10.830  17.780  25.490
  891BOLB   C3D21383  10.830  17.840  24.950
  891BOLB   C4D21384  10.890  17.520  24.660
  892BOLB   NC121385  19.440  20.530  15.810
  892BOLB   PO121386  19.370  20.810  16.170
  892BOLB   GL121387  19.760  21.030  16.050
  892BOLB   GL221388  19.940  20.660  15.960
  892BOLB   C1A21389  20.160  21.180  16.000
  892BOLB   C2A21390  20.410  21.370  16.250
  892BOLB   C3A21391  20.520  21.500  16.650
  892BOLB   C4A21392  20.950  21.510  16.670
  892BOLB   C1B21393  20.310  20.710  16.120
  892BOLB   C2B21394  20.710  20.480  16.060
  892BOLB   C3B21395  21.100  20.330  16.060
  892BOLB   C4B21396  21.430  20.180  16.270
  892BOLB   NC221397  23.300  20.760  17.610
  892BOLB   PO221398  23.110  20.600  17.180
  892BOLB   GL321399  22.680  20.800  17.280
  892BOLB   GL421400  22.690  21.110  17.530
  892BOLB   C1C21401  22.420  20.950  17.020
  892BOLB   C2C21402  22.130  21.250  16.960
  892BOLB   C3C21403  21.770  21.510  16.890
  892BOLB   C4C21404  21.370  21.630  16.720
  892BOLB   C1D21405  22.260  21.060  17.450
  892BOLB   C2D21406  21.810  21.050  17.410
  892BOLB   C3D21407  21.550  20.660  17.270
  892BOLB   C4D21408  21.580  20.200  17.180
  893BOLB   NC121409  18.160  17.040  10.580
  893BOLB   PO121410  18.590  17.230  10.570
  893BOLB   GL121411  19.080  17.240  10.450
  893BOLB   GL221412  19.280  17.210  10.740
  893BOLB   C1A21413  19.210  16.840  10.370
  893BOLB   C2A21414  19.380  16.560  10.000
  893BOLB   C3A21415  19.750  16.570   9.720
  893BOLB   C4A21416  20.160  16.590   9.450
  893BOLB   C1B21417  19.590  17.130  10.360
  893BOLB   C2B21418  19.880  16.830  10.120
  893BOLB   C3B21419  20.100  16.500  10.190
  893BOLB   C4B21420  20.110  16.310  10.600
  893BOLB   NC221421  22.290  16.840   8.500
  893BOLB   PO221422  22.050  16.460   8.260
  893BOLB   GL321423  21.550  16.370   8.330
  893BOLB   GL421424  21.250  16.250   8.160
  893BOLB   C1C21425  21.300  16.760   8.460
  893BOLB   C2C21426  21.110  16.810   8.810
  893BOLB   C3C21427  20.910  16.550   9.170
  893BOLB   C4C21428  20.480  16.560   9.280
  893BOLB   C1D21429  20.990  16.390   8.590
  893BOLB   C2D21430  20.540  16.430   8.800
  893BOLB   C3D21431  20.080  16.420   8.960
  893BOLB   C4D21432  19.610  16.550   9.120
  894BOLB   NC121433  18.050  13.450  14.030
  894BOLB   PO121434  18.130  13.580  14.420
  894BOLB   GL121435  18.450  13.310  14.380
  894BOLB   GL221436  18.530  13.420  14.040
  894BOLB   C1A21437  18.650  13.130  14.630
  894BOLB   C2A21438  18.810  12.760  14.820
  894BOLB   C3A21439  19.240  12.710  14.920
  894BOLB   C4A21440  19.630  12.860  14.990
  894BOLB   C1B21441  18.960  13.520  14.040
  894BOLB   C2B21442  19.240  13.240  14.070
  894BOLB   C3B21443  19.530  13.200  14.150
  894BOLB   C4B21444  19.870  13.190  14.000
  894BOLB   NC221445  21.480  11.430  16.170
  894BOLB   PO221446  21.620  11.840  16.080
  894BOLB   GL321447  21.340  12.090  15.880
  894BOLB   GL421448  21.400  12.400  15.950
  894BOLB   C1C21449  21.140  12.230  15.600
  894BOLB   C2C21450  20.790  12.610  15.410
  894BOLB   C3C21451  20.440  12.900  15.180
  894BOLB   C4C21452  20.080  12.680  15.090
  894BOLB   C1D21453  21.090  12.590  16.360
  894BOLB   C2D21454  21.020  12.770  16.680
  894BOLB   C3D21455  20.840  12.810  17.180
  894BOLB   C4D21456  20.730  12.540  17.470
  895BOLB   NC121457   1.630  29.620  15.200
  895BOLB   PO121458   1.760  29.240  15.480
  895BOLB   GL121459   2.230  29.070  15.360
  895BOLB   GL221460   2.550  29.350  15.390
  895BOLB   C1A21461   2.590  28.830  15.630
  895BOLB   C2A21462   2.890  28.550  15.750
  895BOLB   C3A21463   3.270  28.230  15.730
  895BOLB   C4A21464   3.470  27.990  15.390
  895BOLB   C1B21465   3.000  28.960  15.400
  895BOLB   C2B21466   3.280  28.570  15.400
  895BOLB   C3B21467   3.680  28.460  15.390
  895BOLB   C4B21468   3.800  28.120  15.710
  895BOLB   NC221469   2.540  29.670  13.740
  895BOLB   PO221470   2.540  29.670  14.120
  895BOLB   GL321471   2.820  29.240  14.090
  895BOLB   GL421472   2.720  29.280  14.490
  895BOLB   C1C21473   3.030  28.830  14.080
  895BOLB   C2C21474   3.360  28.510  14.210
  895BOLB   C3C21475   3.360  28.210  14.510
  895BOLB   C4C21476   3.540  28.170  14.960
  895BOLB   C1D21477   2.740  28.820  14.490
  895BOLB   C2D21478   2.910  28.390  14.460
  895BOLB   C3D21479   3.030  27.880  14.570
  895BOLB   C4D21480   3.460  27.560  14.710
  896BOLB   NC121481  18.710  15.570  16.140
  896BOLB   PO121482  18.470  15.280  16.390
  896BOLB   GL121483  18.900  15.200  16.590
  896BOLB   GL221484  18.910  15.490  16.560
  896BOLB   C1A21485  19.280  15.020  16.650
  896BOLB   C2A21486  19.600  15.040  16.980
  896BOLB   C3A21487  19.890  15.110  17.390
  896BOLB   C4A21488  20.150  15.070  17.790
  896BOLB   C1B21489  19.290  15.300  16.230
  896BOLB   C2B21490  19.650  15.250  16.400
  896BOLB   C3B21491  19.990  15.020  16.360
  896BOLB   C4B21492  20.370  14.960  16.290
  896BOLB   NC221493  21.940  14.340  19.700
  896BOLB   PO221494  21.590  14.290  19.410
  896BOLB   GL321495  21.220  14.510  19.310
  896BOLB   GL421496  21.200  14.770  19.630
  896BOLB   C1C21497  21.140  14.680  18.910
  896BOLB   C2C21498  21.170  14.720  18.420
  896BOLB   C3C21499  20.930  14.860  18.130
  896BOLB   C4C21500  20.560  15.060  17.970
  896BOLB   C1D21501  20.790  15.070  19.450
  896BOLB   C2D21502  20.500  15.090  19.190
  896BOLB   C3D21503  20.090  15.320  19.270
  896BOLB   C4D21504  19.930  15.550  19.650
  897BOLB   NC121505  18.940  16.480  15.880
  897BOLB   PO121506  18.970  16.380  16.310
  897BOLB   GL121507  19.380  16.150  16.530
  897BOLB   GL221508  19.350  15.800  16.580
  897BOLB   C1A21509  19.800  16.170  16.600
  897BOLB   C2A21510  20.210  15.970  16.580
  897BOLB   C3A21511  20.560  15.790  16.540
  897BOLB   C4A21512  20.730  15.500  16.640
  897BOLB   C1B21513  19.710  15.670  16.770
  897BOLB   C2B21514  19.870  15.510  17.090
  897BOLB   C3B21515  20.080  15.570  17.470
  897BOLB   C4B21516  20.310  15.610  17.920
  897BOLB   NC221517  22.100  13.960  17.560
  897BOLB   PO221518  22.310  13.940  17.210
  897BOLB   GL321519  21.830  14.100  17.160
  897BOLB   GL421520  22.000  14.260  16.960
  897BOLB   C1C21521  21.400  14.170  17.330
  897BOLB   C2C21522  21.030  14.480  17.330
  897BOLB   C3C21523  20.740  14.750  17.130
  897BOLB   C4C21524  20.670  15.060  16.710
  897BOLB   C1D21525  21.960  14.440  16.460
  897BOLB   C2D21526  21.550  14.410  16.240
  897BOLB   C3D21527  21.110  14.530  15.990
  897BOLB   C4D21528  20.650  14.610  16.130
  898BOLB   NC121529  19.740  19.610  11.700
  898BOLB   PO121530  20.010  19.250  11.840
  898BOLB   GL121531  20.370  19.240  12.010
  898BOLB   GL221532  20.620  19.080  11.950
  898BOLB   C1A21533  20.730  19.490  12.180
  898BOLB   C2A21534  21.100  19.710  12.240
  898BOLB   C3A21535  21.300  19.790  12.610
  898BOLB   C4A21536  21.370  20.220  12.720
  898BOLB   C1B21537  20.990  19.120  12.070
  898BOLB   C2B21538  21.420  19.240  12.190
  898BOLB   C3B21539  21.790  19.380  12.470
  898BOLB   C4B21540  21.950  19.170  12.730
  898BOLB   NC221541  24.000  20.670  12.510
  898BOLB   PO221542  23.620  20.350  12.450
  898BOLB   GL321543  23.250  20.380  12.520
  898BOLB   GL421544  23.090  20.270  12.170
  898BOLB   C1C21545  22.920  20.790  12.740
  898BOLB   C2C21546  22.560  20.740  12.810
  898BOLB   C3C21547  22.150  20.520  12.910
  898BOLB   C4C21548  21.770  20.330  12.870
  898BOLB   C1D21549  22.730  20.630  12.300
  898BOLB   C2D21550  22.280  20.650  12.400
  898BOLB   C3D21551  22.020  20.210  12.460
  898BOLB   C4D21552  21.810  19.900  12.560
  899BOLB   NC121553  18.710  22.510  15.470
  899BOLB   PO121554  18.910  22.730  15.780
  899BOLB   GL121555  19.300  22.840  16.020
  899BOLB   GL221556  19.400  23.220  16.100
  899BOLB   C1A21557  19.780  22.800  16.100
  899BOLB   C2A21558  20.220  22.790  16.360
  899BOLB   C3A21559  20.540  23.100  16.290
  899BOLB   C4A21560  20.680  23.350  16.700
  899BOLB   C1B21561  19.650  23.320  16.370
  899BOLB   C2B21562  20.040  23.220  16.140
  899BOLB   C3B21563  20.280  22.880  15.920
  899BOLB   C4B21564  20.690  22.670  15.990
  899BOLB   NC221565  23.010  23.520  18.150
  899BOLB   PO221566  22.650  23.260  18.050
  899BOLB   GL321567  22.290  23.260  17.790
  899BOLB   GL421568  22.050  23.550  17.980
  899BOLB   C1C21569  22.020  22.960  17.650
  899BOLB   C2C21570  21.850  22.910  17.240
  899BOLB   C3C21571  21.500  23.010  16.930
  899BOLB   C4C21572  21.090  23.320  16.760
  899BOLB   C1D21573  21.810  23.270  18.000
  899BOLB   C2D21574  21.460  23.050  17.830
  899BOLB   C3D21575  21.030  22.970  17.640
  899BOLB   C4D21576  20.580  23.060  17.350
  900BOLB   NC121577  17.730  13.490  14.810
  900BOLB   PO121578  17.620  13.390  14.400
  900BOLB   GL121579  17.900  13.130  14.380
  900BOLB   GL221580  18.070  13.090  14.690
  900BOLB   C1A21581  18.240  12.840  14.130
  900BOLB   C2A21582  18.750  12.930  14.180
  900BOLB   C3A21583  19.090  12.920  14.390
  900BOLB   C4A21584  19.500  12.820  14.530
  900BOLB   C1B21585  18.320  12.680  14.580
  900BOLB   C2B21586  18.680  12.400  14.380
  900BOLB   C3B21587  19.150  12.430  14.340
  900BOLB   C4B21588  19.270  12.700  13.970
  900BOLB   NC221589  21.900  12.720  15.210
  900BOLB   PO221590  22.060  12.770  14.900
  900BOLB   GL321591  21.620  12.690  14.740
  900BOLB   GL421592  21.530  12.950  15.020
  900BOLB   C1C21593  21.170  12.710  14.530
  900BOLB   C2C21594  20.810  12.620  14.490
  900BOLB   C3C21595  20.340  12.780  14.630
  900BOLB   C4C21596  19.890  12.900  14.500
  900BOLB   C1D21597  21.380  13.170  14.640
  900BOLB   C2D21598  21.030  13.210  14.510
  900BOLB   C3D21599  20.810  13.040  14.180
  900BOLB   C4D21600  20.280  13.050  14.190
  901BOLB   NC121601  13.150  14.080  20.510
  901BOLB   PO121602  12.740  13.960  20.320
  901BOLB   GL121603  12.980  13.570  20.500
  901BOLB   GL221604  13.210  13.320  20.320
  901BOLB   C1A21605  13.060  13.520  20.900
  901BOLB   C2A21606  13.120  13.380  21.340
  901BOLB   C3A21607  13.380  13.260  21.650
  901BOLB   C4A21608  13.350  12.960  22.000
  901BOLB   C1B21609  13.110  13.070  20.610
  901BOLB   C2B21610  12.950  13.000  21.040
  901BOLB   C3B21611  13.190  12.860  21.330
  901BOLB   C4B21612  13.560  12.800  21.580
  901BOLB   NC221613  13.260  11.510  23.330
  901BOLB   PO221614  13.310  11.780  23.730
  901BOLB   GL321615  13.360  12.260  23.590
  901BOLB   GL421616  13.560  12.520  23.780
  901BOLB   C1C21617  13.440  12.390  23.230
  901BOLB   C2C21618  13.490  12.810  23.080
  901BOLB   C3C21619  13.480  12.850  22.680
  901BOLB   C4C21620  13.280  12.930  22.390
  901BOLB   C1D21621  13.970  12.850  23.710
  901BOLB   C2D21622  14.260  12.930  23.430
  901BOLB   C3D21623  14.670  13.110  23.370
  901BOLB   C4D21624  14.760  13.500  23.650
  902BOLB   NC121625  19.550  16.840  15.290
  902BOLB   PO121626  19.590  17.190  15.060
  902BOLB   GL121627  20.010  17.040  15.130
  902BOLB   GL221628  20.080  16.600  15.020
  902BOLB   C1A21629  20.410  17.000  15.030
  902BOLB   C2A21630  20.770  16.740  15.120
  902BOLB   C3A21631  21.100  16.660  15.380
  902BOLB   C4A21632  21.590  16.770  15.580
  902BOLB   C1B21633  20.350  16.350  15.050
  902BOLB   C2B21634  20.720  16.180  15.170
  902BOLB   C3B21635  21.060  15.980  15.430
  902BOLB   C4B21636  21.510  15.830  15.190
  902BOLB   NC221637  23.810  16.080  15.560
  902BOLB   PO221638  23.440  16.010  15.750
  902BOLB   GL321639  23.150  16.250  15.850
  902BOLB   GL421640  23.330  16.480  16.030
  902BOLB   C1C21641  22.710  16.260  16.080
  902BOLB   C2C21642  22.370  16.510  16.150
  902BOLB   C3C21643  22.330  16.860  15.930
  902BOLB   C4C21644  22.080  16.960  15.660
  902BOLB   C1D21645  23.100  16.360  16.320
  902BOLB   C2D21646  22.640  16.390  16.600
  902BOLB   C3D21647  22.380  16.630  16.870
  902BOLB   C4D21648  22.290  16.790  17.280
  903BOLB   NC121649  17.530  17.190  19.780
  903BOLB   PO121650  17.650  16.900  19.480
  903BOLB   GL121651  17.930  16.870  19.650
  903BOLB   GL221652  17.970  17.100  19.940
  903BOLB   C1A21653  18.270  16.750  19.940
  903BOLB   C2A21654  18.610  16.770  20.100
  903BOLB   C3A21655  19.020  16.940  20.010
  903BOLB   C4A21656  19.330  17.190  19.760
  903BOLB   C1B21657  18.120  17.080  20.410
  903BOLB   C2B21658  18.510  17.030  20.620
  903BOLB   C3B21659  18.920  16.810  20.470
  903BOLB   C4B21660  19.170  16.520  20.240
  903BOLB   NC221661  21.620  16.450  21.290
  903BOLB   PO221662  21.620  16.720  20.940
  903BOLB   GL321663  21.270  16.940  20.780
  903BOLB   GL421664  21.320  16.800  20.500
  903BOLB   C1C21665  20.900  17.100  20.570
  903BOLB   C2C21666  20.540  17.320  20.380
  903BOLB   C3C21667  20.030  17.250  20.220
  903BOLB   C4C21668  19.580  17.420  20.010
  903BOLB   C1D21669  21.180  16.670  20.080
  903BOLB   C2D21670  20.900  16.840  19.830
  903BOLB   C3D21671  20.580  17.210  19.900
  903BOLB   C4D21672  20.260  17.270  19.630
  904BOLB   NC121673  15.390  17.180  21.250
  904BOLB   PO121674  15.710  17.410  21.060
  904BOLB   GL121675  15.910  17.440  21.510
  904BOLB   GL221676  15.790  17.710  21.650
  904BOLB   C1A21677  16.290  17.170  21.780
  904BOLB   C2A21678  16.590  17.280  22.150
  904BOLB   C3A21679  16.800  17.510  22.440
  904BOLB   C4A21680  16.630  17.840  22.710
  904BOLB   C1B21681  16.080  17.570  22.040
  904BOLB   C2B21682  16.250  17.570  22.470
  904BOLB   C3B21683  16.130  17.600  22.790
  904BOLB   C4B21684  15.980  17.970  23.030
  904BOLB   NC221685  17.330  18.160  25.210
  904BOLB   PO221686  17.070  17.890  24.900
  904BOLB   GL321687  17.140  17.730  24.490
  904BOLB   GL421688  17.430  17.950  24.310
  904BOLB   C1C21689  16.980  17.610  24.230
  904BOLB   C2C21690  16.940  17.510  23.820
  904BOLB   C3C21691  16.610  17.510  23.390
  904BOLB   C4C21692  16.490  17.800  23.110
  904BOLB   C1D21693  17.200  17.900  23.970
  904BOLB   C2D21694  17.140  18.170  23.670
  904BOLB   C3D21695  17.110  18.600  23.550
  904BOLB   C4D21696  17.320  18.810  23.140
  905BOLB   NC121697  15.830  13.790  24.540
  905BOLB   PO121698  15.730  14.120  24.640
  905BOLB   GL121699  15.490  14.410  24.250
  905BOLB   GL221700  15.510  14.340  23.960
  905BOLB   C1A21701  15.030  14.540  24.200
  905BOLB   C2A21702  14.750  14.750  23.900
  905BOLB   C3A21703  14.420  14.780  23.650
  905BOLB   C4A21704  14.090  14.810  23.300
  905BOLB   C1B21705  15.990  14.560  23.830
  905BOLB   C2B21706  16.160  14.550  23.480
  905BOLB   C3B21707  16.360  14.580  23.110
  905BOLB   C4B21708  16.500  14.750  22.640
  905BOLB   NC221709  14.910  13.950  24.900
  905BOLB   PO221710  14.400  14.040  24.870
  905BOLB   GL321711  14.070  14.150  24.530
  905BOLB   GL421712  14.020  13.860  24.380
  905BOLB   C1C21713  13.790  14.360  24.260
  905BOLB   C2C21714  13.580  14.630  24.090
  905BOLB   C3C21715  13.540  14.600  23.650
  905BOLB   C4C21716  13.640  14.600  23.250
  905BOLB   C1D21717  14.040  14.000  23.890
  905BOLB   C2D21718  14.100  14.260  23.620
  905BOLB   C3D21719  14.060  14.270  23.250
  905BOLB   C4D21720  13.930  14.120  22.800
  906BOLB   NC121721  16.180  14.220  18.740
  906BOLB   PO121722  16.090  14.240  19.260
  906BOLB   GL121723  16.300  14.010  19.520
  906BOLB   GL221724  16.630  14.130  19.520
  906BOLB   C1A21725  16.570  13.770  19.830
  906BOLB   C2A21726  16.910  13.860  20.230
  906BOLB   C3A21727  16.940  13.820  20.640
  906BOLB   C4A21728  16.940  14.060  21.110
  906BOLB   C1B21729  17.130  14.020  19.690
  906BOLB   C2B21730  17.430  13.820  19.870
  906BOLB   C3B21731  17.650  13.720  20.190
  906BOLB   C4B21732  17.920  13.460  20.300
  906BOLB   NC221733  17.690  13.250  23.160
  906BOLB   PO221734  17.880  12.910  22.910
  906BOLB   GL321735  17.600  13.100  22.650
  906BOLB   GL421736  17.520  13.430  22.730
  906BOLB   C1C21737  17.180  13.120  22.530
  906BOLB   C2C21738  16.850  13.450  22.250
  906BOLB   C3C21739  16.660  13.740  21.890
  906BOLB   C4C21740  16.750  13.760  21.480
  906BOLB   C1D21741  17.270  13.670  22.430
  906BOLB   C2D21742  17.220  13.840  22.010
  906BOLB   C3D21743  17.190  14.030  21.620
  906BOLB   C4D21744  17.440  14.130  21.290
  907BOLB   NC121745  19.890  19.480  12.990
  907BOLB   PO121746  19.920  19.930  13.050
  907BOLB   GL121747  20.350  19.980  13.420
  907BOLB   GL221748  20.350  19.980  13.720
  907BOLB   C1A21749  20.760  19.700  13.410
  907BOLB   C2A21750  20.870  19.190  13.200
  907BOLB   C3A21751  21.210  19.060  13.280
  907BOLB   C4A21752  21.600  19.090  13.540
  907BOLB   C1B21753  20.530  19.640  13.910
  907BOLB   C2B21754  20.850  19.660  14.040
  907BOLB   C3B21755  21.220  19.790  14.050
  907BOLB   C4B21756  21.460  20.150  13.950
  907BOLB   NC221757  23.920  19.200  14.760
  907BOLB   PO221758  23.880  19.310  14.350
  907BOLB   GL321759  23.600  19.190  14.070
  907BOLB   GL421760  23.550  19.420  13.830
  907BOLB   C1C21761  23.260  19.030  13.990
  907BOLB   C2C21762  22.890  19.160  13.920
  907BOLB   C3C21763  22.450  19.150  13.750
  907BOLB   C4C21764  22.010  19.110  13.780
  907BOLB   C1D21765  23.120  19.580  13.710
  907BOLB   C2D21766  22.680  19.700  13.580
  907BOLB   C3D21767  22.230  19.640  13.500
  907BOLB   C4D21768  21.800  19.560  13.500
  908BOLB   NC121769  16.310  15.010  19.770
  908BOLB   PO121770  16.130  14.800  20.030
  908BOLB   GL121771  16.310  14.460  20.220
  908BOLB   GL221772  16.370  14.190  20.040
  908BOLB   C1A21773  16.220  14.360  20.570
  908BOLB   C2A21774  16.280  14.340  21.040
  908BOLB   C3A21775  16.110  14.230  21.450
  908BOLB   C4A21776  15.930  13.890  21.620
  908BOLB   C1B21777  16.370  13.860  20.290
  908BOLB   C2B21778  16.630  13.480  20.270
  908BOLB   C3B21779  17.100  13.390  20.350
  908BOLB   C4B21780  17.540  13.340  20.550
  908BOLB   NC221781  16.100  12.510  23.650
  908BOLB   PO221782  15.620  12.650  23.600
  908BOLB   GL321783  15.480  13.070  23.450
  908BOLB   GL421784  15.220  13.270  23.500
  908BOLB   C1C21785  15.400  13.410  23.110
  908BOLB   C2C21786  15.770  13.460  22.860
  908BOLB   C3C21787  15.950  13.620  22.400
  908BOLB   C4C21788  15.840  13.690  21.970
  908BOLB   C1D21789  14.950  13.410  23.160
  908BOLB   C2D21790  14.840  13.810  22.730
  908BOLB   C3D21791  15.090  14.140  22.550
  908BOLB   C4D21792  15.470  14.260  22.730
  909BOLB   NC121793  23.730  20.420  13.940
  909BOLB   PO121794  23.560  20.880  13.940
  909BOLB   GL121795  23.150  20.720  14.150
  909BOLB   GL221796  23.240  20.430  14.300
  909BOLB   C1A21797  22.770  20.810  14.330
  909BOLB   C2A21798  22.300  20.920  14.430
  909BOLB   C3A21799  22.020  21.260  14.280
  909BOLB   C4A21800  21.930  21.590  14.160
  909BOLB   C1B21801  22.810  20.340  14.260
  909BOLB   C2B21802  22.400  20.190  14.230
  909BOLB   C3B21803  22.000  20.450  14.030
  909BOLB   C4B21804  21.670  20.660  13.850
  909BOLB   NC221805  23.370  22.970  13.450
  909BOLB   PO221806  23.340  23.410  13.470
  909BOLB   GL321807  22.910  23.190  13.600
  909BOLB   GL421808  22.910  23.000  13.270
  909BOLB   C1C21809  22.570  22.990  13.700
  909BOLB   C2C21810  22.560  22.790  14.040
  909BOLB   C3C21811  22.490  22.370  14.210
  909BOLB   C4C21812  22.180  22.020  14.130
  909BOLB   C1D21813  22.590  22.740  13.200
  909BOLB   C2D21814  22.140  22.570  13.360
  909BOLB   C3D21815  21.920  22.230  13.300
  909BOLB   C4D21816  21.800  21.980  13.120
  910BOLB   NC121817  19.850  17.400  11.140
  910BOLB   PO121818  19.400  17.630  11.030
  910BOLB   GL121819  19.630  17.650  10.650
  910BOLB   GL221820  19.880  17.750  10.710
  910BOLB   C1A21821  19.540  17.600  10.250
  910BOLB   C2A21822  19.490  17.740   9.770
  910BOLB   C3A21823  19.820  17.640   9.490
  910BOLB   C4A21824  20.250  17.520   9.480
  910BOLB   C1B21825  20.340  17.850  10.580
  910BOLB   C2B21826  20.690  18.140  10.520
  910BOLB   C3B21827  21.050  18.290  10.810
  910BOLB   C4B21828  21.330  18.390  11.170
  910BOLB   NC221829  22.830  17.650   9.050
  910BOLB   PO221830  22.640  17.580   9.410
  910BOLB   GL321831  22.390  17.590   9.730
  910BOLB   GL421832  22.350  17.390  10.050
  910BOLB   C1C21833  21.900  17.400   9.830
  910BOLB   C2C21834  21.510  17.480   9.850
  910BOLB   C3C21835  21.090  17.500   9.680
  910BOLB   C4C21836  20.620  17.600   9.500
  910BOLB   C1D21837  22.280  16.960  10.210
  910BOLB   C2D21838  21.920  16.870  10.580
  910BOLB   C3D21839  21.450  16.690  10.490
  910BOLB   C4D21840  21.110  16.650  10.670
  911BOLB   NC121841  18.750  27.730  20.650
  911BOLB   PO121842  18.420  27.880  20.900
  911BOLB   GL121843  18.250  27.540  20.790
  911BOLB   GL221844  18.250  27.180  20.900
  911BOLB   C1A21845  18.070  27.220  20.390
  911BOLB   C2A21846  17.590  27.100  20.460
  911BOLB   C3A21847  17.280  26.870  20.200
  911BOLB   C4A21848  17.300  26.440  20.290
  911BOLB   C1B21849  17.970  26.880  20.760
  911BOLB   C2B21850  17.720  26.450  20.700
  911BOLB   C3B21851  17.770  26.230  20.300
  911BOLB   C4B21852  17.660  26.100  19.920
  911BOLB   NC221853  18.560  26.770  22.260
  911BOLB   PO221854  18.710  26.430  22.010
  911BOLB   GL321855  18.340  26.430  21.730
  911BOLB   GL421856  18.000  26.410  21.710
  911BOLB   C1C21857  18.260  26.220  21.350
  911BOLB   C2C21858  18.040  25.950  21.010
  911BOLB   C3C21859  17.690  25.900  20.720
  911BOLB   C4C21860  17.290  26.010  20.550
  911BOLB   C1D21861  17.760  26.110  21.440
  911BOLB   C2D21862  17.550  25.890  21.250
  911BOLB   C3D21863  17.340  25.660  21.010
  911BOLB   C4D21864  16.900  25.540  20.830
  912BOLB   NC121865  20.020  17.990  12.040
  912BOLB   PO121866  20.060  17.660  11.750
  912BOLB   GL121867  20.410  17.660  11.860
  912BOLB   GL221868  20.570  17.890  11.780
  912BOLB   C1A21869  20.570  17.320  11.760
  912BOLB   C2A21870  21.020  17.100  11.850
  912BOLB   C3A21871  21.330  17.130  11.670
  912BOLB   C4A21872  21.380  17.450  11.210
  912BOLB   C1B21873  20.950  17.700  11.730
  912BOLB   C2B21874  21.400  17.800  11.600
  912BOLB   C3B21875  21.640  17.930  11.210
  912BOLB   C4B21876  21.580  18.150  10.820
  912BOLB   NC221877  22.870  17.120   9.930
  912BOLB   PO221878  22.860  17.610   9.970
  912BOLB   GL321879  22.640  17.870  10.080
  912BOLB   GL421880  22.590  18.110  10.010
  912BOLB   C1C21881  22.160  17.870  10.130
  912BOLB   C2C21882  21.710  17.890  10.240
  912BOLB   C3C21883  21.520  17.800  10.510
  912BOLB   C4C21884  21.320  17.690  10.870
  912BOLB   C1D21885  22.220  18.410  10.110
  912BOLB   C2D21886  21.710  18.570  10.060
  912BOLB   C3D21887  21.400  18.850  10.200
  912BOLB   C4D21888  21.070  19.120  10.310
  913BOLB   NC121889  16.860  17.710   8.980
  913BOLB   PO121890  16.630  17.850   8.500
  913BOLB   GL121891  17.020  17.860   8.440
  913BOLB   GL221892  17.010  18.080   8.240
  913BOLB   C1A21893  17.420  17.800   8.170
  913BOLB   C2A21894  17.730  18.130   7.940
  913BOLB   C3A21895  17.870  18.170   7.570
  913BOLB   C4A21896  18.180  18.230   7.280
  913BOLB   C1B21897  17.140  18.210   7.770
  913BOLB   C2B21898  17.350  18.210   7.290
  913BOLB   C3B21899  17.690  17.980   6.960
  913BOLB   C4B21900  18.110  17.950   6.840
  913BOLB   NC221901  19.530  17.920   5.220
  913BOLB   PO221902  19.570  18.160   5.480
  913BOLB   GL321903  19.380  18.440   5.730
  913BOLB   GL421904  19.430  18.720   5.750
  913BOLB   C1C21905  19.080  18.340   6.110
  913BOLB   C2C21906  18.960  18.400   6.500
  913BOLB   C3C21907  18.660  18.440   6.800
  913BOLB   C4C21908  18.400  18.290   7.050
  913BOLB   C1D21909  19.000  18.720   5.850
  913BOLB   C2D21910  18.730  18.800   6.230
  913BOLB   C3D21911  18.420  19.010   6.510
  913BOLB   C4D21912  18.180  19.190   6.900
  914BOLB   NC121913  13.710   9.960   6.070
  914BOLB   PO121914  13.770   9.800   6.490
  914BOLB   GL121915  13.710   9.990   6.900
  914BOLB   GL221916  13.950  10.240   6.970
  914BOLB   C1A21917  13.590  10.080   7.370
  914BOLB   C2A21918  13.320  10.190   7.680
  914BOLB   C3A21919  12.940  10.450   7.820
  914BOLB   C4A21920  12.770  10.740   8.140
  914BOLB   C1B21921  14.000  10.360   7.390
  914BOLB   C2B21922  13.730  10.570   7.690
  914BOLB   C3B21923  13.640  10.990   7.770
  914BOLB   C4B21924  13.850  11.400   7.600
  914BOLB   NC221925  12.330  13.050   9.250
  914BOLB   PO221926  12.060  12.620   9.220
  914BOLB   GL321927  12.200  12.180   9.010
  914BOLB   GL421928  12.130  12.150   8.640
  914BOLB   C1C21929  12.140  11.700   8.970
  914BOLB   C2C21930  11.910  11.460   8.610
  914BOLB   C3C21931  12.100  11.270   8.280
  914BOLB   C4C21932  12.480  11.090   8.050
  914BOLB   C1D21933  12.250  11.810   8.250
  914BOLB   C2D21934  12.150  11.630   7.890
  914BOLB   C3D21935  12.120  11.830   7.410
  914BOLB   C4D21936  11.870  12.180   7.330
  915BOLB   NC121937   3.070  21.970  10.650
  915BOLB   PO121938   2.590  21.770  10.840
  915BOLB   GL121939   2.280  21.640  10.570
  915BOLB   GL221940   2.070  21.840  10.670
  915BOLB   C1A21941   2.210  21.790  10.160
  915BOLB   C2A21942   2.060  22.180  10.020
  915BOLB   C3A21943   2.110  22.510   9.710
  915BOLB   C4A21944   1.740  22.590   9.480
  915BOLB   C1B21945   1.820  21.880  10.420
  915BOLB   C2B21946   1.540  21.730  10.180
  915BOLB   C3B21947   1.140  21.610  10.230
  915BOLB   C4B21948   0.830  21.810  10.070
  915BOLB   NC221949   0.330  23.380   7.980
  915BOLB   PO221950  36.280  23.130   8.170
  915BOLB   GL321951   0.320  23.100   8.410
  915BOLB   GL421952   0.320  23.320   8.770
  915BOLB   C1C21953   0.750  22.940   8.600
  915BOLB   C2C21954   0.830  23.150   9.070
  915BOLB   C3C21955   1.230  23.180   9.150
  915BOLB   C4C21956   1.400  22.870   9.420
  915BOLB   C1D21957   0.450  22.850   9.060
  915BOLB   C2D21958   0.440  22.900   9.410
  915BOLB   C3D21959   0.460  22.760   9.810
  915BOLB   C4D21960   0.830  22.740  10.110
  916BOLB   NC121961  17.900   8.930  11.580
  916BOLB   PO121962  18.220   9.210  11.460
  916BOLB   GL121963  18.360   9.570  11.650
  916BOLB   GL221964  18.640   9.500  11.880
  916BOLB   C1A21965  18.060   9.940  11.590
  916BOLB   C2A21966  17.640  10.050  11.740
  916BOLB   C3A21967  17.330   9.980  12.030
  916BOLB   C4A21968  17.060   9.940  12.310
  916BOLB   C1B21969  18.260   9.730  12.080
  916BOLB   C2B21970  17.800   9.770  12.170
  916BOLB   C3B21971  17.430   9.610  12.410
  916BOLB   C4B21972  17.250   9.580  12.840
  916BOLB   NC221973  15.890  11.800  13.030
  916BOLB   PO221974  16.170  11.690  13.350
  916BOLB   GL321975  16.430  11.840  13.060
  916BOLB   GL421976  16.380  11.890  12.720
  916BOLB   C1C21977  16.780  11.490  13.000
  916BOLB   C2C21978  16.780  11.070  12.790
  916BOLB   C3C21979  16.780  10.590  12.640
  916BOLB   C4C21980  16.800  10.160  12.390
  916BOLB   C1D21981  16.370  11.440  12.740
  916BOLB   C2D21982  16.300  11.140  13.040
  916BOLB   C3D21983  16.380  10.660  13.050
  916BOLB   C4D21984  16.190  10.220  12.950
  917BOLB   NC121985   0.210  17.000   8.440
  917BOLB   PO121986   0.420  16.670   8.320
  917BOLB   GL121987   0.720  16.660   8.640
  917BOLB   GL221988   1.000  16.870   8.480
  917BOLB   C1A21989   1.090  16.480   8.760
  917BOLB   C2A21990   1.400  16.800   8.990
  917BOLB   C3A21991   1.710  17.080   9.230
  917BOLB   C4A21992   2.030  17.350   9.310
  917BOLB   C1B21993   1.410  16.950   8.490
  917BOLB   C2B21994   1.690  17.160   8.640
  917BOLB   C3B21995   1.940  17.610   8.860
  917BOLB   C4B21996   2.180  17.880   8.630
  917BOLB   NC221997   3.120  18.600  10.960
  917BOLB   PO221998   2.980  18.190  10.890
  917BOLB   GL321999   2.590  17.930  10.790
  917BOLB   GL422000   2.600  17.560  10.820
  917BOLB   C1C22001   2.280  18.030  10.670
  917BOLB   C2C22002   1.990  17.970  10.340
  917BOLB   C3C22003   1.810  17.740   9.970
  917BOLB   C4C22004   2.070  17.630   9.620
  917BOLB   C1D22005   2.220  17.530  10.590
  917BOLB   C2D22006   1.910  17.450  10.370
  917BOLB   C3D22007   1.550  17.330  10.200
  917BOLB   C4D22008   1.120  17.120  10.370
  918BOLB   NC122009  11.160  25.500  10.320
  918BOLB   PO122010  11.420  25.290   9.880
  918BOLB   GL122011  11.300  25.610   9.800
  918BOLB   GL222012  11.060  25.490   9.600
  918BOLB   C1A22013  11.570  25.910   9.480
  918BOLB   C2A22014  11.690  26.190   9.220
  918BOLB   C3A22015  11.630  26.420   8.960
  918BOLB   C4A22016  11.750  26.660   8.630
  918BOLB   C1B22017  10.710  25.470   9.240
  918BOLB   C2B22018  10.690  25.880   9.010
  918BOLB   C3B22019  10.410  26.040   8.770
  918BOLB   C4B22020  10.350  26.440   8.490
  918BOLB   NC222021  11.320  28.170   7.310
  918BOLB   PO222022  11.570  28.160   6.980
  918BOLB   GL322023  11.620  27.800   7.180
  918BOLB   GL422024  11.920  27.770   7.220
  918BOLB   C1C22025  11.630  27.460   7.470
  918BOLB   C2C22026  11.760  27.320   7.910
  918BOLB   C3C22027  12.050  27.150   8.160
  918BOLB   C4C22028  12.020  26.850   8.420
  918BOLB   C1D22029  12.150  27.480   7.460
  918BOLB   C2D22030  12.230  27.070   7.760
  918BOLB   C3D22031  12.360  26.810   8.000
  918BOLB   C4D22032  12.240  26.400   8.240
  919BOLB   NC122033  11.190  26.390  11.930
  919BOLB   PO122034  11.160  26.290  11.450
  919BOLB   GL122035  11.020  26.670  11.230
  919BOLB   GL222036  11.270  26.850  11.200
  919BOLB   C1A22037  10.950  27.070  10.900
  919BOLB   C2A22038  11.140  27.480  10.670
  919BOLB   C3A22039  11.170  27.900  10.770
  919BOLB   C4A22040  11.110  28.260  10.460
  919BOLB   C1B22041  11.430  26.930  10.860
  919BOLB   C2B22042  11.660  27.260  10.570
  919BOLB   C3B22043  12.080  27.390  10.480
  919BOLB   C4B22044  12.150  27.720  10.150
  919BOLB   NC222045  11.240  29.520   8.980
  919BOLB   PO222046  11.460  29.920   8.880
  919BOLB   GL322047  11.640  29.610   9.310
  919BOLB   GL422048  11.570  29.320   9.250
  919BOLB   C1C22049  11.480  29.530   9.680
  919BOLB   C2C22050  11.170  29.210   9.660
  919BOLB   C3C22051  10.980  28.790   9.790
  919BOLB   C4C22052  10.960  28.460  10.110
  919BOLB   C1D22053  11.610  29.010   9.680
  919BOLB   C2D22054  11.740  29.000  10.100
  919BOLB   C3D22055  11.710  28.950  10.480
  919BOLB   C4D22056  11.580  29.070  10.840
  920BOLB   NC122057   7.190  26.730  12.780
  920BOLB   PO122058   6.850  26.490  12.560
  920BOLB   GL122059   6.920  26.860  12.420
  920BOLB   GL222060   6.860  27.150  12.520
  920BOLB   C1A22061   7.010  27.210  12.050
  920BOLB   C2A22062   7.130  27.660  12.100
  920BOLB   C3A22063   7.210  28.120  11.780
  920BOLB   C4A22064   7.300  28.200  11.410
  920BOLB   C1B22065   6.620  27.480  12.340
  920BOLB   C2B22066   6.270  27.770  12.420
  920BOLB   C3B22067   6.000  27.910  12.800
  920BOLB   C4B22068   5.930  28.350  13.000
  920BOLB   NC222069   6.510  29.570   9.810
  920BOLB   PO222070   6.420  29.250   9.480
  920BOLB   GL322071   6.580  29.100   9.910
  920BOLB   GL422072   6.670  29.330  10.230
  920BOLB   C1C22073   6.760  28.730  10.070
  920BOLB   C2C22074   7.030  28.490  10.310
  920BOLB   C3C22075   7.200  28.260  10.660
  920BOLB   C4C22076   7.300  28.070  11.040
  920BOLB   C1D22077   6.610  29.100  10.660
  920BOLB   C2D22078   6.800  28.730  10.850
  920BOLB   C3D22079   7.210  28.650  11.020
  920BOLB   C4D22080   7.670  28.490  10.920
  921BOLB   NC122081  10.970  18.270   7.000
  921BOLB   PO122082  10.980  18.380   6.570
  921BOLB   GL122083  10.930  18.560   6.180
  921BOLB   GL222084  10.820  18.300   6.080
  921BOLB   C1A22085  10.720  18.720   5.870
  921BOLB   C2A22086  10.520  19.050   5.630
  921BOLB   C3A22087  10.610  19.390   5.420
  921BOLB   C4A22088  10.480  19.750   5.260
  921BOLB   C1B22089  10.790  18.120   5.700
  921BOLB   C2B22090  10.530  18.120   5.270
  921BOLB   C3B22091  10.260  17.950   4.820
  921BOLB   C4B22092   9.870  18.120   4.670
  921BOLB   NC222093   9.690  19.930   2.580
  921BOLB   PO222094   9.340  20.010   2.850
  921BOLB   GL322095   9.540  19.950   3.150
  921BOLB   GL422096   9.890  20.040   3.050
  921BOLB   C1C22097   9.650  19.820   3.660
  921BOLB   C2C22098   9.660  19.810   4.130
  921BOLB   C3C22099   9.920  19.840   4.470
  921BOLB   C4C22100  10.210  19.870   4.930
  921BOLB   C1D22101   9.690  20.290   3.400
  921BOLB   C2D22102   9.650  20.370   3.720
  921BOLB   C3D22103   9.710  20.320   4.090
  921BOLB   C4D22104   9.700  20.390   4.570
  922BOLB   NC122105  11.470  17.080   2.920
  922BOLB   PO122106  11.880  16.970   3.000
  922BOLB   GL122107  11.920  17.320   3.350
  922BOLB   GL222108  12.280  17.250   3.460
  922BOLB   C1A22109  12.050  17.710   3.420
  922BOLB   C2A22110  12.040  17.920   3.850
  922BOLB   C3A22111  11.940  17.790   4.220
  922BOLB   C4A22112  11.770  17.850   4.590
  922BOLB   C1B22113  12.190  17.430   3.820
  922BOLB   C2B22114  12.080  17.280   4.240
  922BOLB   C3B22115  12.120  17.440   4.730
  922BOLB   C4B22116  12.020  17.880   5.010
  922BOLB   NC222117  10.570  18.070   6.630
  922BOLB   PO222118  10.870  17.800   6.860
  922BOLB   GL322119  10.940  17.820   6.440
  922BOLB   GL422120  10.910  17.500   6.220
  922BOLB   C1C22121  11.190  17.890   6.050
  922BOLB   C2C22122  11.210  17.730   5.670
  922BOLB   C3C22123  11.220  17.670   5.220
  922BOLB   C4C22124  11.530  17.680   4.910
  922BOLB   C1D22125  10.580  17.830   6.030
  922BOLB   C2D22126  10.340  17.830   5.680
  922BOLB   C3D22127  10.210  17.650   5.290
  922BOLB   C4D22128   9.830  17.610   4.990
  923BOLB   NC122129  10.630  31.550  13.310
  923BOLB   PO122130  10.550  31.400  12.890
  923BOLB   GL122131  10.750  31.160  12.950
  923BOLB   GL222132  11.090  31.070  12.900
  923BOLB   C1A22133  10.770  30.720  13.170
  923BOLB   C2A22134  10.690  30.320  13.310
  923BOLB   C3A22135  10.630  29.890  13.370
  923BOLB   C4A22136  10.440  29.710  13.750
  923BOLB   C1B22137  11.260  30.690  12.810
  923BOLB   C2B22138  11.110  30.220  12.820
  923BOLB   C3B22139  11.050  29.990  13.210
  923BOLB   C4B22140  11.190  29.690  13.380
  923BOLB   NC222141   8.820  31.930  14.250
  923BOLB   PO222142   9.010  31.560  14.370
  923BOLB   GL322143   9.250  31.180  14.420
  923BOLB   GL422144   9.630  31.240  14.570
  923BOLB   C1C22145   9.270  30.690  14.320
  923BOLB   C2C22146   9.410  30.230  14.350
  923BOLB   C3C22147   9.770  29.930  14.210
  923BOLB   C4C22148  10.110  29.680  14.050
  923BOLB   C1D22149   9.730  30.850  14.490
  923BOLB   C2D22150   9.820  30.460  14.490
  923BOLB   C3D22151   9.760  30.080  14.700
  923BOLB   C4D22152   9.970  29.920  15.090
  924BOLB   NC122153   4.620  24.640  12.790
  924BOLB   PO122154   4.370  24.820  12.690
  924BOLB   GL122155   3.910  25.050  12.520
  924BOLB   GL222156   3.820  25.300  12.720
  924BOLB   C1A22157   3.800  25.320  12.100
  924BOLB   C2A22158   3.490  25.360  11.910
  924BOLB   C3A22159   3.210  25.580  11.790
  924BOLB   C4A22160   2.920  25.840  11.720
  924BOLB   C1B22161   3.790  25.650  12.470
  924BOLB   C2B22162   3.670  25.810  12.060
  924BOLB   C3B22163   3.750  26.080  11.620
  924BOLB   C4B22164   3.710  26.510  11.480
  924BOLB   NC222165   1.440  27.560  10.460
  924BOLB   PO222166   1.570  27.210  10.740
  924BOLB   GL322167   1.690  26.850  10.780
  924BOLB   GL422168   1.400  26.770  10.900
  924BOLB   C1C22169   1.760  26.480  10.990
  924BOLB   C2C22170   1.980  26.170  11.330
  924BOLB   C3C22171   2.290  26.230  11.620
  924BOLB   C4C22172   2.560  26.080  11.860
  924BOLB   C1D22173   1.250  26.460  11.270
  924BOLB   C2D22174   1.210  26.340  11.770
  924BOLB   C3D22175   1.290  25.900  11.870
  924BOLB   C4D22176   1.550  25.470  11.970
  925BOLB   NC122177   9.260  31.530  14.760
  925BOLB   PO122178   9.600  31.430  15.100
  925BOLB   GL122179   9.920  31.100  14.930
  925BOLB   GL222180  10.310  31.270  14.960
  925BOLB   C1A22181   9.870  30.670  14.970
  925BOLB   C2A22182  10.190  30.320  14.950
  925BOLB   C3A22183  10.390  30.040  15.200
  925BOLB   C4A22184  10.460  29.980  15.550
  925BOLB   C1B22185  10.280  30.790  15.210
  925BOLB   C2B22186  10.600  30.580  15.060
  925BOLB   C3B22187  10.900  30.250  15.010
  925BOLB   C4B22188  10.720  29.910  14.880
  925BOLB   NC222189   9.230  31.610  16.530
  925BOLB   PO222190   9.550  31.380  16.780
  925BOLB   GL322191   9.370  31.030  16.650
  925BOLB   GL422192   9.080  31.030  16.730
  925BOLB   C1C22193   9.400  30.540  16.600
  925BOLB   C2C22194   9.420  30.070  16.510
  925BOLB   C3C22195   9.780  29.880  16.270
  925BOLB   C4C22196  10.180  29.990  15.920
  925BOLB   C1D22197   9.050  30.620  16.870
  925BOLB   C2D22198   8.830  30.300  16.750
  925BOLB   C3D22199   8.980  29.920  16.610
  925BOLB   C4D22200   8.820  29.510  16.390
  926BOLB   NC122201   9.870  25.500  10.070
  926BOLB   PO122202  10.190  25.490   9.980
  926BOLB   GL122203  10.200  25.860  10.040
  926BOLB   GL222204  10.520  26.090  10.070
  926BOLB   C1A22205  10.020  26.290   9.900
  926BOLB   C2A22206   9.800  26.760   9.760
  926BOLB   C3A22207   9.630  27.150   9.740
  926BOLB   C4A22208   9.880  27.580   9.600
  926BOLB   C1B22209  10.480  26.390   9.810
  926BOLB   C2B22210  10.370  26.590   9.460
  926BOLB   C3B22211  10.190  26.980   9.440
  926BOLB   C4B22212   9.940  27.250   9.220
  926BOLB   NC222213   8.640  29.150   8.320
  926BOLB   PO222214   8.790  29.500   8.510
  926BOLB   GL322215   8.750  29.180   8.820
  926BOLB   GL422216   8.610  29.000   9.090
  926BOLB   C1C22217   8.950  28.690   8.870
  926BOLB   C2C22218   9.110  28.490   9.210
  926BOLB   C3C22219   9.240  28.100   9.370
  926BOLB   C4C22220   9.620  27.900   9.670
  926BOLB   C1D22221   8.590  28.650   9.310
  926BOLB   C2D22222   8.710  28.230   9.520
  926BOLB   C3D22223   8.820  27.820   9.530
  926BOLB   C4D22224   8.690  27.510   9.730
  927BOLB   NC122225   2.500  10.110  13.050
  927BOLB   PO122226   2.250  10.070  13.440
  927BOLB   GL122227   2.490  10.450  13.480
  927BOLB   GL222228   2.800  10.540  13.630
  927BOLB   C1A22229   2.370  10.850  13.240
  927BOLB   C2A22230   2.360  11.080  12.880
  927BOLB   C3A22231   2.170  11.500  12.910
  927BOLB   C4A22232   2.130  11.840  13.190
  927BOLB   C1B22233   2.840  10.790  13.270
  927BOLB   C2B22234   3.230  10.940  13.250
  927BOLB   C3B22235   3.650  11.040  13.050
  927BOLB   C4B22236   3.900  11.360  12.830
  927BOLB   NC222237   3.900  13.820  13.910
  927BOLB   PO222238   3.580  14.010  14.150
  927BOLB   GL322239   3.310  13.690  14.110
  927BOLB   GL422240   3.190  13.650  14.340
  927BOLB   C1C22241   3.140  13.140  14.040
  927BOLB   C2C22242   2.850  12.790  14.000
  927BOLB   C3C22243   2.480  12.450  13.830
  927BOLB   C4C22244   2.320  12.040  13.580
  927BOLB   C1D22245   3.060  13.240  14.520
  927BOLB   C2D22246   2.690  12.970  14.470
  927BOLB   C3D22247   2.460  12.700  14.730
  927BOLB   C4D22248   2.260  12.310  14.680
  928BOLB   NC122249   4.320  17.390   9.860
  928BOLB   PO122250   4.000  17.340   9.630
  928BOLB   GL122251   3.740  17.110   9.410
  928BOLB   GL222252   3.520  16.960   9.580
  928BOLB   C1A22253   3.440  17.000   8.990
  928BOLB   C2A22254   3.540  16.950   8.490
  928BOLB   C3A22255   3.300  17.130   8.110
  928BOLB   C4A22256   3.130  17.490   7.940
  928BOLB   C1B22257   3.070  17.050   9.510
  928BOLB   C2B22258   2.570  17.000   9.470
  928BOLB   C3B22259   2.020  16.920   9.580
  928BOLB   C4B22260   1.590  16.780   9.660
  928BOLB   NC222261   1.470  17.880   6.250
  928BOLB   PO222262   1.730  17.670   6.420
  928BOLB   GL322263   1.920  17.620   6.850
  928BOLB   GL422264   1.800  17.390   7.130
  928BOLB   C1C22265   2.290  17.850   7.170
  928BOLB   C2C22266   2.660  18.010   7.410
  928BOLB   C3C22267   2.930  17.820   7.550
  928BOLB   C4C22268   3.270  17.780   7.680
  928BOLB   C1D22269   1.980  17.660   7.480
  928BOLB   C2D22270   2.240  18.060   7.680
  928BOLB   C3D22271   2.610  18.050   7.920
  928BOLB   C4D22272   2.970  17.910   8.180
  929BOLB   NC122273   2.540  20.320  11.090
  929BOLB   PO122274   2.730  19.980  10.860
  929BOLB   GL122275   2.280  20.140  10.660
  929BOLB   GL222276   2.020  20.150  10.400
  929BOLB   C1A22277   1.930  20.340  10.870
  929BOLB   C2A22278   1.630  20.490  10.920
  929BOLB   C3A22279   1.280  20.530  11.020
  929BOLB   C4A22280   0.850  20.490  11.010
  929BOLB   C1B22281   1.700  20.210  10.270
  929BOLB   C2B22282   1.270  20.440  10.210
  929BOLB   C3B22283   0.980  20.260   9.970
  929BOLB   C4B22284   0.660  19.940   9.860
  929BOLB   NC222285  35.010  21.150   9.770
  929BOLB   PO222286  35.190  21.070   9.330
  929BOLB   GL322287  35.420  20.970   9.760
  929BOLB   GL422288  35.370  21.090  10.060
  929BOLB   C1C22289  35.800  20.850   9.970
  929BOLB   C2C22290  36.110  20.730  10.240
  929BOLB   C3C22291   0.010  20.550  10.580
  929BOLB   C4C22292   0.390  20.570  10.810
  929BOLB   C1D22293  35.590  21.040  10.430
  929BOLB   C2D22294  35.940  20.870  10.700
  929BOLB   C3D22295  36.210  20.880  11.050
  929BOLB   C4D22296   0.200  20.650  11.250
  930BOLB   NC122297   7.000  22.490   8.670
  930BOLB   PO122298   6.690  22.090   8.510
  930BOLB   GL122299   6.430  22.470   8.460
  930BOLB   GL222300   6.190  22.290   8.280
  930BOLB   C1A22301   6.340  22.710   8.010
  930BOLB   C2A22302   6.180  23.050   7.800
  930BOLB   C3A22303   5.850  23.270   7.530
  930BOLB   C4A22304   5.470  23.410   7.470
  930BOLB   C1B22305   5.890  22.440   8.020
  930BOLB   C2B22306   5.720  22.720   7.910
  930BOLB   C3B22307   5.470  22.930   7.650
  930BOLB   C4B22308   5.160  23.020   7.410
  930BOLB   NC222309   5.290  25.000   6.140
  930BOLB   PO222310   5.030  25.290   6.460
  930BOLB   GL322311   5.150  24.940   6.660
  930BOLB   GL422312   5.440  24.810   6.600
  930BOLB   C1C22313   4.870  24.640   6.760
  930BOLB   C2C22314   4.810  24.200   6.960
  930BOLB   C3C22315   5.010  24.040   7.300
  930BOLB   C4C22316   5.210  23.670   7.430
  930BOLB   C1D22317   5.550  24.800   6.980
  930BOLB   C2D22318   5.610  24.590   7.280
  930BOLB   C3D22319   6.000  24.850   7.490
  930BOLB   C4D22320   6.500  24.930   7.440
  931BOLB   NC122321   4.260  17.010   9.300
  931BOLB   PO122322   4.330  17.500   9.270
  931BOLB   GL122323   4.220  17.340   8.910
  931BOLB   GL222324   3.950  17.220   8.930
  931BOLB   C1A22325   4.190  17.180   8.450
  931BOLB   C2A22326   4.190  17.170   8.000
  931BOLB   C3A22327   3.750  16.990   7.930
  931BOLB   C4A22328   3.430  16.880   7.680
  931BOLB   C1B22329   3.780  17.410   8.650
  931BOLB   C2B22330   3.730  17.410   8.210
  931BOLB   C3B22331   3.640  17.470   7.720
  931BOLB   C4B22332   3.390  17.340   7.460
  931BOLB   NC222333   3.260  17.100   5.400
  931BOLB   PO222334   3.320  16.740   5.330
  931BOLB   GL322335   3.610  16.870   5.670
  931BOLB   GL422336   3.850  17.030   5.550
  931BOLB   C1C22337   3.760  16.660   5.980
  931BOLB   C2C22338   3.750  16.450   6.360
  931BOLB   C3C22339   3.520  16.390   6.790
  931BOLB   C4C22340   3.410  16.830   7.150
  931BOLB   C1D22341   4.160  17.040   5.900
  931BOLB   C2D22342   4.510  16.930   6.070
  931BOLB   C3D22343   4.820  17.140   6.300
  931BOLB   C4D22344   5.190  17.130   6.700
  932BOLB   NC122345  10.270  24.790   9.780
  932BOLB   PO122346  10.660  24.710   9.520
  932BOLB   GL122347  10.480  24.940   9.090
  932BOLB   GL222348  10.720  24.940   8.940
  932BOLB   C1A22349  10.090  25.120   8.970
  932BOLB   C2A22350   9.800  25.470   8.960
  932BOLB   C3A22351   9.680  25.810   8.650
  932BOLB   C4A22352   9.750  26.230   8.500
  932BOLB   C1B22353  10.820  25.330   8.780
  932BOLB   C2B22354  11.060  25.680   8.630
  932BOLB   C3B22355  11.370  25.940   8.710
  932BOLB   C4B22356  11.380  26.320   8.530
  932BOLB   NC222357  10.250  28.710   7.720
  932BOLB   PO222358   9.850  28.570   7.910
  932BOLB   GL322359   9.890  28.370   8.310
  932BOLB   GL422360   9.940  28.590   8.450
  932BOLB   C1C22361   9.990  27.940   8.310
  932BOLB   C2C22362  10.030  27.530   8.070
  932BOLB   C3C22363  10.000  27.080   8.100
  932BOLB   C4C22364   9.950  26.690   8.420
  932BOLB   C1D22365  10.390  28.500   8.620
  932BOLB   C2D22366  10.740  28.490   8.830
  932BOLB   C3D22367  11.110  28.290   9.040
  932BOLB   C4D22368  11.570  28.360   9.230
  933BOLB   NC122369   3.220  18.930  10.120
  933BOLB   PO122370   3.340  18.420  10.130
  933BOLB   GL122371   3.130  18.530   9.720
  933BOLB   GL222372   3.170  18.340   9.450
  933BOLB   C1A22373   2.870  18.710   9.460
  933BOLB   C2A22374   2.760  18.900   9.250
  933BOLB   C3A22375   2.420  19.010   9.020
  933BOLB   C4A22376   1.980  19.000   9.060
  933BOLB   C1B22377   2.970  18.160   9.150
  933BOLB   C2B22378   2.690  18.280   8.890
  933BOLB   C3B22379   2.570  18.170   8.560
  933BOLB   C4B22380   2.360  18.400   8.200
  933BOLB   NC222381  36.130  19.010   8.690
  933BOLB   PO222382  36.150  18.700   8.370
  933BOLB   GL322383   0.230  18.820   8.540
  933BOLB   GL422384   0.300  19.130   8.450
  933BOLB   C1C22385   0.650  18.630   8.570
  933BOLB   C2C22386   0.960  18.540   8.820
  933BOLB   C3C22387   1.340  18.580   9.050
  933BOLB   C4C22388   1.580  18.890   9.140
  933BOLB   C1D22389   0.710  19.150   8.600
  933BOLB   C2D22390   0.930  19.220   9.020
  933BOLB   C3D22391   1.130  19.130   9.450
  933BOLB   C4D22392   1.520  19.320   9.570
  934BOLB   NC122393   2.580  23.010  11.550
  934BOLB   PO122394   2.170  22.640  11.500
  934BOLB   GL122395   1.780  22.680  11.520
  934BOLB   GL222396   1.710  22.430  11.370
  934BOLB   C1A22397   1.380  22.790  11.640
  934BOLB   C2A22398   1.140  23.200  11.540
  934BOLB   C3A22399   0.890  23.350  11.850
  934BOLB   C4A22400   0.440  23.290  11.960
  934BOLB   C1B22401   1.700  22.610  11.010
  934BOLB   C2B22402   1.390  22.630  10.670
  934BOLB   C3B22403   1.310  22.860  10.330
  934BOLB   C4B22404   1.050  23.190  10.130
  934BOLB   NC222405  34.130  23.790  12.200
  934BOLB   PO222406  34.590  23.710  12.110
  934BOLB   GL322407  34.960  23.880  12.180
  934BOLB   GL422408  35.060  24.160  12.040
  934BOLB   C1C22409  35.420  23.840  11.960
  934BOLB   C2C22410  35.850  23.910  12.040
  934BOLB   C3C22411  36.180  23.660  12.000
  934BOLB   C4C22412   0.010  23.290  12.130
  934BOLB   C1D22413  35.480  24.150  12.390
  934BOLB   C2D22414  35.710  24.260  12.700
  934BOLB   C3D22415  36.170  24.180  12.840
  934BOLB   C4D22416   0.060  24.390  13.180
  935BOLB   NC122417   4.230  15.610  10.380
  935BOLB   PO122418   4.160  15.250  10.600
  935BOLB   GL122419   3.950  15.100  10.260
  935BOLB   GL222420   4.040  15.280  10.030
  935BOLB   C1A22421   4.050  14.700  10.030
  935BOLB   C2A22422   3.840  14.350   9.900
  935BOLB   C3A22423   3.590  14.040   9.680
  935BOLB   C4A22424   3.510  13.600   9.780
  935BOLB   C1B22425   3.800  15.060   9.760
  935BOLB   C2B22426   3.600  14.900   9.430
  935BOLB   C3B22427   3.400  14.670   9.140
  935BOLB   C4B22428   3.530  14.450   8.660
  935BOLB   NC222429   2.370  12.050   8.810
  935BOLB   PO222430   2.520  11.800   9.120
  935BOLB   GL322431   2.510  12.130   9.300
  935BOLB   GL422432   2.470  12.220   9.610
  935BOLB   C1C22433   3.010  12.290   9.360
  935BOLB   C2C22434   3.260  12.480   9.620
  935BOLB   C3C22435   3.420  12.810   9.840
  935BOLB   C4C22436   3.500  13.210   9.950
  935BOLB   C1D22437   2.950  12.160   9.800
  935BOLB   C2D22438   3.280  11.890   9.800
  935BOLB   C3D22439   3.610  11.750   9.450
  935BOLB   C4D22440   3.780  11.910   8.940
  936BOLB   NC122441   2.870  15.590  12.790
  936BOLB   PO122442   3.050  15.950  12.640
  936BOLB   GL122443   2.740  15.760  12.270
  936BOLB   GL222444   2.570  15.500  12.320
  936BOLB   C1A22445   2.360  15.710  11.950
  936BOLB   C2A22446   2.070  15.460  11.690
  936BOLB   C3A22447   1.680  15.330  11.480
  936BOLB   C4A22448   1.270  15.390  11.190
  936BOLB   C1B22449   2.150  15.270  12.170
  936BOLB   C2B22450   1.930  14.990  11.900
  936BOLB   C3B22451   1.780  14.770  11.560
  936BOLB   C4B22452   1.490  14.740  11.280
  936BOLB   NC222453  35.930  14.890  10.080
  936BOLB   PO222454  35.600  14.960  10.360
  936BOLB   GL322455  35.980  15.230  10.550
  936BOLB   GL422456  36.000  15.630  10.430
  936BOLB   C1C22457   0.030  15.280  10.450
  936BOLB   C2C22458   0.160  15.000  10.740
  936BOLB   C3C22459   0.620  14.920  10.830
  936BOLB   C4C22460   0.990  15.210  11.000
  936BOLB   C1D22461  36.270  15.900  10.580
  936BOLB   C2D22462   0.280  15.840  10.720
  936BOLB   C3D22463   0.750  15.880  10.690
  936BOLB   C4D22464   1.150  15.850  10.790
  937BOLB   NC122465   1.800  21.400  13.220
  937BOLB   PO122466   1.780  21.820  13.210
  937BOLB   GL122467   1.480  22.010  13.030
  937BOLB   GL222468   1.560  22.070  12.700
  937BOLB   C1A22469   1.140  22.300  13.140
  937BOLB   C2A22470   0.700  22.400  13.130
  937BOLB   C3A22471   0.230  22.250  13.260
  937BOLB   C4A22472  36.230  22.160  13.050
  937BOLB   C1B22473   1.210  22.320  12.640
  937BOLB   C2B22474   0.850  22.600  12.480
  937BOLB   C3B22475   0.460  22.550  12.680
  937BOLB   C4B22476   0.170  22.280  12.640
  937BOLB   NC222477  34.170  22.080  12.200
  937BOLB   PO222478  34.130  21.620  12.480
  937BOLB   GL322479  34.470  21.810  12.550
  937BOLB   GL422480  34.700  21.910  12.320
  937BOLB   C1C22481  34.720  21.970  12.840
  937BOLB   C2C22482  35.140  21.990  12.900
  937BOLB   C3C22483  35.560  22.050  12.690
  937BOLB   C4C22484  35.850  22.230  12.720
  937BOLB   C1D22485  35.110  22.060  12.350
  937BOLB   C2D22486  35.300  22.000  11.950
  937BOLB   C3D22487  35.360  22.020  11.550
  937BOLB   C4D22488  35.750  22.180  11.310
  938BOLB   NC122489  36.190  26.620  11.260
  938BOLB   PO122490   0.170  26.410  11.130
  938BOLB   GL122491   0.450  26.070  11.070
  938BOLB   GL222492   0.450  25.790  10.730
  938BOLB   C1A22493   0.890  26.020  11.070
  938BOLB   C2A22494   1.190  25.770  11.120
  938BOLB   C3A22495   1.380  25.790  11.410
  938BOLB   C4A22496   1.760  25.740  11.600
  938BOLB   C1B22497   0.870  25.590  10.790
  938BOLB   C2B22498   0.990  25.230  11.110
  938BOLB   C3B22499   1.350  24.860  11.240
  938BOLB   C4B22500   1.380  24.490  11.540
  938BOLB   NC222501   2.560  23.610  12.630
  938BOLB   PO222502   2.640  24.050  12.590
  938BOLB   GL322503   2.510  24.330  12.250
  938BOLB   GL422504   2.200  24.450  12.260
  938BOLB   C1C22505   2.750  24.610  11.900
  938BOLB   C2C22506   2.750  24.990  11.710
  938BOLB   C3C22507   2.600  25.460  11.580
  938BOLB   C4C22508   2.230  25.730  11.620
  938BOLB   C1D22509   1.860  24.470  12.600
  938BOLB   C2D22510   1.430  24.520  12.860
  938BOLB   C3D22511   1.000  24.610  13.090
  938BOLB   C4D22512   0.700  24.720  12.790
  939BOLB   NC122513   3.680  25.790  16.120
  939BOLB   PO122514   3.550  25.650  16.510
  939BOLB   GL122515   3.240  25.860  16.560
  939BOLB   GL222516   3.470  26.160  16.360
  939BOLB   C1A22517   2.910  26.100  16.690
  939BOLB   C2A22518   2.790  26.400  16.520
  939BOLB   C3A22519   2.710  26.750  16.620
  939BOLB   C4A22520   2.420  27.020  16.720
  939BOLB   C1B22521   3.310  26.620  16.410
  939BOLB   C2B22522   3.080  26.840  16.170
  939BOLB   C3B22523   3.000  27.300  16.250
  939BOLB   C4B22524   3.060  27.680  16.620
  939BOLB   NC222525   1.390  29.200  16.860
  939BOLB   PO222526   1.430  29.040  17.340
  939BOLB   GL322527   1.570  28.600  17.360
  939BOLB   GL422528   1.870  28.540  17.310
  939BOLB   C1C22529   1.570  28.190  17.540
  939BOLB   C2C22530   1.740  27.790  17.370
  939BOLB   C3C22531   1.960  27.580  16.990
  939BOLB   C4C22532   2.090  27.380  16.700
  939BOLB   C1D22533   2.170  28.140  17.280
  939BOLB   C2D22534   2.300  27.720  17.350
  939BOLB   C3D22535   2.470  27.380  17.110
  939BOLB   C4D22536   2.650  27.020  17.170
  940BOLB   NC122537  13.520  12.620  10.070
  940BOLB   PO122538  13.290  12.760   9.770
  940BOLB   GL122539  13.460  12.470   9.530
  940BOLB   GL222540  13.640  12.300   9.670
  940BOLB   C1A22541  13.670  12.270   9.110
  940BOLB   C2A22542  14.070  12.100   8.940
  940BOLB   C3A22543  14.300  11.720   8.820
  940BOLB   C4A22544  14.610  11.420   8.720
  940BOLB   C1B22545  13.860  11.920   9.470
  940BOLB   C2B22546  14.010  11.590   9.200
  940BOLB   C3B22547  13.710  11.310   9.120
  940BOLB   C4B22548  13.540  10.920   8.930
  940BOLB   NC222549  15.450   9.690   7.550
  940BOLB   PO222550  15.310   9.810   7.230
  940BOLB   GL322551  15.000  10.090   7.260
  940BOLB   GL422552  14.820  10.280   7.060
  940BOLB   C1C22553  14.960  10.220   7.680
  940BOLB   C2C22554  14.840  10.540   7.910
  940BOLB   C3C22555  14.820  10.810   8.310
  940BOLB   C4C22556  14.840  11.020   8.670
  940BOLB   C1D22557  15.090  10.620   7.290
  940BOLB   C2D22558  15.290  10.710   7.690
  940BOLB   C3D22559  15.200  11.010   7.980
  940BOLB   C4D22560  15.310  11.200   8.370
  941BOLB   NC122561   5.750  15.100   9.310
  941BOLB   PO122562   5.400  14.850   9.270
  941BOLB   GL122563   5.610  15.020   8.830
  941BOLB   GL222564   5.640  15.330   8.680
  941BOLB   C1A22565   5.990  14.830   8.590
  941BOLB   C2A22566   6.020  14.630   8.230
  941BOLB   C3A22567   5.990  14.400   7.900
  941BOLB   C4A22568   5.600  14.220   7.700
  941BOLB   C1B22569   5.410  15.510   8.350
  941BOLB   C2B22570   5.090  15.520   8.010
  941BOLB   C3B22571   4.890  15.440   7.660
  941BOLB   C4B22572   4.650  15.300   7.320
  941BOLB   NC222573   4.530  13.310   5.900
  941BOLB   PO222574   4.740  12.980   5.830
  941BOLB   GL322575   4.940  13.300   6.170
  941BOLB   GL422576   5.310  13.450   6.110
  941BOLB   C1C22577   5.020  13.320   6.570
  941BOLB   C2C22578   5.010  13.340   6.960
  941BOLB   C3C22579   5.170  13.580   7.360
  941BOLB   C4C22580   5.320  13.940   7.410
  941BOLB   C1D22581   5.510  13.210   6.460
  941BOLB   C2D22582   5.840  12.830   6.480
  941BOLB   C3D22583   6.210  12.810   6.780
  941BOLB   C4D22584   6.310  12.920   7.160
  942BOLB   NC122585  10.910  27.380  17.340
  942BOLB   PO122586  11.330  27.430  17.470
  942BOLB   GL122587  11.490  27.780  17.750
  942BOLB   GL222588  11.610  27.950  17.490
  942BOLB   C1A22589  11.570  28.140  17.930
  942BOLB   C2A22590  11.870  28.440  18.070
  942BOLB   C3A22591  12.080  28.830  18.170
  942BOLB   C4A22592  11.580  29.030  18.080
  942BOLB   C1B22593  11.430  28.280  17.410
  942BOLB   C2B22594  11.150  28.450  17.770
  942BOLB   C3B22595  10.980  28.760  18.030
  942BOLB   C4B22596  10.680  28.960  17.960
  942BOLB   NC222597  11.430  31.800  18.110
  942BOLB   PO222598  11.330  31.340  18.180
  942BOLB   GL322599  11.260  30.890  18.140
  942BOLB   GL422600  10.930  30.710  18.220
  942BOLB   C1C22601  11.370  30.420  18.220
  942BOLB   C2C22602  11.200  30.060  18.170
  942BOLB   C3C22603  11.160  29.640  18.160
  942BOLB   C4C22604  11.210  29.210  18.120
  942BOLB   C1D22605  11.050  30.460  17.880
  942BOLB   C2D22606  11.110  30.200  17.630
  942BOLB   C3D22607  11.280  29.780  17.500
  942BOLB   C4D22608  11.440  29.400  17.770
  943BOLB   NC122609  33.940  24.680  14.550
  943BOLB   PO122610  34.430  24.460  14.400
  943BOLB   GL122611  34.870  24.240  14.390
  943BOLB   GL222612  34.870  23.880  14.390
  943BOLB   C1A22613  35.290  24.200  14.650
  943BOLB   C2A22614  35.580  24.390  14.940
  943BOLB   C3A22615  35.880  24.520  15.320
  943BOLB   C4A22616  36.000  24.720  15.630
  943BOLB   C1B22617  35.340  23.770  14.420
  943BOLB   C2B22618  35.620  24.050  14.200
  943BOLB   C3B22619  36.040  24.100  14.170
  943BOLB   C4B22620   0.090  24.170  14.030
  943BOLB   NC222621  35.340  26.690  15.800
  943BOLB   PO222622  35.790  26.900  15.740
  943BOLB   GL322623  35.810  26.590  16.010
  943BOLB   GL422624  36.040  26.450  16.320
  943BOLB   C1C22625  35.810  26.200  15.920
  943BOLB   C2C22626  35.780  25.760  15.980
  943BOLB   C3C22627  35.770  25.490  15.830
  943BOLB   C4C22628  36.020  25.110  15.770
  943BOLB   C1D22629  36.290  26.420  15.960
  943BOLB   C2D22630  36.320  26.460  15.500
  943BOLB   C3D22631  36.050  26.360  15.130
  943BOLB   C4D22632  36.240  26.170  14.750
  944BOLB   NC122633   7.770  25.540  10.630
  944BOLB   PO122634   8.120  25.770  10.870
  944BOLB   GL122635   7.870  26.100  10.610
  944BOLB   GL222636   7.520  25.960  10.690
  944BOLB   C1A22637   7.650  26.450  10.450
  944BOLB   C2A22638   7.400  26.660  10.330
  944BOLB   C3A22639   7.470  27.150  10.220
  944BOLB   C4A22640   7.460  27.560  10.210
  944BOLB   C1B22641   7.210  26.180  10.320
  944BOLB   C2B22642   7.310  26.160   9.950
  944BOLB   C3B22643   7.080  26.150   9.640
  944BOLB   C4B22644   6.650  26.110   9.650
  944BOLB   NC222645   5.460  28.690   9.760
  944BOLB   PO222646   5.710  28.510   9.350
  944BOLB   GL322647   5.860  28.340   9.670
  944BOLB   GL422648   5.550  28.160   9.910
  944BOLB   C1C22649   6.140  28.260   9.880
  944BOLB   C2C22650   6.500  28.260  10.160
  944BOLB   C3C22651   6.830  28.040  10.320
  944BOLB   C4C22652   7.160  27.670  10.460
  944BOLB   C1D22653   5.780  27.750  10.180
  944BOLB   C2D22654   6.000  27.490  10.560
  944BOLB   C3D22655   6.400  27.430  10.690
  944BOLB   C4D22656   6.750  27.310  10.830
  945BOLB   NC122657  10.080  13.620   3.740
  945BOLB   PO122658   9.590  13.620   3.590
  945BOLB   GL122659   9.640  13.660   4.070
  945BOLB   GL222660   9.390  13.530   4.340
  945BOLB   C1A22661   9.740  13.880   4.470
  945BOLB   C2A22662   9.910  14.290   4.670
  945BOLB   C3A22663   9.750  14.700   4.920
  945BOLB   C4A22664   9.580  15.100   5.000
  945BOLB   C1B22665   9.470  13.480   4.800
  945BOLB   C2B22666   9.350  13.580   5.220
  945BOLB   C3B22667   9.250  13.310   5.590
  945BOLB   C4B22668   9.420  13.180   5.960
  945BOLB   NC222669   9.690  16.550   7.760
  945BOLB   PO222670   9.840  16.530   7.320
  945BOLB   GL322671   9.880  16.320   6.890
  945BOLB   GL422672  10.110  16.210   6.660
  945BOLB   C1C22673   9.730  16.060   6.410
  945BOLB   C2C22674   9.700  16.020   5.980
  945BOLB   C3C22675   9.840  15.710   5.630
  945BOLB   C4C22676   9.700  15.460   5.220
  945BOLB   C1D22677  10.470  15.860   6.590
  945BOLB   C2D22678  10.650  15.590   6.220
  945BOLB   C3D22679  10.590  15.210   6.020
  945BOLB   C4D22680  10.790  14.920   5.770
  946BOLB   NC122681   3.240  22.880  11.330
  946BOLB   PO122682   3.140  22.730  10.980
  946BOLB   GL122683   3.040  23.040  10.730
  946BOLB   GL222684   2.650  23.150  10.640
  946BOLB   C1A22685   3.110  23.540  10.650
  946BOLB   C2A22686   2.990  23.770  10.360
  946BOLB   C3A22687   2.530  23.830  10.340
  946BOLB   C4A22688   2.130  23.900  10.270
  946BOLB   C1B22689   2.220  23.490  10.540
  946BOLB   C2B22690   1.810  23.790  10.690
  946BOLB   C3B22691   1.700  24.090  10.990
  946BOLB   C4B22692   1.310  24.270  10.970
  946BOLB   NC222693   0.120  24.190   8.790
  946BOLB   PO222694   0.410  24.240   8.420
  946BOLB   GL322695   0.770  24.220   8.710
  946BOLB   GL422696   1.140  24.150   8.710
  946BOLB   C1C22697   0.960  24.350   9.140
  946BOLB   C2C22698   1.270  24.190   9.370
  946BOLB   C3C22699   1.580  24.100   9.740
  946BOLB   C4C22700   1.780  23.870  10.100
  946BOLB   C1D22701   1.350  23.910   9.000
  946BOLB   C2D22702   1.430  23.640   9.320
  946BOLB   C3D22703   1.690  23.310   9.330
  946BOLB   C4D22704   2.010  23.020   9.460
  947BOLB   NC122705   6.260  15.920   8.280
  947BOLB   PO122706   6.050  15.590   8.630
  947BOLB   GL122707   6.020  15.350   8.300
  947BOLB   GL222708   5.710  15.180   8.190
  947BOLB   C1A22709   6.010  15.390   7.900
  947BOLB   C2A22710   5.870  15.160   7.480
  947BOLB   C3A22711   5.690  15.040   7.150
  947BOLB   C4A22712   5.400  15.060   6.780
  947BOLB   C1B22713   5.350  14.930   8.320
  947BOLB   C2B22714   5.040  14.880   8.790
  947BOLB   C3B22715   4.730  14.690   9.090
  947BOLB   C4B22716   4.290  14.770   9.210
  947BOLB   NC222717   4.070  15.310   4.960
  947BOLB   PO222718   3.960  15.720   5.080
  947BOLB   GL322719   4.290  15.710   5.430
  947BOLB   GL422720   4.360  16.000   5.670
  947BOLB   C1C22721   4.690  15.590   5.680
  947BOLB   C2C22722   4.970  15.350   5.890
  947BOLB   C3C22723   5.100  15.220   6.210
  947BOLB   C4C22724   5.260  15.100   6.500
  947BOLB   C1D22725   4.660  16.120   5.910
  947BOLB   C2D22726   5.060  15.880   5.950
  947BOLB   C3D22727   5.230  15.840   6.270
  947BOLB   C4D22728   5.450  15.570   6.600
  948BOLB   NC122729  12.150  10.450  16.590
  948BOLB   PO122730  11.760  10.690  16.390
  948BOLB   GL122731  11.830  10.250  16.240
  948BOLB   GL222732  11.550   9.980  16.280
  948BOLB   C1A22733  12.070   9.900  16.290
  948BOLB   C2A22734  12.070   9.490  16.350
  948BOLB   C3A22735  12.090   9.030  16.390
  948BOLB   C4A22736  12.050   8.670  16.590
  948BOLB   C1B22737  11.630   9.610  16.570
  948BOLB   C2B22738  11.510   9.310  16.470
  948BOLB   C3B22739  11.610   8.790  16.390
  948BOLB   C4B22740  11.670   8.360  16.300
  948BOLB   NC222741  12.870   5.910  17.020
  948BOLB   PO222742  12.670   6.370  16.890
  948BOLB   GL322743  12.700   6.830  16.780
  948BOLB   GL422744  12.440   7.010  17.030
  948BOLB   C1C22745  12.680   7.160  16.530
  948BOLB   C2C22746  12.580   7.590  16.450
  948BOLB   C3C22747  12.530   8.060  16.640
  948BOLB   C4C22748  12.170   8.270  16.680
  948BOLB   C1D22749  12.320   7.350  16.860
  948BOLB   C2D22750  12.310   7.750  16.960
  948BOLB   C3D22751  12.460   7.930  17.200
  948BOLB   C4D22752  12.470   8.210  17.490
  949BOLB   NC122753   2.970  17.220  12.000
  949BOLB   PO122754   2.940  17.660  11.720
  949BOLB   GL122755   2.530  17.360  11.570
  949BOLB   GL222756   2.380  17.430  11.250
  949BOLB   C1A22757   2.300  16.970  11.370
  949BOLB   C2A22758   2.030  16.620  11.140
  949BOLB   C3A22759   1.550  16.600  10.940
  949BOLB   C4A22760   1.600  16.780  10.510
  949BOLB   C1B22761   2.030  17.480  11.340
  949BOLB   C2B22762   1.690  17.420  11.190
  949BOLB   C3B22763   1.400  17.120  11.180
  949BOLB   C4B22764   1.180  17.020  10.840
  949BOLB   NC222765  35.780  16.790   9.000
  949BOLB   PO222766  36.040  16.420   9.170
  949BOLB   GL322767   0.040  16.280   9.240
  949BOLB   GL422768   0.040  16.000   9.430
  949BOLB   C1C22769   0.270  16.430   9.540
  949BOLB   C2C22770   0.580  16.540   9.810
  949BOLB   C3C22771   0.950  16.730  10.090
  949BOLB   C4C22772   1.480  16.660  10.150
  949BOLB   C1D22773   0.340  15.820   9.630
  949BOLB   C2D22774   0.750  15.870   9.570
  949BOLB   C3D22775   1.030  16.150   9.680
  949BOLB   C4D22776   1.040  16.590   9.590
  950BOLB   NC122777   5.170  25.630  12.830
  950BOLB   PO122778   5.270  25.850  12.480
  950BOLB   GL122779   4.970  26.090  12.200
  950BOLB   GL222780   4.670  26.020  12.240
  950BOLB   C1A22781   5.010  26.240  11.740
  950BOLB   C2A22782   4.700  26.370  11.460
  950BOLB   C3A22783   4.670  26.270  10.940
  950BOLB   C4A22784   4.680  26.290  10.440
  950BOLB   C1B22785   4.540  26.460  11.940
  950BOLB   C2B22786   4.200  26.740  11.830
  950BOLB   C3B22787   3.760  26.750  11.920
  950BOLB   C4B22788   3.400  26.860  11.630
  950BOLB   NC222789   3.040  27.330   8.580
  950BOLB   PO222790   3.240  27.430   8.930
  950BOLB   GL322791   3.450  26.980   8.890
  950BOLB   GL422792   3.470  26.720   8.680
  950BOLB   C1C22793   3.900  26.860   9.030
  950BOLB   C2C22794   3.990  26.600   9.460
  950BOLB   C3C22795   4.220  26.420   9.790
  950BOLB   C4C22796   4.290  26.270  10.180
  950BOLB   C1D22797   3.500  26.370   8.880
  950BOLB   C2D22798   3.520  26.320   9.340
  950BOLB   C3D22799   3.870  26.060   9.580
  950BOLB   C4D22800   3.800  25.670   9.650
  951BOLB   NC122801   3.990  12.950   6.400
  951BOLB   PO122802   4.120  13.400   6.140
  951BOLB   GL122803   4.410  13.730   6.410
  951BOLB   GL222804   4.660  13.730   6.180
  951BOLB   C1A22805   4.650  13.830   6.810
  951BOLB   C2A22806   4.960  13.860   7.030
  951BOLB   C3A22807   5.320  14.170   6.910
  951BOLB   C4A22808   5.690  14.170   7.180
  951BOLB   C1B22809   5.020  13.820   6.470
  951BOLB   C2B22810   5.370  13.710   6.660
  951BOLB   C3B22811   5.420  13.510   6.970
  951BOLB   C4B22812   5.660  13.630   7.370
  951BOLB   NC222813   7.150  14.050   9.360
  951BOLB   PO222814   7.300  14.230   9.070
  951BOLB   GL322815   7.020  13.990   8.820
  951BOLB   GL422816   7.100  13.720   8.940
  951BOLB   C1C22817   6.730  13.960   8.420
  951BOLB   C2C22818   6.560  13.940   8.050
  951BOLB   C3C22819   6.280  14.010   7.830
  951BOLB   C4C22820   6.040  14.010   7.580
  951BOLB   C1D22821   6.840  13.500   8.570
  951BOLB   C2D22822   6.670  13.430   8.180
  951BOLB   C3D22823   6.630  13.510   7.790
  951BOLB   C4D22824   6.650  13.440   7.370
  952BOLB   NC122825   2.810  24.310  12.990
  952BOLB   PO122826   2.440  23.930  13.050
  952BOLB   GL122827   2.270  24.260  12.990
  952BOLB   GL222828   2.420  24.530  12.790
  952BOLB   C1A22829   1.830  24.330  13.100
  952BOLB   C2A22830   1.470  24.530  13.350
  952BOLB   C3A22831   1.170  24.820  13.560
  952BOLB   C4A22832   0.820  25.110  13.330
  952BOLB   C1B22833   2.120  24.750  13.020
  952BOLB   C2B22834   1.750  24.900  13.080
  952BOLB   C3B22835   1.360  24.990  13.070
  952BOLB   C4B22836   1.140  25.410  12.960
  952BOLB   NC222837  35.780  27.100  13.840
  952BOLB   PO222838  36.170  27.030  13.820
  952BOLB   GL322839  36.240  26.600  14.000
  952BOLB   GL422840  36.030  26.340  14.180
  952BOLB   C1C22841   0.120  26.250  13.910
  952BOLB   C2C22842   0.050  25.820  13.640
  952BOLB   C3C22843   0.300  25.530  13.550
  952BOLB   C4C22844   0.350  25.230  13.460
  952BOLB   C1D22845  36.340  25.940  14.220
  952BOLB   C2D22846  36.320  25.560  14.040
  952BOLB   C3D22847   0.180  25.170  13.940
  952BOLB   C4D22848   0.610  25.150  13.880
  953BOLB   NC122849   8.030  19.800   7.630
  953BOLB   PO122850   7.660  19.790   7.640
  953BOLB   GL122851   7.520  19.770   7.290
  953BOLB   GL222852   7.530  20.030   7.160
  953BOLB   C1A22853   7.710  19.630   6.890
  953BOLB   C2A22854   7.840  19.600   6.500
  953BOLB   C3A22855   8.030  19.310   6.290
  953BOLB   C4A22856   8.010  19.190   5.840
  953BOLB   C1B22857   7.270  20.400   6.930
  953BOLB   C2B22858   7.130  20.710   6.670
  953BOLB   C3B22859   6.870  21.010   6.530
  953BOLB   C4B22860   6.680  21.400   6.290
  953BOLB   NC222861   8.630  18.040   3.210
  953BOLB   PO222862   8.150  18.250   3.500
  953BOLB   GL322863   8.000  18.360   3.910
  953BOLB   GL422864   7.650  18.270   4.070
  953BOLB   C1C22865   7.990  18.550   4.340
  953BOLB   C2C22866   8.030  18.700   4.840
  953BOLB   C3C22867   7.830  18.710   5.120
  953BOLB   C4C22868   7.820  18.960   5.460
  953BOLB   C1D22869   7.550  18.340   4.480
  953BOLB   C2D22870   7.760  18.260   4.910
  953BOLB   C3D22871   8.080  18.250   5.210
  953BOLB   C4D22872   8.260  18.140   5.630
  954BOLB   NC122873   9.400  17.940  16.710
  954BOLB   PO122874   9.340  17.580  16.660
  954BOLB   GL122875   9.220  17.270  16.980
  954BOLB   GL222876   9.060  16.980  16.860
  954BOLB   C1A22877   9.080  17.070  17.310
  954BOLB   C2A22878   9.050  16.840  17.610
  954BOLB   C3A22879   9.030  16.640  17.940
  954BOLB   C4A22880   9.270  16.660  18.330
  954BOLB   C1B22881   8.790  16.670  17.080
  954BOLB   C2B22882   8.430  16.530  17.140
  954BOLB   C3B22883   8.160  16.290  17.560
  954BOLB   C4B22884   7.820  16.300  17.760
  954BOLB   NC222885   8.320  16.290  20.660
  954BOLB   PO222886   8.690  16.480  20.680
  954BOLB   GL322887   8.640  16.520  20.260
  954BOLB   GL422888   8.650  16.200  20.200
  954BOLB   C1C22889   8.720  16.610  19.870
  954BOLB   C2C22890   8.770  16.750  19.550
  954BOLB   C3C22891   9.020  16.580  19.210
  954BOLB   C4C22892   9.160  16.600  18.820
  954BOLB   C1D22893   8.710  16.070  19.730
  954BOLB   C2D22894   8.650  16.270  19.280
  954BOLB   C3D22895   8.610  16.440  18.860
  954BOLB   C4D22896   8.750  16.760  18.610
  955BOLB   NC122897   9.770  15.410   3.710
  955BOLB   PO122898  10.030  15.760   3.550
  955BOLB   GL122899  10.340  15.680   3.850
  955BOLB   GL222900  10.090  15.630   4.020
  955BOLB   C1A22901  10.380  16.010   4.130
  955BOLB   C2A22902  10.300  16.440   4.270
  955BOLB   C3A22903  10.350  16.840   4.530
  955BOLB   C4A22904  10.010  17.140   4.590
  955BOLB   C1B22905   9.990  15.730   4.520
  955BOLB   C2B22906  10.170  15.540   4.880
  955BOLB   C3B22907  10.210  15.740   5.320
  955BOLB   C4B22908  10.580  15.850   5.670
  955BOLB   NC222909   9.100  16.920   2.770
  955BOLB   PO222910   9.180  17.340   2.890
  955BOLB   GL322911   9.340  17.540   3.220
  955BOLB   GL422912   9.210  17.860   3.260
  955BOLB   C1C22913   9.650  17.860   3.460
  955BOLB   C2C22914   9.910  17.860   3.850
  955BOLB   C3C22915   9.990  17.860   4.300
  955BOLB   C4C22916  10.050  17.610   4.510
  955BOLB   C1D22917   9.240  17.670   3.680
  955BOLB   C2D22918   9.020  17.550   3.990
  955BOLB   C3D22919   9.000  17.640   4.380
  955BOLB   C4D22920   8.870  17.390   4.700
  956BOLB   NC122921   9.190   8.380   8.890
  956BOLB   PO122922   9.560   8.420   9.100
  956BOLB   GL122923   9.970   8.680   9.150
  956BOLB   GL222924  10.120   8.540   9.370
  956BOLB   C1A22925   9.940   9.100   8.910
  956BOLB   C2A22926  10.150   9.450   8.920
  956BOLB   C3A22927  10.380   9.800   9.130
  956BOLB   C4A22928  10.550   9.820   9.540
  956BOLB   C1B22929  10.020   8.900   9.650
  956BOLB   C2B22930  10.200   9.130   9.900
  956BOLB   C3B22931  10.530   9.460   9.860
  956BOLB   C4B22932  10.850   9.670  10.020
  956BOLB   NC222933  10.720   8.040   9.640
  956BOLB   PO222934  10.520   8.160   9.360
  956BOLB   GL322935  10.780   8.550   9.360
  956BOLB   GL422936  10.890   8.490   9.620
  956BOLB   C1C22937  10.980   8.970   9.250
  956BOLB   C2C22938  11.310   9.200   9.250
  956BOLB   C3C22939  11.240   9.690   9.310
  956BOLB   C4C22940  10.920   9.910   9.500
  956BOLB   C1D22941  10.930   8.570  10.010
  956BOLB   C2D22942  10.640   8.880  10.230
  956BOLB   C3D22943  10.430   9.310  10.320
  956BOLB   C4D22944  10.300   9.690  10.210
  957BOLB   NC122945   7.300   8.100   9.930
  957BOLB   PO122946   7.300   8.040  10.360
  957BOLB   GL122947   7.620   8.370  10.460
  957BOLB   GL222948   7.590   8.580  10.300
  957BOLB   C1A22949   7.920   8.610  10.790
  957BOLB   C2A22950   7.840   8.890  11.240
  957BOLB   C3A22951   7.640   9.060  11.610
  957BOLB   C4A22952   7.490   9.390  11.710
  957BOLB   C1B22953   7.720   8.900  10.480
  957BOLB   C2B22954   7.870   9.320  10.610
  957BOLB   C3B22955   7.980   9.710  10.690
  957BOLB   C4B22956   7.760  10.080  10.540
  957BOLB   NC222957   6.720   7.530  11.620
  957BOLB   PO222958   6.930   7.880  11.370
  957BOLB   GL322959   6.950   8.330  11.430
  957BOLB   GL422960   6.910   8.460  11.710
  957BOLB   C1C22961   6.540   8.740  11.400
  957BOLB   C2C22962   6.580   9.190  11.490
  957BOLB   C3C22963   6.720   9.450  11.820
  957BOLB   C4C22964   7.100   9.560  11.740
  957BOLB   C1D22965   6.950   8.900  11.640
  957BOLB   C2D22966   7.210   9.180  11.410
  957BOLB   C3D22967   7.200   9.660  11.260
  957BOLB   C4D22968   7.100  10.060  11.210
  958BOLB   NC122969  11.480  19.720   7.810
  958BOLB   PO122970  11.230  19.410   7.710
  958BOLB   GL122971  11.170  19.350   8.140
  958BOLB   GL222972  11.570  19.420   8.190
  958BOLB   C1A22973  11.260  19.410   8.660
  958BOLB   C2A22974  11.280  19.140   8.990
  958BOLB   C3A22975  11.620  18.930   9.320
  958BOLB   C4A22976  11.850  19.200   9.570
  958BOLB   C1B22977  11.730  19.240   8.570
  958BOLB   C2B22978  11.890  19.020   8.870
  958BOLB   C3B22979  11.690  18.570   8.930
  958BOLB   C4B22980  11.500  18.450   9.350
  958BOLB   NC222981  13.620  19.510   8.020
  958BOLB   PO222982  13.500  19.930   8.130
  958BOLB   GL322983  13.600  19.790   8.510
  958BOLB   GL422984  13.820  19.770   8.730
  958BOLB   C1C22985  13.190  19.760   8.810
  958BOLB   C2C22986  12.910  19.630   9.140
  958BOLB   C3C22987  12.530  19.580   9.400
  958BOLB   C4C22988  12.350  19.340   9.710
  958BOLB   C1D22989  13.630  19.730   9.070
  958BOLB   C2D22990  13.300  19.450   9.370
  958BOLB   C3D22991  13.070  19.370   9.800
  958BOLB   C4D22992  12.830  19.160  10.110
  959BOLB   NC122993   8.190  18.490   7.350
  959BOLB   PO122994   8.010  18.860   7.620
  959BOLB   GL122995   7.700  18.700   7.290
  959BOLB   GL222996   7.370  18.710   7.340
  959BOLB   C1A22997   7.760  18.690   6.850
  959BOLB   C2A22998   7.600  18.350   6.500
  959BOLB   C3A22999   7.820  18.120   6.180
  959BOLB   C4A23000   7.770  17.920   5.790
  959BOLB   C1B23001   7.300  18.890   6.940
  959BOLB   C2B23002   7.300  18.800   6.560
  959BOLB   C3B23003   7.160  18.830   6.190
  959BOLB   C4B23004   7.010  19.100   5.950
  959BOLB   NC223005   6.920  17.780   3.350
  959BOLB   PO223006   6.950  17.400   3.630
  959BOLB   GL323007   7.070  17.430   4.050
  959BOLB   GL423008   6.980  17.500   4.170
  959BOLB   C1C23009   7.420  17.330   4.390
  959BOLB   C2C23010   7.450  17.230   4.800
  959BOLB   C3C23011   7.440  17.260   5.210
  959BOLB   C4C23012   7.650  17.550   5.550
  959BOLB   C1D23013   7.130  17.630   4.680
  959BOLB   C2D23014   7.230  17.750   5.170
  959BOLB   C3D23015   7.230  17.810   5.600
  959BOLB   C4D23016   6.940  17.880   5.830
  960BOLB   NC123017  10.860  19.200   2.670
  960BOLB   PO123018  11.060  18.850   2.730
  960BOLB   GL123019  10.970  18.990   3.200
  960BOLB   GL223020  10.890  19.280   3.180
  960BOLB   C1A23021  10.870  18.970   3.620
  960BOLB   C2A23022  10.970  18.890   4.070
  960BOLB   C3A23023  11.020  18.650   4.340
  960BOLB   C4A23024  11.220  18.440   4.660
  960BOLB   C1B23025  11.300  19.320   3.350
  960BOLB   C2B23026  11.480  19.160   3.780
  960BOLB   C3B23027  11.360  19.260   4.140
  960BOLB   C4B23028  11.180  19.130   4.600
  960BOLB   NC223029  10.600  17.410   2.850
  960BOLB   PO223030  10.990  17.250   2.940
  960BOLB   GL323031  11.060  17.150   3.300
  960BOLB   GL423032  11.080  16.800   3.270
  960BOLB   C1C23033  11.130  17.500   3.620
  960BOLB   C2C23034  11.220  17.710   3.970
  960BOLB   C3C23035  11.420  17.770   4.250
  960BOLB   C4C23036  11.280  17.980   4.590
  960BOLB   C1D23037  10.870  16.810   3.640
  960BOLB   C2D23038  10.640  16.810   4.080
  960BOLB   C3D23039  10.200  16.990   4.060
  960BOLB   C4D23040   9.960  16.710   3.820
  961BOLB   NC123041   9.240  17.680   7.870
  961BOLB   PO123042   8.890  17.590   7.710
  961BOLB   GL123043   8.810  17.400   7.280
  961BOLB   GL223044   8.530  17.520   7.020
  961BOLB   C1A23045   8.960  17.390   6.840
  961BOLB   C2A23046   8.950  17.250   6.350
  961BOLB   C3A23047   9.100  17.120   6.000
  961BOLB   C4A23048   9.160  17.090   5.560
  961BOLB   C1B23049   8.500  17.460   6.570
  961BOLB   C2B23050   8.410  17.300   6.130
  961BOLB   C3B23051   8.720  17.390   5.850
  961BOLB   C4B23052   8.590  17.690   5.590
  961BOLB   NC223053   8.660  16.560   3.300
  961BOLB   PO223054   9.030  16.550   3.140
  961BOLB   GL323055   9.000  16.610   3.640
  961BOLB   GL423056   8.980  16.990   3.750
  961BOLB   C1C23057   8.980  16.610   4.060
  961BOLB   C2C23058   8.840  16.660   4.480
  961BOLB   C3C23059   9.110  16.770   4.790
  961BOLB   C4C23060   9.150  16.930   5.130
  961BOLB   C1D23061   9.310  17.120   3.990
  961BOLB   C2D23062   9.550  16.890   4.230
  961BOLB   C3D23063   9.800  16.710   4.430
  961BOLB   C4D23064  10.020  16.610   4.820
  962BOLB   NC123065   4.720  24.080  11.080
  962BOLB   PO123066   5.110  23.890  10.870
  962BOLB   GL123067   4.830  24.040  10.530
  962BOLB   GL223068   4.790  24.260  10.600
  962BOLB   C1A23069   5.000  24.340  10.170
  962BOLB   C2A23070   5.150  24.540   9.770
  962BOLB   C3A23071   5.530  24.470   9.400
  962BOLB   C4A23072   5.540  24.610   8.970
  962BOLB   C1B23073   4.490  24.500  10.450
  962BOLB   C2B23074   4.110  24.700  10.630
  962BOLB   C3B23075   3.910  25.030  10.610
  962BOLB   C4B23076   3.860  25.460  10.560
  962BOLB   NC223077   4.820  25.570   6.850
  962BOLB   PO223078   5.120  25.830   6.680
  962BOLB   GL323079   5.350  25.620   6.940
  962BOLB   GL423080   5.330  25.330   6.920
  962BOLB   C1C23081   5.340  25.560   7.440
  962BOLB   C2C23082   5.470  25.290   7.770
  962BOLB   C3C23083   5.580  25.100   8.220
  962BOLB   C4C23084   5.490  25.000   8.680
  962BOLB   C1D23085   5.380  25.100   7.330
  962BOLB   C2D23086   5.410  24.790   7.650
  962BOLB   C3D23087   5.190  24.370   7.750
  962BOLB   C4D23088   4.750  24.280   7.720
  963BOLB   NC123089   3.510  23.720  11.350
  963BOLB   PO123090   3.180  23.680  11.700
  963BOLB   GL123091   2.980  23.790  11.350
  963BOLB   GL223092   2.920  23.620  11.100
  963BOLB   C1A23093   2.570  24.050  11.200
  963BOLB   C2A23094   2.610  24.520  11.410
  963BOLB   C3A23095   2.850  24.800  11.160
  963BOLB   C4A23096   2.890  24.910  10.630
  963BOLB   C1B23097   2.550  23.640  10.900
  963BOLB   C2B23098   2.290  23.960  10.810
  963BOLB   C3B23099   2.050  24.230  10.660
  963BOLB   C4B23100   1.770  24.300  10.360
  963BOLB   NC223101   1.900  26.320   8.930
  963BOLB   PO223102   1.570  26.120   8.950
  963BOLB   GL323103   1.860  25.950   9.210
  963BOLB   GL423104   1.920  25.680   9.020
  963BOLB   C1C23105   2.190  25.740   9.420
  963BOLB   C2C23106   2.490  25.730   9.810
  963BOLB   C3C23107   2.690  25.630  10.140
  963BOLB   C4C23108   2.960  25.200  10.420
  963BOLB   C1D23109   2.140  25.340   9.160
  963BOLB   C2D23110   2.550  25.290   9.280
  963BOLB   C3D23111   2.810  25.610   9.360
  963BOLB   C4D23112   3.160  25.690   9.650
  964BOLB   NC123113   4.830  14.850   9.840
  964BOLB   PO123114   5.190  14.710   9.940
  964BOLB   GL123115   5.170  14.420   9.490
  964BOLB   GL223116   4.860  14.220   9.680
  964BOLB   C1A23117   5.050  14.330   9.100
  964BOLB   C2A23118   4.790  14.210   8.710
  964BOLB   C3A23119   4.540  14.210   8.440
  964BOLB   C4A23120   4.190  14.480   8.480
  964BOLB   C1B23121   4.580  14.160   9.290
  964BOLB   C2B23122   4.340  13.960   8.910
  964BOLB   C3B23123   3.960  13.980   8.600
  964BOLB   C4B23124   3.460  13.900   8.640
  964BOLB   NC223125   4.970  15.730  10.090
  964BOLB   PO223126   4.790  15.960   9.720
  964BOLB   GL323127   4.600  15.790   9.400
  964BOLB   GL423128   4.450  15.980   9.260
  964BOLB   C1C23129   4.350  15.460   9.370
  964BOLB   C2C23130   3.950  15.250   9.280
  964BOLB   C3C23131   3.750  15.050   8.960
  964BOLB   C4C23132   3.980  14.770   8.770
  964BOLB   C1D23133   4.340  15.740   8.910
  964BOLB   C2D23134   4.540  15.490   8.580
  964BOLB   C3D23135   4.520  15.260   8.160
  964BOLB   C4D23136   4.400  15.190   7.810
  965BOLB   NC123137  13.880  21.960   7.990
  965BOLB   PO123138  13.730  22.180   7.710
  965BOLB   GL123139  13.910  22.280   7.330
  965BOLB   GL223140  14.120  22.060   7.230
  965BOLB   C1A23141  14.180  22.510   7.090
  965BOLB   C2A23142  14.220  22.820   6.710
  965BOLB   C3A23143  14.180  23.220   6.510
  965BOLB   C4A23144  13.980  23.310   6.120
  965BOLB   C1B23145  14.130  21.880   6.740
  965BOLB   C2B23146  14.160  21.940   6.350
  965BOLB   C3B23147  14.310  21.850   5.930
  965BOLB   C4B23148  14.310  21.690   5.540
  965BOLB   NC223149  13.540  25.030   4.110
  965BOLB   PO223150  14.010  24.760   4.090
  965BOLB   GL323151  14.040  24.440   4.460
  965BOLB   GL423152  14.070  24.540   4.770
  965BOLB   C1C23153  14.040  24.010   4.710
  965BOLB   C2C23154  14.000  23.720   5.090
  965BOLB   C3C23155  13.790  23.420   5.420
  965BOLB   C4C23156  13.800  23.240   5.700
  965BOLB   C1D23157  14.110  24.310   5.080
  965BOLB   C2D23158  14.140  24.150   5.510
  965BOLB   C3D23159  14.010  23.960   5.900
  965BOLB   C4D23160  13.730  24.030   6.170
  966BOLB   NC123161   2.100  22.510  14.250
  966BOLB   PO123162   1.640  22.320  14.070
  966BOLB   GL123163   1.360  22.610  14.140
  966BOLB   GL223164   1.190  22.710  14.380
  966BOLB   C1A23165   0.840  22.790  13.980
  966BOLB   C2A23166   0.470  22.900  14.030
  966BOLB   C3A23167   0.360  22.920  14.540
  966BOLB   C4A23168   0.160  23.060  14.920
  966BOLB   C1B23169   0.820  22.730  14.520
  966BOLB   C2B23170   0.510  22.400  14.730
  966BOLB   C3B23171   0.090  22.250  14.730
  966BOLB   C4B23172  36.170  21.870  14.580
  966BOLB   NC223173  34.000  22.670  14.820
  966BOLB   PO223174  34.070  22.890  14.490
  966BOLB   GL323175  34.460  22.970  14.630
  966BOLB   GL423176  34.650  22.850  14.840
  966BOLB   C1C23177  34.880  23.150  14.560
  966BOLB   C2C23178  35.320  23.290  14.830
  966BOLB   C3C23179  35.650  23.340  15.120
  966BOLB   C4C23180  36.060  23.200  15.050
  966BOLB   C1D23181  35.000  23.040  15.140
  966BOLB   C2D23182  35.420  22.940  15.290
  966BOLB   C3D23183  35.830  22.800  14.960
  966BOLB   C4D23184  36.150  22.650  14.680
  967BOLB   NC123185   4.170  20.550   9.050
  967BOLB   PO123186   4.300  20.090   8.920
  967BOLB   GL123187   3.910  20.170   8.710
  967BOLB   GL223188   3.670  19.940   8.800
  967BOLB   C1A23189   3.910  20.320   8.320
  967BOLB   C2A23190   3.960  20.160   8.020
  967BOLB   C3A23191   3.800  20.220   7.660
  967BOLB   C4A23192   3.460  20.360   7.450
  967BOLB   C1B23193   3.320  20.070   8.580
  967BOLB   C2B23194   2.960  20.000   8.320
  967BOLB   C3B23195   2.670  20.240   8.140
  967BOLB   C4B23196   2.370  20.250   7.850
  967BOLB   NC223197   1.180  19.800   5.840
  967BOLB   PO223198   1.280  19.590   6.120
  967BOLB   GL323199   1.720  19.790   6.250
  967BOLB   GL423200   1.600  19.930   6.580
  967BOLB   C1C23201   2.130  19.950   6.420
  967BOLB   C2C23202   2.590  20.120   6.650
  967BOLB   C3C23203   2.830  20.290   6.980
  967BOLB   C4C23204   3.090  20.600   7.360
  967BOLB   C1D23205   1.990  19.910   6.940
  967BOLB   C2D23206   2.370  19.780   7.010
  967BOLB   C3D23207   2.810  19.800   7.220
  967BOLB   C4D23208   3.250  20.000   7.100
  968BOLB   NC123209  11.790   6.970  11.950
  968BOLB   PO123210  11.430   7.030  11.750
  968BOLB   GL123211  11.220   7.350  11.940
  968BOLB   GL223212  11.220   7.580  11.660
  968BOLB   C1A23213  11.150   7.520  12.340
  968BOLB   C2A23214  10.950   7.600  12.760
  968BOLB   C3A23215  11.030   8.070  12.950
  968BOLB   C4A23216  11.130   8.500  13.130
  968BOLB   C1B23217  11.570   7.610  11.990
  968BOLB   C2B23218  11.950   7.700  11.840
  968BOLB   C3B23219  12.290   7.600  12.010
  968BOLB   C4B23220  12.530   7.480  12.340
  968BOLB   NC223221  12.200  10.570  14.410
  968BOLB   PO223222  12.030  10.440  14.050
  968BOLB   GL323223  11.670  10.180  13.950
  968BOLB   GL423224  11.360  10.170  14.220
  968BOLB   C1C23225  11.450   9.900  13.810
  968BOLB   C2C23226  11.420   9.540  13.550
  968BOLB   C3C23227  11.420   9.300  13.210
  968BOLB   C4C23228  11.230   8.900  13.020
  968BOLB   C1D23229  11.130   9.770  14.170
  968BOLB   C2D23230  11.160   9.360  13.900
  968BOLB   C3D23231  11.130   8.990  13.630
  968BOLB   C4D23232  10.850   8.810  13.380
  969BOLB   NC123233   8.020  20.620   7.620
  969BOLB   PO123234   8.260  20.870   7.880
  969BOLB   GL123235   8.210  21.100   7.540
  969BOLB   GL223236   8.310  21.180   7.240
  969BOLB   C1A23237   7.830  21.150   7.170
  969BOLB   C2A23238   7.680  20.990   6.780
  969BOLB   C3A23239   7.510  20.890   6.370
  969BOLB   C4A23240   7.360  20.760   6.070
  969BOLB   C1B23241   8.390  21.100   6.810
  969BOLB   C2B23242   8.120  21.060   6.390
  969BOLB   C3B23243   7.880  20.940   6.100
  969BOLB   C4B23244   7.680  20.800   5.720
  969BOLB   NC223245   6.520  20.920   4.070
  969BOLB   PO223246   6.080  20.560   4.150
  969BOLB   GL323247   6.050  20.500   4.560
  969BOLB   GL423248   5.720  20.600   4.620
  969BOLB   C1C23249   6.360  20.550   4.870
  969BOLB   C2C23250   6.480  20.760   5.280
  969BOLB   C3C23251   6.800  20.870   5.420
  969BOLB   C4C23252   7.140  20.690   5.740
  969BOLB   C1D23253   5.860  20.440   5.120
  969BOLB   C2D23254   5.630  20.520   5.510
  969BOLB   C3D23255   5.740  20.340   5.860
  969BOLB   C4D23256   5.870  20.230   6.300
  970BOLB   NC123257  19.010  11.760   7.390
  970BOLB   PO123258  18.640  11.920   7.130
  970BOLB   GL123259  18.780  12.190   7.480
  970BOLB   GL223260  18.870  12.280   7.760
  970BOLB   C1A23261  18.550  12.610   7.590
  970BOLB   C2A23262  18.200  12.880   7.880
  970BOLB   C3A23263  17.820  12.950   8.160
  970BOLB   C4A23264  17.610  12.800   8.520
  970BOLB   C1B23265  18.670  12.650   8.080
  970BOLB   C2B23266  18.650  12.950   8.330
  970BOLB   C3B23267  18.470  13.070   8.620
  970BOLB   C4B23268  18.030  13.130   8.580
  970BOLB   NC223269  18.110  11.230   7.840
  970BOLB   PO223270  18.440  11.410   7.900
  970BOLB   GL323271  18.390  11.750   8.090
  970BOLB   GL423272  18.420  12.080   7.800
  970BOLB   C1C23273  18.080  11.950   8.280
  970BOLB   C2C23274  17.520  11.840   8.420
  970BOLB   C3C23275  17.280  12.160   8.440
  970BOLB   C4C23276  17.280  12.530   8.490
  970BOLB   C1D23277  18.160  12.360   7.960
  970BOLB   C2D23278  17.780  12.370   8.240
  970BOLB   C3D23279  17.650  12.290   8.690
  970BOLB   C4D23280  17.430  12.550   9.010
  971BOLB   NC123281   1.900  23.240  14.660
  971BOLB   PO123282   1.860  23.440  14.260
  971BOLB   GL123283   1.420  23.670  14.260
  971BOLB   GL223284   1.350  24.030  14.280
  971BOLB   C1A23285   1.000  23.610  14.250
  971BOLB   C2A23286   0.650  23.850  14.260
  971BOLB   C3A23287   0.300  23.870  14.370
  971BOLB   C4A23288  36.330  23.990  14.600
  971BOLB   C1B23289   0.990  24.150  13.980
  971BOLB   C2B23290   0.550  24.370  14.110
  971BOLB   C3B23291   0.390  24.700  14.020
  971BOLB   C4B23292  36.360  24.650  13.940
  971BOLB   NC223293  34.730  24.880  14.200
  971BOLB   PO223294  34.730  25.360  14.320
  971BOLB   GL323295  35.140  25.430  14.400
  971BOLB   GL423296  35.180  25.570  14.740
  971BOLB   C1C23297  35.440  25.220  14.270
  971BOLB   C2C23298  35.680  24.860  14.340
  971BOLB   C3C23299  35.750  24.510  14.490
  971BOLB   C4C23300  35.980  24.130  14.700
  971BOLB   C1D23301  35.640  25.540  14.620
  971BOLB   C2D23302  36.030  25.310  14.880
  971BOLB   C3D23303   0.030  25.210  14.860
  971BOLB   C4D23304   0.450  25.330  14.770
  972BOLB   NC123305   3.180  27.940  10.100
  972BOLB   PO123306   3.180  27.560   9.840
  972BOLB   GL123307   3.490  27.510  10.000
  972BOLB   GL223308   3.710  27.550   9.660
  972BOLB   C1A23309   3.430  27.020  10.060
  972BOLB   C2A23310   3.280  26.610  10.110
  972BOLB   C3A23311   3.270  26.280  10.390
  972BOLB   C4A23312   3.620  25.990  10.560
  972BOLB   C1B23313   3.900  27.220   9.630
  972BOLB   C2B23314   3.970  26.970   9.860
  972BOLB   C3B23315   4.370  26.820  10.180
  972BOLB   C4B23316   4.850  26.750  10.250
  972BOLB   NC223317   4.380  25.300  12.640
  972BOLB   PO223318   4.420  25.070  12.260
  972BOLB   GL323319   4.420  25.340  11.900
  972BOLB   GL423320   4.410  25.580  12.130
  972BOLB   C1C23321   4.460  25.550  11.480
  972BOLB   C2C23322   4.490  25.930  11.250
  972BOLB   C3C23323   4.410  25.930  10.800
  972BOLB   C4C23324   4.150  25.870  10.530
  972BOLB   C1D23325   4.090  25.720  11.830
  972BOLB   C2D23326   3.890  25.600  11.470
  972BOLB   C3D23327   3.460  25.450  11.330
  972BOLB   C4D23328   3.220  25.730  11.260
  973BOLB   NC123329   4.260  17.970   9.140
  973BOLB   PO123330   4.320  18.320   8.950
  973BOLB   GL123331   4.150  18.080   8.560
  973BOLB   GL223332   4.230  17.830   8.700
  973BOLB   C1A23333   4.010  18.210   8.060
  973BOLB   C2A23334   4.110  18.280   7.560
  973BOLB   C3A23335   3.950  18.610   7.440
  973BOLB   C4A23336   3.790  18.960   7.080
  973BOLB   C1B23337   4.200  17.650   8.190
  973BOLB   C2B23338   4.020  17.780   7.800
  973BOLB   C3B23339   3.700  17.990   7.610
  973BOLB   C4B23340   3.640  18.410   7.770
  973BOLB   NC223341   1.950  20.170   5.450
  973BOLB   PO223342   1.980  19.740   5.490
  973BOLB   GL323343   2.280  19.570   5.850
  973BOLB   GL423344   2.110  19.460   6.170
  973BOLB   C1C23345   2.650  19.530   6.020
  973BOLB   C2C23346   2.960  19.420   6.220
  973BOLB   C3C23347   3.190  19.170   6.390
  973BOLB   C4C23348   3.440  19.040   6.860
  973BOLB   C1D23349   2.480  19.580   6.480
  973BOLB   C2D23350   2.820  19.690   6.660
  973BOLB   C3D23351   3.200  19.540   6.940
  973BOLB   C4D23352   3.670  19.440   7.110
  974BOLB   NC123353   2.790  21.190  11.070
  974BOLB   PO123354   2.760  21.510  11.380
  974BOLB   GL123355   2.400  21.680  11.400
  974BOLB   GL223356   2.230  21.510  11.050
  974BOLB   C1A23357   1.980  21.960  11.340
  974BOLB   C2A23358   1.710  22.090  10.990
  974BOLB   C3A23359   1.280  22.310  11.010
  974BOLB   C4A23360   0.900  22.410  10.880
  974BOLB   C1B23361   1.960  21.370  10.830
  974BOLB   C2B23362   1.630  21.600  10.760
  974BOLB   C3B23363   1.160  21.790  10.700
  974BOLB   C4B23364   0.720  21.630  10.550
  974BOLB   NC223365  35.620  23.960  10.370
  974BOLB   PO223366  35.520  23.630   9.990
  974BOLB   GL323367  35.700  23.250  10.050
  974BOLB   GL423368  35.990  23.260   9.750
  974BOLB   C1C23369  35.940  22.890  10.230
  974BOLB   C2C23370  36.140  22.430  10.450
  974BOLB   C3C23371   0.110  22.370  10.640
  974BOLB   C4C23372   0.520  22.310  10.930
  974BOLB   C1D23373   0.110  23.320   9.660
  974BOLB   C2D23374   0.330  23.310  10.090
  974BOLB   C3D23375   0.600  23.170  10.420
  974BOLB   C4D23376   0.940  22.940  10.690
  975BOLB   NC123377   6.260  12.170  12.150
  975BOLB   PO123378   6.260  12.020  11.840
  975BOLB   GL123379   6.540  11.700  11.470
  975BOLB   GL223380   6.470  11.890  11.370
  975BOLB   C1A23381   6.840  11.410  11.350
  975BOLB   C2A23382   6.790  11.040  11.160
  975BOLB   C3A23383   6.670  10.640  11.440
  975BOLB   C4A23384   6.590  10.220  11.240
  975BOLB   C1B23385   6.060  11.620  11.360
  975BOLB   C2B23386   5.690  11.390  11.270
  975BOLB   C3B23387   5.380  11.090  11.230
  975BOLB   C4B23388   5.040  10.850  11.160
  975BOLB   NC223389   5.520   8.650   9.790
  975BOLB   PO223390   5.090   8.780   9.760
  975BOLB   GL323391   5.370   9.140   9.800
  975BOLB   GL423392   5.470   9.090  10.110
  975BOLB   C1C23393   5.600   9.520   9.870
  975BOLB   C2C23394   5.920   9.710  10.190
  975BOLB   C3C23395   6.050   9.950  10.520
  975BOLB   C4C23396   6.370  10.220  10.840
  975BOLB   C1D23397   5.580   9.400  10.480
  975BOLB   C2D23398   5.430   9.790  10.480
  975BOLB   C3D23399   5.150   9.960  10.670
  975BOLB   C4D23400   4.790   9.930  10.640
  976BOLB   NC123401  10.700   8.780   7.380
  976BOLB   PO123402  11.120   9.050   7.360
  976BOLB   GL123403  11.140   9.310   7.700
  976BOLB   GL223404  10.780   9.290   7.690
  976BOLB   C1A23405  11.090   9.740   7.880
  976BOLB   C2A23406  11.040  10.190   7.940
  976BOLB   C3A23407  11.080  10.580   7.950
  976BOLB   C4A23408  11.110  11.010   7.770
  976BOLB   C1B23409  10.810   9.640   7.520
  976BOLB   C2B23410  10.610   9.950   7.630
  976BOLB   C3B23411  10.400  10.200   7.760
  976BOLB   C4B23412  10.040  10.380   7.750
  976BOLB   NC223413  10.660  10.450   5.510
  976BOLB   PO223414  11.010  10.470   5.680
  976BOLB   GL323415  11.020  10.610   6.090
  976BOLB   GL423416  10.790  10.500   6.330
  976BOLB   C1C23417  11.180  10.900   6.380
  976BOLB   C2C23418  11.120  11.180   6.720
  976BOLB   C3C23419  11.070  11.320   7.080
  976BOLB   C4C23420  11.210  11.310   7.490
  976BOLB   C1D23421  10.750  10.780   6.680
  976BOLB   C2D23422  10.600  11.090   7.010
  976BOLB   C3D23423  10.720  11.200   7.490
  976BOLB   C4D23424  10.760  11.400   7.800
  977BOLB   NC123425  35.250  17.240   9.340
  977BOLB   PO123426  35.540  16.890   9.460
  977BOLB   GL123427  35.990  17.080   9.340
  977BOLB   GL223428  36.210  16.790   9.420
  977BOLB   C1A23429  36.260  17.480   9.490
  977BOLB   C2A23430   0.250  17.660   9.640
  977BOLB   C3A23431   0.660  17.550   9.730
  977BOLB   C4A23432   0.690  17.950   9.890
  977BOLB   C1B23433   0.350  16.920   9.580
  977BOLB   C2B23434   0.720  17.040   9.770
  977BOLB   C3B23435   1.180  17.100   9.820
  977BOLB   C4B23436   1.680  17.260   9.690
  977BOLB   NC223437  35.300  18.960   8.900
  977BOLB   PO223438  35.670  19.200   8.950
  977BOLB   GL323439  36.000  19.250   9.340
  977BOLB   GL423440  36.340  19.300   9.220
  977BOLB   C1C23441  36.320  19.270   9.730
  977BOLB   C2C23442   0.060  19.030  10.010
  977BOLB   C3C23443   0.230  18.730   9.910
  977BOLB   C4C23444   0.560  18.390   9.930
  977BOLB   C1D23445   0.350  19.070   8.930
  977BOLB   C2D23446   0.290  18.550   8.990
  977BOLB   C3D23447   0.600  18.220   8.970
  977BOLB   C4D23448   0.900  17.820   8.810
  978BOLB   NC123449  13.700  13.350   9.510
  978BOLB   PO123450  13.770  12.860   9.610
  978BOLB   GL123451  13.850  12.780   9.160
  978BOLB   GL223452  14.030  12.520   9.240
  978BOLB   C1A23453  13.840  12.550   8.720
  978BOLB   C2A23454  13.870  12.250   8.450
  978BOLB   C3A23455  14.020  11.890   8.320
  978BOLB   C4A23456  14.290  11.600   8.350
  978BOLB   C1B23457  14.450  12.460   8.960
  978BOLB   C2B23458  14.770  12.210   9.060
  978BOLB   C3B23459  15.160  11.890   9.130
  978BOLB   C4B23460  15.450  11.590   9.290
  978BOLB   NC223461  14.930   9.020   7.930
  978BOLB   PO223462  15.170   9.410   7.910
  978BOLB   GL323463  14.980   9.610   8.200
  978BOLB   GL423464  14.660   9.440   8.380
  978BOLB   C1C23465  14.740  10.020   8.080
  978BOLB   C2C23466  14.480  10.340   8.240
  978BOLB   C3C23467  14.310  10.700   8.460
  978BOLB   C4C23468  14.440  11.170   8.300
  978BOLB   C1D23469  14.540   9.860   8.590
  978BOLB   C2D23470  14.420  10.260   8.690
  978BOLB   C3D23471  14.320  10.510   9.040
  978BOLB   C4D23472  14.440  10.330   9.500
  979BOLB   NC123473   4.240   8.960  13.010
  979BOLB   PO123474   4.080   9.000  13.450
  979BOLB   GL123475   4.260   9.330  13.670
  979BOLB   GL223476   4.010   9.510  13.780
  979BOLB   C1A23477   4.650   9.490  13.530
  979BOLB   C2A23478   4.820   9.880  13.580
  979BOLB   C3A23479   4.810  10.280  13.450
  979BOLB   C4A23480   4.570  10.580  13.160
  979BOLB   C1B23481   4.380   9.720  13.930
  979BOLB   C2B23482   4.520   9.960  14.320
  979BOLB   C3B23483   4.840  10.290  14.480
  979BOLB   C4B23484   5.140  10.510  14.890
  979BOLB   NC223485   3.610   9.360  11.550
  979BOLB   PO223486   3.270   9.680  11.380
  979BOLB   GL323487   3.510   9.790  11.760
  979BOLB   GL423488   3.780   9.850  11.570
  979BOLB   C1C23489   3.810  10.140  12.070
  979BOLB   C2C23490   4.300  10.230  12.200
  979BOLB   C3C23491   4.530  10.540  12.410
  979BOLB   C4C23492   4.550  10.690  12.710
  979BOLB   C1D23493   3.580  10.230  11.640
  979BOLB   C2D23494   3.720  10.600  11.830
  979BOLB   C3D23495   3.670  11.040  12.000
  979BOLB   C4D23496   3.790  11.530  11.940
  980BOLB   NC123497   3.770  22.750  10.050
  980BOLB   PO123498   4.070  22.320  10.190
  980BOLB   GL123499   3.770  22.310   9.740
  980BOLB   GL223500   3.570  22.050   9.790
  980BOLB   C1A23501   3.670  22.640   9.360
  980BOLB   C2A23502   3.420  22.810   9.010
  980BOLB   C3A23503   3.230  23.100   8.720
  980BOLB   C4A23504   2.950  23.310   8.520
  980BOLB   C1B23505   3.540  22.150   9.380
  980BOLB   C2B23506   3.160  22.090   9.080
  980BOLB   C3B23507   2.830  21.980   8.800
  980BOLB   C4B23508   2.740  21.920   8.500
  980BOLB   NC223509   0.650  22.450   7.710
  980BOLB   PO223510   0.660  22.980   7.760
  980BOLB   GL323511   1.080  22.850   7.750
  980BOLB   GL423512   1.200  22.490   7.860
  980BOLB   C1C23513   1.500  22.880   7.750
  980BOLB   C2C23514   1.930  22.930   7.890
  980BOLB   C3C23515   2.150  23.300   8.170
  980BOLB   C4C23516   2.530  23.390   8.290
  980BOLB   C1D23517   1.340  22.360   8.320
  980BOLB   C2D23518   1.710  22.360   8.570
  980BOLB   C3D23519   1.960  22.560   8.720
  980BOLB   C4D23520   2.120  22.510   9.140
  981BOLB   NC123521   5.790  18.970   8.330
  981BOLB   PO123522   5.790  19.300   8.080
  981BOLB   GL123523   5.670  19.230   7.730
  981BOLB   GL223524   5.420  19.120   7.750
  981BOLB   C1A23525   5.770  19.230   7.280
  981BOLB   C2A23526   5.880  19.150   6.950
  981BOLB   C3A23527   5.860  19.410   6.600
  981BOLB   C4A23528   5.830  19.640   6.260
  981BOLB   C1B23529   5.510  18.820   7.450
  981BOLB   C2B23530   5.320  18.450   7.170
  981BOLB   C3B23531   5.160  18.160   6.840
  981BOLB   C4B23532   5.380  17.810   6.610
  981BOLB   NC223533   5.460  19.530   3.630
  981BOLB   PO223534   5.390  19.750   3.950
  981BOLB   GL323535   5.440  19.810   4.340
  981BOLB   GL423536   5.600  20.090   4.510
  981BOLB   C1C23537   5.580  19.680   4.660
  981BOLB   C2C23538   5.810  19.850   5.030
  981BOLB   C3C23539   5.680  19.910   5.420
  981BOLB   C4C23540   5.640  19.760   5.880
  981BOLB   C1D23541   5.380  20.070   4.950
  981BOLB   C2D23542   5.230  20.040   5.440
  981BOLB   C3D23543   5.260  20.150   5.720
  981BOLB   C4D23544   5.370  20.020   6.160
  982BOLB   NC123545  14.160  16.370   2.710
  982BOLB   PO123546  13.800  16.100   2.720
  982BOLB   GL123547  13.500  16.320   2.950
  982BOLB   GL223548  13.260  16.380   3.150
  982BOLB   C1A23549  13.660  16.470   3.370
  982BOLB   C2A23550  14.060  16.670   3.460
  982BOLB   C3A23551  14.170  16.720   3.870
  982BOLB   C4A23552  14.320  16.870   4.210
  982BOLB   C1B23553  13.260  16.510   3.580
  982BOLB   C2B23554  13.380  16.620   4.030
  982BOLB   C3B23555  13.180  16.810   4.430
  982BOLB   C4B23556  13.120  17.200   4.490
  982BOLB   NC223557  15.380  17.900   3.320
  982BOLB   PO223558  15.700  18.160   3.560
  982BOLB   GL323559  15.550  17.950   3.840
  982BOLB   GL423560  15.390  17.710   3.780
  982BOLB   C1C23561  15.450  18.030   4.220
  982BOLB   C2C23562  15.060  17.880   4.370
  982BOLB   C3C23563  14.720  17.630   4.370
  982BOLB   C4C23564  14.570  17.170   4.440
  982BOLB   C1D23565  15.010  17.700   3.920
  982BOLB   C2D23566  14.730  17.330   3.980
  982BOLB   C3D23567  14.740  16.940   3.810
  982BOLB   C4D23568  15.050  16.600   3.980
  983BOLB   NC123569   9.080  12.380  10.090
  983BOLB   PO123570   8.670  12.230  10.240
  983BOLB   GL123571   8.300  12.110  10.000
  983BOLB   GL223572   8.090  12.020  10.260
  983BOLB   C1A23573   8.340  11.870   9.660
  983BOLB   C2A23574   8.230  11.500   9.580
  983BOLB   C3A23575   8.300  11.360   9.180
  983BOLB   C4A23576   8.000  11.520   8.790
  983BOLB   C1B23577   7.980  11.610  10.090
  983BOLB   C2B23578   8.150  11.150   9.910
  983BOLB   C3B23579   7.990  10.950   9.550
  983BOLB   C4B23580   7.950  10.590   9.370
  983BOLB   NC223581   6.600  10.720   6.780
  983BOLB   PO223582   6.830  10.420   7.030
  983BOLB   GL323583   7.150  10.540   7.150
  983BOLB   GL423584   7.520  10.500   7.090
  983BOLB   C1C23585   7.350  10.380   7.570
  983BOLB   C2C23586   7.510  10.580   7.910
  983BOLB   C3C23587   7.750  11.000   8.030
  983BOLB   C4C23588   7.870  11.170   8.480
  983BOLB   C1D23589   7.690  10.860   7.310
  983BOLB   C2D23590   7.590  11.100   7.540
  983BOLB   C3D23591   7.750  11.440   7.760
  983BOLB   C4D23592   7.850  11.550   8.110
  984BOLB   NC123593   8.740  13.540   9.320
  984BOLB   PO123594   9.040  13.890   9.230
  984BOLB   GL123595   8.900  13.810   8.780
  984BOLB   GL223596   9.000  14.010   8.540
  984BOLB   C1A23597   8.590  13.690   8.470
  984BOLB   C2A23598   8.320  13.330   8.420
  984BOLB   C3A23599   8.180  13.100   8.100
  984BOLB   C4A23600   8.120  12.810   8.010
  984BOLB   C1B23601   9.010  13.920   8.100
  984BOLB   C2B23602   8.700  13.820   7.820
  984BOLB   C3B23603   8.460  13.940   7.510
  984BOLB   C4B23604   8.280  13.940   7.090
  984BOLB   NC223605   6.850  11.600   6.010
  984BOLB   PO223606   6.950  11.240   6.170
  984BOLB   GL323607   7.130  11.460   6.420
  984BOLB   GL423608   7.400  11.360   6.560
  984BOLB   C1C23609   7.350  11.800   6.820
  984BOLB   C2C23610   7.340  12.120   7.130
  984BOLB   C3C23611   7.520  12.370   7.510
  984BOLB   C4C23612   7.850  12.580   7.700
  984BOLB   C1D23613   7.770  11.490   6.750
  984BOLB   C2D23614   7.900  11.730   6.970
  984BOLB   C3D23615   7.820  12.050   7.130
  984BOLB   C4D23616   8.100  12.400   7.260
  985BOLB   NC123617   4.590  11.480   7.540
  985BOLB   PO123618   4.920  11.340   7.220
  985BOLB   GL123619   5.060  11.480   7.600
  985BOLB   GL223620   5.000  11.810   7.460
  985BOLB   C1A23621   5.360  11.620   7.830
  985BOLB   C2A23622   5.780  11.660   7.930
  985BOLB   C3A23623   5.910  11.940   8.250
  985BOLB   C4A23624   6.120  12.260   8.340
  985BOLB   C1B23625   5.350  11.990   7.420
  985BOLB   C2B23626   5.770  12.260   7.450
  985BOLB   C3B23627   6.110  12.260   7.820
  985BOLB   C4B23628   6.420  12.590   7.940
  985BOLB   NC223629   7.720  14.330   8.840
  985BOLB   PO223630   7.840  13.960   9.050
  985BOLB   GL323631   7.560  13.790   8.780
  985BOLB   GL423632   7.520  14.050   8.500
  985BOLB   C1C23633   7.350  13.460   8.650
  985BOLB   C2C23634   7.100  13.140   8.370
  985BOLB   C3C23635   6.880  12.800   8.280
  985BOLB   C4C23636   6.650  12.460   8.380
  985BOLB   C1D23637   7.230  13.800   8.330
  985BOLB   C2D23638   7.070  13.750   7.970
  985BOLB   C3D23639   7.010  13.770   7.600
  985BOLB   C4D23640   7.100  13.820   7.090
  986BOLB   NC123641  22.690  16.220   9.820
  986BOLB   PO123642  22.670  16.630   9.630
  986BOLB   GL123643  22.280  16.670   9.810
  986BOLB   GL223644  22.130  16.390   9.910
  986BOLB   C1A23645  21.860  16.820   9.860
  986BOLB   C2A23646  21.590  17.020  10.190
  986BOLB   C3A23647  21.250  17.370  10.210
  986BOLB   C4A23648  21.120  17.850  10.120
  986BOLB   C1B23649  22.000  16.480  10.320
  986BOLB   C2B23650  21.880  16.390  10.710
  986BOLB   C3B23651  21.620  16.490  11.100
  986BOLB   C4B23652  21.420  16.710  11.490
  986BOLB   NC223653  22.230  19.160   8.170
  986BOLB   PO223654  21.840  19.120   8.520
  986BOLB   GL323655  21.700  18.930   8.870
  986BOLB   GL423656  21.580  19.300   8.980
  986BOLB   C1C23657  21.700  18.690   9.280
  986BOLB   C2C23658  21.610  18.450   9.610
  986BOLB   C3C23659  21.350  18.320   9.900
  986BOLB   C4C23660  21.040  18.160  10.050
  986BOLB   C1D23661  21.380  19.090   9.270
  986BOLB   C2D23662  21.170  18.720   9.240
  986BOLB   C3D23663  21.050  18.370   9.440
  986BOLB   C4D23664  21.100  17.930   9.470
  987BOLB   NC123665   7.130  13.140  10.110
  987BOLB   PO123666   6.740  13.220  10.340
  987BOLB   GL123667   6.580  13.000  10.070
  987BOLB   GL223668   6.760  12.840   9.910
  987BOLB   C1A23669   6.290  12.680   9.990
  987BOLB   C2A23670   5.980  12.520  10.100
  987BOLB   C3A23671   5.680  12.190  10.000
  987BOLB   C4A23672   5.510  11.820   9.860
  987BOLB   C1B23673   6.410  12.750   9.550
  987BOLB   C2B23674   6.180  12.370   9.260
  987BOLB   C3B23675   5.870  12.370   9.100
  987BOLB   C4B23676   5.340  12.320   9.320
  987BOLB   NC223677   3.470  10.710   9.360
  987BOLB   PO223678   3.740  10.450   9.160
  987BOLB   GL323679   4.140  10.510   9.480
  987BOLB   GL423680   4.220  10.340   9.800
  987BOLB   C1C23681   4.490  10.680   9.510
  987BOLB   C2C23682   4.900  10.820   9.640
  987BOLB   C3C23683   5.140  11.160   9.880
  987BOLB   C4C23684   5.390  11.410   9.840
  987BOLB   C1D23685   4.100  10.430  10.260
  987BOLB   C2D23686   4.020  10.850  10.350
  987BOLB   C3D23687   4.160  10.990  10.730
  987BOLB   C4D23688   4.540  10.820  10.860
  988BOLB   NC123689   9.860  15.600   7.590
  988BOLB   PO123690   9.540  15.410   7.770
  988BOLB   GL123691   9.620  15.110   7.390
  988BOLB   GL223692   9.360  14.810   7.390
  988BOLB   C1A23693   9.720  14.890   7.060
  988BOLB   C2A23694   9.400  14.830   6.760
  988BOLB   C3A23695   8.910  14.750   6.710
  988BOLB   C4A23696   8.620  14.510   6.480
  988BOLB   C1B23697   9.520  14.410   7.410
  988BOLB   C2B23698   9.500  13.980   7.210
  988BOLB   C3B23699   9.370  13.530   7.160
  988BOLB   C4B23700   9.400  13.150   6.830
  988BOLB   NC223701   7.420  12.330   5.660
  988BOLB   PO223702   7.540  12.670   5.440
  988BOLB   GL323703   7.530  12.910   5.780
  988BOLB   GL423704   7.580  12.680   6.040
  988BOLB   C1C23705   7.570  13.300   5.960
  988BOLB   C2C23706   7.670  13.680   6.090
  988BOLB   C3C23707   7.880  13.930   6.390
  988BOLB   C4C23708   8.300  14.130   6.450
  988BOLB   C1D23709   7.520  12.860   6.530
  988BOLB   C2D23710   7.400  13.080   6.890
  988BOLB   C3D23711   7.660  13.410   7.140
  988BOLB   C4D23712   7.930  13.620   7.380
  989BOLB   NC123713  10.470  23.850   8.970
  989BOLB   PO123714  10.110  23.920   9.290
  989BOLB   GL123715  10.070  24.230   8.970
  989BOLB   GL223716  10.040  24.020   8.760
  989BOLB   C1A23717  10.110  24.570   8.800
  989BOLB   C2A23718   9.930  24.910   8.550
  989BOLB   C3A23719   9.840  25.340   8.360
  989BOLB   C4A23720   9.730  25.700   8.150
  989BOLB   C1B23721  10.160  24.390   8.360
  989BOLB   C2B23722  10.070  24.730   8.120
  989BOLB   C3B23723  10.100  25.050   7.960
  989BOLB   C4B23724  10.230  25.410   8.100
  989BOLB   NC223725   9.570  27.170   5.970
  989BOLB   PO223726   9.880  27.060   6.260
  989BOLB   GL323727   9.870  26.740   6.630
  989BOLB   GL423728  10.170  26.530   6.720
  989BOLB   C1C23729   9.730  26.600   6.980
  989BOLB   C2C23730   9.650  26.510   7.430
  989BOLB   C3C23731   9.460  26.310   7.820
  989BOLB   C4C23732   9.520  26.010   8.120
  989BOLB   C1D23733  10.200  26.140   6.950
  989BOLB   C2D23734   9.870  26.040   7.090
  989BOLB   C3D23735   9.970  25.590   7.240
  989BOLB   C4D23736   9.740  25.230   7.270
  990BOLB   NC123737   5.250  23.700  10.390
  990BOLB   PO123738   5.420  23.540  10.010
  990BOLB   GL123739   5.360  23.590   9.580
  990BOLB   GL223740   5.600  23.400   9.360
  990BOLB   C1A23741   5.150  23.790   9.250
  990BOLB   C2A23742   4.970  24.030   8.950
  990BOLB   C3A23743   5.230  24.330   8.700
  990BOLB   C4A23744   5.400  24.170   8.220
  990BOLB   C1B23745   5.540  23.490   9.040
  990BOLB   C2B23746   5.260  23.700   8.780
  990BOLB   C3B23747   4.990  23.800   8.470
  990BOLB   C4B23748   4.980  23.770   7.990
  990BOLB   NC223749   6.050  25.350   6.420
  990BOLB   PO223750   5.820  25.010   6.160
  990BOLB   GL323751   5.930  24.940   6.660
  990BOLB   GL423752   5.840  25.210   6.890
  990BOLB   C1C23753   6.080  24.740   7.010
  990BOLB   C2C23754   6.360  24.510   7.220
  990BOLB   C3C23755   6.050  24.310   7.530
  990BOLB   C4C23756   5.680  24.320   7.930
  990BOLB   C1D23757   5.770  25.400   7.270
  990BOLB   C2D23758   6.020  25.410   7.530
  990BOLB   C3D23759   5.970  25.260   7.920
  990BOLB   C4D23760   5.860  24.820   7.950
  991BOLB   NC123761   3.320  20.250  10.180
  991BOLB   PO123762   3.510  20.100   9.830
  991BOLB   GL123763   3.200  20.300   9.660
  991BOLB   GL223764   3.180  20.540   9.450
  991BOLB   C1A23765   2.900  20.040   9.300
  991BOLB   C2A23766   2.600  20.110   8.910
  991BOLB   C3A23767   2.350  20.430   8.960
  991BOLB   C4A23768   1.980  20.480   8.820
  991BOLB   C1B23769   2.810  20.600   9.220
  991BOLB   C2B23770   2.480  20.880   9.220
  991BOLB   C3B23771   2.070  20.900   9.110
  991BOLB   C4B23772   1.920  21.250   8.870
  991BOLB   NC223773   0.050  18.900   7.290
  991BOLB   PO223774   0.390  19.060   7.570
  991BOLB   GL323775   0.660  19.050   7.950
  991BOLB   GL423776   0.820  18.760   8.070
  991BOLB   C1C23777   0.950  19.380   8.160
  991BOLB   C2C23778   1.130  19.490   8.500
  991BOLB   C3C23779   1.370  19.740   8.800
  991BOLB   C4C23780   1.660  20.130   8.930
  991BOLB   C1D23781   1.090  18.610   8.390
  991BOLB   C2D23782   1.440  18.430   8.550
  991BOLB   C3D23783   1.670  18.130   8.590
  991BOLB   C4D23784   1.770  17.690   8.400
  992BOLB   NC123785  10.340   6.910  17.070
  992BOLB   PO123786   9.860   6.890  17.180
  992BOLB   GL123787  10.000   7.290  16.870
  992BOLB   GL223788  10.290   7.340  16.750
  992BOLB   C1A23789   9.710   7.700  16.740
  992BOLB   C2A23790   9.770   8.040  16.510
  992BOLB   C3A23791  10.020   8.320  16.660
  992BOLB   C4A23792  10.390   8.390  16.840
  992BOLB   C1B23793  10.200   7.780  16.770
  992BOLB   C2B23794  10.290   8.010  16.410
  992BOLB   C3B23795  10.060   8.380  16.150
  992BOLB   C4B23796   9.890   8.400  15.770
  992BOLB   NC223797  11.300   6.880  18.040
  992BOLB   PO223798  11.470   6.740  17.820
  992BOLB   GL323799  11.640   7.180  17.810
  992BOLB   GL423800  11.930   7.350  17.960
  992BOLB   C1C23801  11.590   7.520  17.560
  992BOLB   C2C23802  11.500   7.880  17.120
  992BOLB   C3C23803  11.130   8.000  16.850
  992BOLB   C4C23804  10.650   8.200  16.990
  992BOLB   C1D23805  11.910   7.780  18.090
  992BOLB   C2D23806  11.840   8.190  18.190
  992BOLB   C3D23807  11.460   8.520  18.220
  992BOLB   C4D23808  11.340   8.910  18.380
  993BOLB   NC123809   6.690  24.340  10.370
  993BOLB   PO123810   6.710  23.960  10.030
  993BOLB   GL123811   6.620  24.350   9.730
  993BOLB   GL223812   6.520  24.540   9.900
  993BOLB   C1A23813   6.460  24.660   9.270
  993BOLB   C2A23814   6.390  25.040   8.940
  993BOLB   C3A23815   6.390  25.270   8.570
  993BOLB   C4A23816   6.230  25.530   8.350
  993BOLB   C1B23817   6.290  24.890   9.770
  993BOLB   C2B23818   6.080  25.220   9.580
  993BOLB   C3B23819   5.950  25.630   9.660
  993BOLB   C4B23820   5.800  25.990   9.900
  993BOLB   NC223821   5.140  27.750   8.630
  993BOLB   PO223822   5.650  27.790   8.380
  993BOLB   GL323823   5.630  27.460   8.660
  993BOLB   GL423824   5.510  27.330   8.560
  993BOLB   C1C23825   5.950  27.130   8.620
  993BOLB   C2C23826   6.130  26.750   8.400
  993BOLB   C3C23827   6.190  26.350   8.620
  993BOLB   C4C23828   6.060  25.840   8.630
  993BOLB   C1D23829   5.580  26.840   8.370
  993BOLB   C2D23830   5.310  26.480   8.460
  993BOLB   C3D23831   5.120  26.270   8.340
  993BOLB   C4D23832   5.050  25.890   8.500
  994BOLB   NC123833  10.760  18.410   2.570
  994BOLB   PO123834  10.740  17.920   2.740
  994BOLB   GL123835  10.800  17.910   3.190
  994BOLB   GL223836  11.100  17.850   3.280
  994BOLB   C1A23837  10.720  17.740   3.550
  994BOLB   C2A23838  10.670  17.650   3.960
  994BOLB   C3A23839  10.900  17.630   4.320
  994BOLB   C4A23840  11.130  17.510   4.690
  994BOLB   C1B23841  11.060  18.100   3.640
  994BOLB   C2B23842  10.780  18.360   3.860
  994BOLB   C3B23843  10.550  18.610   4.070
  994BOLB   C4B23844  10.380  18.360   4.500
  994BOLB   NC223845  11.660  17.040   6.970
  994BOLB   PO223846  11.720  17.190   6.540
  994BOLB   GL323847  11.600  17.060   6.160
  994BOLB   GL423848  11.370  17.370   6.050
  994BOLB   C1C23849  11.370  16.820   5.860
  994BOLB   C2C23850  11.290  16.780   5.450
  994BOLB   C3C23851  11.190  16.870   5.020
  994BOLB   C4C23852  11.240  17.230   4.920
  994BOLB   C1D23853  11.070  17.200   5.830
  994BOLB   C2D23854  11.010  17.250   5.390
  994BOLB   C3D23855  10.760  17.080   5.100
  994BOLB   C4D23856  10.400  17.240   5.020
  995BOLB   NC123857  11.620  12.610   8.850
  995BOLB   PO123858  11.340  12.280   8.990
  995BOLB   GL123859  11.520  12.050   8.820
  995BOLB   GL223860  11.590  12.230   8.560
  995BOLB   C1A23861  11.220  11.800   8.490
  995BOLB   C2A23862  10.810  11.790   8.240
  995BOLB   C3A23863  10.660  11.850   7.900
  995BOLB   C4A23864  10.490  11.760   7.490
  995BOLB   C1B23865  11.750  11.900   8.410
  995BOLB   C2B23866  11.640  11.550   8.160
  995BOLB   C3B23867  11.630  11.270   8.010
  995BOLB   C4B23868  11.530  10.830   7.910
  995BOLB   NC223869   9.260  10.550   5.140
  995BOLB   PO223870   9.370  10.870   5.580
  995BOLB   GL323871   9.470  11.150   5.860
  995BOLB   GL423872   9.320  10.970   6.140
  995BOLB   C1C23873   9.760  11.100   6.240
  995BOLB   C2C23874   9.800  11.070   6.660
  995BOLB   C3C23875  10.080  11.340   6.890
  995BOLB   C4C23876  10.300  11.550   7.150
  995BOLB   C1D23877   9.260  11.230   6.490
  995BOLB   C2D23878   9.450  11.420   6.770
  995BOLB   C3D23879   9.280  11.480   7.280
  995BOLB   C4D23880   9.190  11.070   7.410
  996BOLB   NC123881  12.080  31.510  13.720
  996BOLB   PO123882  12.370  31.510  13.360
  996BOLB   GL123883  12.320  31.090  13.240
  996BOLB   GL223884  12.540  31.070  13.010
  996BOLB   C1A23885  11.970  30.800  13.370
  996BOLB   C2A23886  11.760  30.620  13.610
  996BOLB   C3A23887  11.630  30.310  13.960
  996BOLB   C4A23888  11.630  30.310  14.220
  996BOLB   C1B23889  12.730  30.820  13.420
  996BOLB   C2B23890  12.780  30.440  13.710
  996BOLB   C3B23891  12.470  30.090  13.930
  996BOLB   C4B23892  12.390  29.850  14.260
  996BOLB   NC223893  11.290  32.120  13.270
  996BOLB   PO223894  10.940  31.840  13.570
  996BOLB   GL323895  11.000  31.440  13.750
  996BOLB   GL423896  11.110  31.240  13.490
  996BOLB   C1C23897  10.840  31.260  14.060
  996BOLB   C2C23898  10.840  30.980  14.480
  996BOLB   C3C23899  11.120  30.710  14.730
  996BOLB   C4C23900  11.340  30.310  14.620
  996BOLB   C1D23901  11.030  30.930  13.530
  996BOLB   C2D23902  10.780  30.670  13.660
  996BOLB   C3D23903  10.710  30.560  14.120
  996BOLB   C4D23904  10.850  30.320  14.530
  997BOLB   NC123905   5.410  20.000   8.850
  997BOLB   PO123906   5.610  20.160   8.580
  997BOLB   GL123907   5.630  20.220   8.120
  997BOLB   GL223908   5.820  20.410   8.020
  997BOLB   C1A23909   5.390  20.340   7.690
  997BOLB   C2A23910   4.980  20.660   7.650
  997BOLB   C3A23911   4.520  20.730   7.750
  997BOLB   C4A23912   4.260  21.080   7.600
  997BOLB   C1B23913   5.910  20.580   7.560
  997BOLB   C2B23914   5.650  20.660   7.240
  997BOLB   C3B23915   5.340  20.380   6.920
  997BOLB   C4B23916   5.440  19.980   6.730
  997BOLB   NC223917   2.480  22.150   6.320
  997BOLB   PO223918   2.390  21.720   6.170
  997BOLB   GL323919   2.670  21.670   6.490
  997BOLB   GL423920   2.530  21.770   6.670
  997BOLB   C1C23921   3.020  21.630   6.630
  997BOLB   C2C23922   3.280  21.430   6.870
  997BOLB   C3C23923   3.540  21.360   7.140
  997BOLB   C4C23924   3.890  21.210   7.330
  997BOLB   C1D23925   2.780  22.020   6.970
  997BOLB   C2D23926   2.990  21.960   7.340
  997BOLB   C3D23927   3.230  21.890   7.700
  997BOLB   C4D23928   3.590  21.920   8.110
  998BOLB   NC123929   9.710  12.980   9.070
  998BOLB   PO123930   9.260  12.870   8.970
  998BOLB   GL123931   9.200  12.430   8.900
  998BOLB   GL223932   8.950  12.250   9.110
  998BOLB   C1A23933   9.150  12.070   8.580
  998BOLB   C2A23934   9.300  11.900   8.140
  998BOLB   C3A23935   9.160  11.960   7.860
  998BOLB   C4A23936   9.050  11.920   7.360
  998BOLB   C1B23937   8.580  12.070   8.920
  998BOLB   C2B23938   8.270  11.910   9.050
  998BOLB   C3B23939   7.940  12.050   8.940
  998BOLB   C4B23940   7.780  12.490   8.750
  998BOLB   NC223941   7.430  11.480   5.990
  998BOLB   PO223942   7.660  11.570   5.590
  998BOLB   GL323943   7.790  11.830   5.940
  998BOLB   GL423944   7.750  12.250   6.170
  998BOLB   C1C23945   8.050  11.700   6.180
  998BOLB   C2C23946   8.400  11.930   6.460
  998BOLB   C3C23947   8.810  12.040   6.660
  998BOLB   C4C23948   8.970  12.200   7.060
  998BOLB   C1D23949   7.900  12.550   6.420
  998BOLB   C2D23950   8.040  12.810   6.700
  998BOLB   C3D23951   8.060  13.270   6.770
  998BOLB   C4D23952   7.960  13.720   6.830
  999BOLB   NC123953   4.060  18.760   9.640
  999BOLB   PO123954   3.930  19.220   9.460
  999BOLB   GL123955   3.790  19.320   9.080
  999BOLB   GL223956   3.600  19.600   9.200
  999BOLB   C1A23957   3.560  19.410   8.720
  999BOLB   C2A23958   3.270  19.480   8.320
  999BOLB   C3A23959   2.920  19.570   8.150
  999BOLB   C4A23960   2.800  19.720   7.790
  999BOLB   C1B23961   3.230  19.800   9.000
  999BOLB   C2B23962   2.910  19.640   8.660
  999BOLB   C3B23963   2.550  19.890   8.480
  999BOLB   C4B23964   2.200  20.230   8.450
  999BOLB   NC223965   0.950  19.380   6.400
  999BOLB   PO223966   1.160  18.960   6.380
  999BOLB   GL323967   1.350  19.310   6.600
  999BOLB   GL423968   1.590  19.320   6.430
  999BOLB   C1C23969   1.560  19.560   6.920
  999BOLB   C2C23970   1.760  19.600   7.290
  999BOLB   C3C23971   2.060  19.570   7.730
  999BOLB   C4C23972   2.320  19.750   7.960
  999BOLB   C1D23973   2.000  19.490   6.630
  999BOLB   C2D23974   2.090  19.350   7.050
  999BOLB   C3D23975   2.390  19.400   7.410
  999BOLB   C4D23976   2.620  19.270   7.630
 1000BOLB   NC123977   3.450  13.270   6.930
 1000BOLB   PO123978   3.010  13.480   7.030
 1000BOLB   GL123979   3.230  13.520   7.470
 1000BOLB   GL223980   3.450  13.160   7.530
 1000BOLB   C1A23981   3.600  13.710   7.640
 1000BOLB   C2A23982   3.720  14.060   7.730
 1000BOLB   C3A23983   3.660  14.280   8.110
 1000BOLB   C4A23984   3.570  14.660   8.190
 1000BOLB   C1B23985   3.740  13.210   7.840
 1000BOLB   C2B23986   4.090  13.380   8.190
 1000BOLB   C3B23987   4.140  13.500   8.620
 1000BOLB   C4B23988   4.370  13.450   8.920
 1000BOLB   NC223989   1.350  15.460   7.570
 1000BOLB   PO223990   1.350  15.080   7.750
 1000BOLB   GL323991   1.550  15.230   8.140
 1000BOLB   GL423992   1.800  15.550   8.130
 1000BOLB   C1C23993   1.960  15.030   8.260
 1000BOLB   C2C23994   2.370  14.990   8.260
 1000BOLB   C3C23995   2.820  14.850   8.320
 1000BOLB   C4C23996   3.180  14.790   8.250
 1000BOLB   C1D23997   2.110  15.690   8.420
 1000BOLB   C2D23998   2.460  15.960   8.530
 1000BOLB   C3D23999   2.640  16.280   8.480
 1000BOLB   C4D24000   2.920  16.280   8.160
 1001BOLB   NC124001   3.100  24.910  17.500
 1001BOLB   PO124002   2.920  24.510  17.360
 1001BOLB   GL124003   2.560  24.790  17.310
 1001BOLB   GL224004   2.390  24.980  17.120
 1001BOLB   C1A24005   2.300  24.950  17.610
 1001BOLB   C2A24006   2.220  25.220  17.940
 1001BOLB   C3A24007   2.170  25.640  18.040
 1001BOLB   C4A24008   2.040  26.130  17.830
 1001BOLB   C1B24009   2.200  25.340  17.250
 1001BOLB   C2B24010   1.920  25.580  17.550
 1001BOLB   C3B24011   1.710  25.780  18.090
 1001BOLB   C4B24012   1.800  25.820  18.430
 1001BOLB   NC224013   0.150  27.550  17.970
 1001BOLB   PO224014   0.320  27.710  18.270
 1001BOLB   GL324015   0.640  27.460  18.060
 1001BOLB   GL424016   0.910  27.580  18.070
 1001BOLB   C1C24017   0.740  27.040  17.930
 1001BOLB   C2C24018   1.030  26.750  18.040
 1001BOLB   C3C24019   1.360  26.550  18.000
 1001BOLB   C4C24020   1.620  26.260  17.820
 1001BOLB   C1D24021   1.140  27.200  18.100
 1001BOLB   C2D24022   1.500  27.000  18.180
 1001BOLB   C3D24023   1.870  26.730  18.150
 1001BOLB   C4D24024   2.110  26.490  18.310
 1002BOLB   NC124025  14.070  14.410   7.520
 1002BOLB   PO124026  14.290  14.710   7.500
 1002BOLB   GL124027  14.480  14.740   7.180
 1002BOLB   GL224028  14.140  14.660   6.980
 1002BOLB   C1A24029  14.940  14.640   7.020
 1002BOLB   C2A24030  14.990  14.970   6.740
 1002BOLB   C3A24031  15.220  15.150   6.440
 1002BOLB   C4A24032  15.490  15.400   6.120
 1002BOLB   C1B24033  14.440  14.470   6.610
 1002BOLB   C2B24034  14.830  14.550   6.570
 1002BOLB   C3B24035  15.090  14.790   6.120
 1002BOLB   C4B24036  15.310  14.940   5.790
 1002BOLB   NC224037  17.060  14.860   4.150
 1002BOLB   PO224038  16.790  14.970   4.020
 1002BOLB   GL324039  16.740  15.220   4.410
 1002BOLB   GL424040  16.960  15.180   4.630
 1002BOLB   C1C24041  16.510  15.270   4.830
 1002BOLB   C2C24042  16.370  15.360   5.240
 1002BOLB   C3C24043  16.150  15.280   5.640
 1002BOLB   C4C24044  15.840  15.240   5.920
 1002BOLB   C1D24045  16.700  14.830   4.890
 1002BOLB   C2D24046  16.520  14.650   5.220
 1002BOLB   C3D24047  16.300  14.340   5.560
 1002BOLB   C4D24048  16.460  14.280   5.930
 1003BOLB   NC124049  22.150  23.760  19.260
 1003BOLB   PO124050  21.730  23.940  19.410
 1003BOLB   GL124051  21.360  23.830  19.100
 1003BOLB   GL224052  21.360  23.480  19.120
 1003BOLB   C1A24053  21.100  23.910  18.800
 1003BOLB   C2A24054  20.840  23.980  18.380
 1003BOLB   C3A24055  20.400  23.990  18.180
 1003BOLB   C4A24056  20.140  24.150  17.770
 1003BOLB   C1B24057  21.040  23.410  18.700
 1003BOLB   C2B24058  20.830  23.170  18.400
 1003BOLB   C3B24059  20.350  23.140  18.300
 1003BOLB   C4B24060  20.000  23.290  18.230
 1003BOLB   NC224061  22.100  25.920  17.280
 1003BOLB   PO224062  21.900  25.480  17.100
 1003BOLB   GL324063  21.730  25.130  17.190
 1003BOLB   GL424064  21.630  24.900  16.950
 1003BOLB   C1C24065  21.400  24.890  17.380
 1003BOLB   C2C24066  21.240  24.550  17.550
 1003BOLB   C3C24067  20.740  24.430  17.410
 1003BOLB   C4C24068  20.360  24.320  17.460
 1003BOLB   C1D24069  21.400  24.540  16.740
 1003BOLB   C2D24070  21.200  24.250  16.480
 1003BOLB   C3D24071  20.890  24.070  16.210
 1003BOLB   C4D24072  20.490  23.850  16.230
 1004BOLB   NC124073  16.250  15.240   8.770
 1004BOLB   PO124074  16.670  15.150   9.060
 1004BOLB   GL124075  16.720  14.970   8.650
 1004BOLB   GL224076  16.510  14.800   8.470
 1004BOLB   C1A24077  17.040  15.070   8.320
 1004BOLB   C2A24078  17.470  15.220   8.390
 1004BOLB   C3A24079  17.910  15.240   8.310
 1004BOLB   C4A24080  18.360  15.220   8.130
 1004BOLB   C1B24081  16.630  14.590   8.150
 1004BOLB   C2B24082  16.500  14.230   7.960
 1004BOLB   C3B24083  16.540  13.880   8.160
 1004BOLB   C4B24084  16.650  13.430   8.250
 1004BOLB   NC224085  19.890  14.850   6.660
 1004BOLB   PO224086  19.580  14.810   6.370
 1004BOLB   GL324087  19.510  14.520   6.730
 1004BOLB   GL424088  19.410  14.240   6.620
 1004BOLB   C1C24089  19.120  14.640   7.040
 1004BOLB   C2C24090  18.980  14.730   7.410
 1004BOLB   C3C24091  18.910  14.880   7.790
 1004BOLB   C4C24092  18.780  15.000   8.190
 1004BOLB   C1D24093  19.140  14.100   6.950
 1004BOLB   C2D24094  18.880  14.230   7.260
 1004BOLB   C3D24095  18.660  14.430   7.530
 1004BOLB   C4D24096  18.420  14.610   7.920
 1005BOLB   NC124097   5.360  13.620  12.250
 1005BOLB   PO124098   4.900  13.750  12.140
 1005BOLB   GL124099   4.700  13.380  11.990
 1005BOLB   GL224100   4.360  13.310  12.020
 1005BOLB   C1A24101   4.580  13.060  11.640
 1005BOLB   C2A24102   4.370  12.610  11.550
 1005BOLB   C3A24103   4.380  12.240  11.250
 1005BOLB   C4A24104   4.310  11.980  10.870
 1005BOLB   C1B24105   4.300  12.980  12.000
 1005BOLB   C2B24106   4.060  12.580  12.000
 1005BOLB   C3B24107   3.860  12.340  11.780
 1005BOLB   C4B24108   3.740  11.910  11.630
 1005BOLB   NC224109   2.970  11.550   9.000
 1005BOLB   PO224110   3.440  11.370   8.850
 1005BOLB   GL324111   3.770  11.420   9.140
 1005BOLB   GL424112   3.780  11.040   9.260
 1005BOLB   C1C24113   4.050  11.470   9.470
 1005BOLB   C2C24114   4.290  11.490   9.810
 1005BOLB   C3C24115   4.540  11.660  10.170
 1005BOLB   C4C24116   4.450  11.840  10.580
 1005BOLB   C1D24117   4.150  10.980   9.290
 1005BOLB   C2D24118   4.430  11.150   9.510
 1005BOLB   C3D24119   4.630  11.170   9.930
 1005BOLB   C4D24120   4.430  11.140  10.280
 1006BOLB   NC124121   5.560  22.340   9.260
 1006BOLB   PO124122   5.120  22.230   9.240
 1006BOLB   GL124123   5.060  22.350   8.830
 1006BOLB   GL224124   4.690  22.400   8.910
 1006BOLB   C1A24125   4.940  22.470   8.320
 1006BOLB   C2A24126   4.540  22.440   7.930
 1006BOLB   C3A24127   4.280  22.530   7.620
 1006BOLB   C4A24128   4.120  22.140   7.410
 1006BOLB   C1B24129   4.450  22.670   8.610
 1006BOLB   C2B24130   4.270  23.010   8.410
 1006BOLB   C3B24131   4.270  23.390   8.600
 1006BOLB   C4B24132   4.520  23.760   8.510
 1006BOLB   NC224133   3.810  21.880   4.800
 1006BOLB   PO224134   3.450  21.890   5.220
 1006BOLB   GL324135   3.720  21.960   5.640
 1006BOLB   GL424136   3.720  21.690   5.950
 1006BOLB   C1C24137   4.010  22.130   5.940
 1006BOLB   C2C24138   4.130  22.240   6.430
 1006BOLB   C3C24139   4.360  22.110   6.810
 1006BOLB   C4C24140   4.370  21.980   7.100
 1006BOLB   C1D24141   3.930  21.760   6.270
 1006BOLB   C2D24142   4.260  21.550   6.500
 1006BOLB   C3D24143   4.460  21.480   6.910
 1006BOLB   C4D24144   4.470  21.460   7.340
 1007BOLB   NC124145   4.900  17.360   4.160
 1007BOLB   PO124146   5.020  17.280   4.590
 1007BOLB   GL124147   5.320  17.100   4.850
 1007BOLB   GL224148   5.340  16.700   4.900
 1007BOLB   C1A24149   5.230  17.210   5.310
 1007BOLB   C2A24150   5.190  17.590   5.540
 1007BOLB   C3A24151   4.930  17.940   5.750
 1007BOLB   C4A24152   4.970  18.190   6.110
 1007BOLB   C1B24153   5.690  16.570   5.060
 1007BOLB   C2B24154   6.000  16.660   5.260
 1007BOLB   C3B24155   6.440  16.640   5.410
 1007BOLB   C4B24156   6.550  16.330   5.710
 1007BOLB   NC224157   5.300  19.280   8.200
 1007BOLB   PO224158   5.270  18.890   8.180
 1007BOLB   GL324159   4.900  18.870   7.920
 1007BOLB   GL424160   4.880  19.220   7.810
 1007BOLB   C1C24161   5.020  18.810   7.450
 1007BOLB   C2C24162   4.810  18.520   7.230
 1007BOLB   C3C24163   4.770  18.500   6.770
 1007BOLB   C4C24164   4.790  18.110   6.510
 1007BOLB   C1D24165   4.760  19.200   7.410
 1007BOLB   C2D24166   4.840  18.970   6.940
 1007BOLB   C3D24167   4.880  18.800   6.420
 1007BOLB   C4D24168   5.150  18.860   6.130
 1008BOLB   NC124169   2.290  25.390   7.530
 1008BOLB   PO124170   2.550  25.160   7.880
 1008BOLB   GL124171   2.570  24.900   8.170
 1008BOLB   GL224172   2.370  25.090   8.350
 1008BOLB   C1A24173   2.460  24.640   8.570
 1008BOLB   C2A24174   2.680  24.320   8.880
 1008BOLB   C3A24175   2.730  24.010   9.170
 1008BOLB   C4A24176   2.420  23.810   9.340
 1008BOLB   C1B24177   2.190  25.030   8.720
 1008BOLB   C2B24178   2.430  24.860   9.120
 1008BOLB   C3B24179   2.700  24.700   9.530
 1008BOLB   C4B24180   2.980  24.590   9.810
 1008BOLB   NC224181   1.500  24.070   7.500
 1008BOLB   PO224182   1.240  24.340   7.680
 1008BOLB   GL324183   1.400  24.210   7.970
 1008BOLB   GL424184   1.740  24.230   7.990
 1008BOLB   C1C24185   1.450  23.930   8.270
 1008BOLB   C2C24186   1.450  23.650   8.490
 1008BOLB   C3C24187   1.570  23.480   8.880
 1008BOLB   C4C24188   2.060  23.570   9.110
 1008BOLB   C1D24189   1.870  23.710   8.240
 1008BOLB   C2D24190   2.010  23.480   8.640
 1008BOLB   C3D24191   2.480  23.510   8.780
 1008BOLB   C4D24192   2.830  23.880   8.720
 1009BOLB   NC124193  14.460  11.770   5.130
 1009BOLB   PO124194  14.210  12.290   5.340
 1009BOLB   GL124195  14.330  12.600   5.550
 1009BOLB   GL224196  14.670  12.530   5.650
 1009BOLB   C1A24197  14.170  12.860   5.690
 1009BOLB   C2A24198  14.010  13.190   5.910
 1009BOLB   C3A24199  13.920  13.560   6.120
 1009BOLB   C4A24200  13.780  14.000   5.970
 1009BOLB   C1B24201  14.680  12.750   5.990
 1009BOLB   C2B24202  14.600  12.780   6.410
 1009BOLB   C3B24203  14.440  12.770   6.840
 1009BOLB   C4B24204  14.110  12.900   7.110
 1009BOLB   NC224205  14.340  13.290   4.070
 1009BOLB   PO224206  13.970  13.280   4.390
 1009BOLB   GL324207  13.650  13.410   4.520
 1009BOLB   GL424208  13.350  13.380   4.500
 1009BOLB   C1C24209  13.480  13.840   4.490
 1009BOLB   C2C24210  13.470  14.230   4.790
 1009BOLB   C3C24211  13.510  14.070   5.110
 1009BOLB   C4C24212  13.640  14.130   5.590
 1009BOLB   C1D24213  13.320  13.290   4.910
 1009BOLB   C2D24214  13.440  13.290   5.330
 1009BOLB   C3D24215  13.440  13.540   5.810
 1009BOLB   C4D24216  13.300  13.970   5.890
 1010BOLB   NC124217  10.620  15.850   8.120
 1010BOLB   PO124218  10.340  15.520   7.830
 1010BOLB   GL124219  10.350  15.410   7.470
 1010BOLB   GL224220  10.630  15.260   7.280
 1010BOLB   C1A24221  10.220  15.340   7.060
 1010BOLB   C2A24222  10.120  15.030   6.770
 1010BOLB   C3A24223   9.810  14.740   6.540
 1010BOLB   C4A24224   9.430  14.670   6.280
 1010BOLB   C1B24225  10.670  14.940   6.980
 1010BOLB   C2B24226  10.740  14.510   6.840
 1010BOLB   C3B24227  10.620  14.220   6.520
 1010BOLB   C4B24228  10.380  13.900   6.340
 1010BOLB   NC224229   8.510  14.040   4.220
 1010BOLB   PO224230   8.300  13.790   4.450
 1010BOLB   GL324231   8.480  13.710   4.790
 1010BOLB   GL424232   8.230  13.560   5.070
 1010BOLB   C1C24233   8.460  14.040   5.160
 1010BOLB   C2C24234   8.850  14.130   5.450
 1010BOLB   C3C24235   9.050  14.220   5.800
 1010BOLB   C4C24236   9.090  14.490   6.100
 1010BOLB   C1D24237   8.480  13.550   5.380
 1010BOLB   C2D24238   8.800  13.540   5.720
 1010BOLB   C3D24239   9.040  13.490   6.060
 1010BOLB   C4D24240   9.480  13.540   6.290
 1011BOLB   NC124241  10.120  17.880   6.920
 1011BOLB   PO124242  10.240  17.700   6.610
 1011BOLB   GL124243  10.110  17.910   6.320
 1011BOLB   GL224244  10.280  18.150   6.230
 1011BOLB   C1A24245   9.890  17.930   5.900
 1011BOLB   C2A24246  10.010  18.190   5.570
 1011BOLB   C3A24247  10.080  18.340   5.160
 1011BOLB   C4A24248  10.180  18.650   4.870
 1011BOLB   C1B24249  10.290  18.400   5.940
 1011BOLB   C2B24250  10.390  18.560   5.510
 1011BOLB   C3B24251  10.580  18.910   5.170
 1011BOLB   C4B24252  10.720  19.240   4.960
 1011BOLB   NC224253   9.840  18.640   2.500
 1011BOLB   PO224254  10.340  18.780   2.570
 1011BOLB   GL324255  10.200  18.800   3.060
 1011BOLB   GL424256   9.940  18.870   3.040
 1011BOLB   C1C24257  10.490  18.940   3.260
 1011BOLB   C2C24258  10.450  18.750   3.620
 1011BOLB   C3C24259  10.200  18.950   4.040
 1011BOLB   C4C24260  10.160  18.790   4.470
 1011BOLB   C1D24261   9.660  18.780   3.430
 1011BOLB   C2D24262   9.650  18.750   3.950
 1011BOLB   C3D24263   9.730  19.000   4.210
 1011BOLB   C4D24264   9.460  19.240   4.430
 1012BOLB   NC124265   1.650  20.100  13.270
 1012BOLB   PO124266   1.640  20.060  12.810
 1012BOLB   GL124267   1.250  20.210  12.810
 1012BOLB   GL224268   1.080  19.840  12.630
 1012BOLB   C1A24269   0.860  20.150  12.910
 1012BOLB   C2A24270   0.470  20.400  12.880
 1012BOLB   C3A24271   0.130  20.540  12.630
 1012BOLB   C4A24272  36.280  20.830  12.380
 1012BOLB   C1B24273   0.760  19.980  12.400
 1012BOLB   C2B24274   0.390  20.200  12.360
 1012BOLB   C3B24275   0.100  20.450  12.110
 1012BOLB   C4B24276  36.340  20.830  11.810
 1012BOLB   NC224277  34.180  20.900  13.390
 1012BOLB   PO224278  34.290  21.320  13.200
 1012BOLB   GL324279  34.660  21.050  13.260
 1012BOLB   GL424280  34.710  20.760  13.370
 1012BOLB   C1C24281  35.150  21.030  13.000
 1012BOLB   C2C24282  35.280  21.040  12.540
 1012BOLB   C3C24283  35.670  21.140  12.270
 1012BOLB   C4C24284  36.090  20.920  12.270
 1012BOLB   C1D24285  35.120  20.730  13.470
 1012BOLB   C2D24286  35.430  20.650  13.670
 1012BOLB   C3D24287  35.740  20.810  13.910
 1012BOLB   C4D24288  35.830  21.130  14.250
 1013BOLB   NC124289   9.700  17.030   7.270
 1013BOLB   PO124290  10.010  17.390   7.130
 1013BOLB   GL124291   9.840  17.090   6.840
 1013BOLB   GL224292   9.900  16.800   6.710
 1013BOLB   C1A24293   9.710  17.130   6.330
 1013BOLB   C2A24294   9.610  17.190   5.830
 1013BOLB   C3A24295   9.590  16.830   5.520
 1013BOLB   C4A24296   9.500  16.500   5.210
 1013BOLB   C1B24297   9.740  16.640   6.380
 1013BOLB   C2B24298   9.650  16.660   6.010
 1013BOLB   C3B24299   9.820  16.360   5.640
 1013BOLB   C4B24300  10.090  16.610   5.340
 1013BOLB   NC224301   9.250  17.000   3.230
 1013BOLB   PO224302   9.520  16.750   2.900
 1013BOLB   GL324303   9.700  16.730   3.280
 1013BOLB   GL424304   9.910  16.980   3.430
 1013BOLB   C1C24305   9.490  16.600   3.700
 1013BOLB   C2C24306   9.460  16.370   3.980
 1013BOLB   C3C24307   9.330  16.440   4.470
 1013BOLB   C4C24308   9.500  16.360   4.820
 1013BOLB   C1D24309   9.650  17.320   3.620
 1013BOLB   C2D24310   9.720  17.430   4.080
 1013BOLB   C3D24311   9.490  17.490   4.320
 1013BOLB   C4D24312   9.530  17.770   4.590
 1014BOLB   NC124313   8.950  19.860   7.280
 1014BOLB   PO124314   9.180  19.500   7.160
 1014BOLB   GL124315   8.960  19.320   6.780
 1014BOLB   GL224316   8.660  19.180   6.780
 1014BOLB   C1A24317   8.870  19.600   6.300
 1014BOLB   C2A24318   8.880  19.850   5.900
 1014BOLB   C3A24319   8.580  19.700   5.530
 1014BOLB   C4A24320   8.150  19.480   5.420
 1014BOLB   C1B24321   8.530  19.120   6.400
 1014BOLB   C2B24322   8.410  19.050   6.030
 1014BOLB   C3B24323   8.470  19.140   5.610
 1014BOLB   C4B24324   8.580  19.190   5.130
 1014BOLB   NC224325   7.200  19.530   3.320
 1014BOLB   PO224326   6.780  19.370   3.420
 1014BOLB   GL324327   7.000  19.190   3.770
 1014BOLB   GL424328   6.710  19.040   3.900
 1014BOLB   C1C24329   7.340  19.400   4.060
 1014BOLB   C2C24330   7.780  19.320   4.160
 1014BOLB   C3C24331   7.840  19.120   4.620
 1014BOLB   C4C24332   8.040  19.230   4.990
 1014BOLB   C1D24333   6.930  19.010   4.320
 1014BOLB   C2D24334   6.990  18.740   4.560
 1014BOLB   C3D24335   6.880  18.490   4.860
 1014BOLB   C4D24336   6.800  18.020   4.850
 1015BOLB   NC124337   5.990  13.530  11.100
 1015BOLB   PO124338   5.690  13.480  10.720
 1015BOLB   GL124339   5.470  13.090  10.500
 1015BOLB   GL224340   5.190  13.200  10.270
 1015BOLB   C1A24341   5.600  12.770  10.310
 1015BOLB   C2A24342   5.350  12.560  10.160
 1015BOLB   C3A24343   5.160  12.220   9.910
 1015BOLB   C4A24344   5.160  11.920   9.510
 1015BOLB   C1B24345   4.930  12.870  10.300
 1015BOLB   C2B24346   4.830  12.610   9.880
 1015BOLB   C3B24347   4.880  12.390   9.500
 1015BOLB   C4B24348   4.780  12.080   9.190
 1015BOLB   NC224349   3.940  10.650   8.490
 1015BOLB   PO224350   4.320  10.420   8.810
 1015BOLB   GL324351   4.710  10.480   9.100
 1015BOLB   GL424352   4.620  10.820   9.060
 1015BOLB   C1C24353   5.110  10.590   9.150
 1015BOLB   C2C24354   5.360  10.800   9.430
 1015BOLB   C3C24355   5.510  11.170   9.340
 1015BOLB   C4C24356   5.340  11.550   9.360
 1015BOLB   C1D24357   4.560  11.220   9.080
 1015BOLB   C2D24358   4.580  11.630   9.260
 1015BOLB   C3D24359   4.220  11.960   9.180
 1015BOLB   C4D24360   4.060  12.330   9.030
 1016BOLB   NC124361   5.450   9.480   8.840
 1016BOLB   PO124362   5.030   9.550   9.000
 1016BOLB   GL124363   5.200  10.050   8.960
 1016BOLB   GL224364   5.320  10.000   8.730
 1016BOLB   C1A24365   5.520  10.340   9.180
 1016BOLB   C2A24366   5.820  10.620   9.150
 1016BOLB   C3A24367   5.970  11.130   9.360
 1016BOLB   C4A24368   5.840  11.530   9.540
 1016BOLB   C1B24369   5.760  10.040   8.860
 1016BOLB   C2B24370   6.160  10.070   8.740
 1016BOLB   C3B24371   6.600  10.280   8.890
 1016BOLB   C4B24372   6.800  10.640   9.060
 1016BOLB   NC224373   7.560  12.560  10.370
 1016BOLB   PO224374   7.580  12.880   9.950
 1016BOLB   GL324375   7.230  12.870   9.630
 1016BOLB   GL424376   7.430  12.870   9.320
 1016BOLB   C1C24377   6.920  12.510   9.690
 1016BOLB   C2C24378   6.690  12.340  10.070
 1016BOLB   C3C24379   6.480  11.990  10.020
 1016BOLB   C4C24380   6.000  11.820   9.930
 1016BOLB   C1D24381   7.210  12.530   9.080
 1016BOLB   C2D24382   7.350  12.200   8.790
 1016BOLB   C3D24383   7.580  12.060   8.530
 1016BOLB   C4D24384   7.990  11.970   8.390
 1017BOLB   NC124385   5.090  15.850   9.280
 1017BOLB   PO124386   5.460  15.530   9.390
 1017BOLB   GL124387   5.210  15.330   8.970
 1017BOLB   GL224388   5.050  15.520   8.780
 1017BOLB   C1A24389   4.690  15.210   8.960
 1017BOLB   C2A24390   4.230  15.220   8.910
 1017BOLB   C3A24391   3.980  15.210   8.500
 1017BOLB   C4A24392   4.030  15.000   8.090
 1017BOLB   C1B24393   4.960  15.220   8.460
 1017BOLB   C2B24394   4.920  14.980   8.010
 1017BOLB   C3B24395   5.210  14.650   7.760
 1017BOLB   C4B24396   5.420  14.710   7.350
 1017BOLB   NC224397   2.880  12.480   7.820
 1017BOLB   PO224398   2.960  13.000   7.600
 1017BOLB   GL324399   3.060  13.230   7.970
 1017BOLB   GL424400   3.010  13.550   7.890
 1017BOLB   C1C24401   3.480  13.440   8.160
 1017BOLB   C2C24402   3.780  13.770   8.170
 1017BOLB   C3C24403   4.130  14.110   8.080
 1017BOLB   C4C24404   4.150  14.520   7.990
 1017BOLB   C1D24405   3.180  13.970   7.760
 1017BOLB   C2D24406   3.310  14.400   7.780
 1017BOLB   C3D24407   3.760  14.590   7.710
 1017BOLB   C4D24408   4.080  14.830   7.640
 1018BOLB   NC124409  10.050  17.440   7.640
 1018BOLB   PO124410   9.700  17.490   7.490
 1018BOLB   GL124411   9.540  17.480   6.990
 1018BOLB   GL224412   9.750  17.630   6.750
 1018BOLB   C1A24413   9.380  17.130   6.690
 1018BOLB   C2A24414   9.320  16.870   6.380
 1018BOLB   C3A24415   9.160  16.650   5.930
 1018BOLB   C4A24416   9.090  16.520   5.440
 1018BOLB   C1B24417   9.660  17.600   6.260
 1018BOLB   C2B24418   9.450  17.660   5.960
 1018BOLB   C3B24419   9.080  17.680   5.710
 1018BOLB   C4B24420   8.970  18.030   5.470
 1018BOLB   NC224421   9.670  15.810   3.170
 1018BOLB   PO224422   9.340  15.450   3.290
 1018BOLB   GL324423   9.320  15.660   3.670
 1018BOLB   GL424424   9.550  15.870   3.720
 1018BOLB   C1C24425   9.100  16.010   3.860
 1018BOLB   C2C24426   8.940  16.130   4.210
 1018BOLB   C3C24427   8.920  16.200   4.670
 1018BOLB   C4C24428   9.020  16.340   5.090
 1018BOLB   C1D24429   9.570  15.890   4.150
 1018BOLB   C2D24430   9.470  15.960   4.530
 1018BOLB   C3D24431   9.300  15.920   4.940
 1018BOLB   C4D24432   9.220  15.520   5.160
 1019BOLB   NC124433  14.700  24.240  25.120
 1019BOLB   PO124434  14.670  24.370  24.750
 1019BOLB   GL124435  14.610  24.630  24.390
 1019BOLB   GL224436  14.440  24.800  24.520
 1019BOLB   C1A24437  14.380  24.820  23.980
 1019BOLB   C2A24438  14.320  25.150  23.680
 1019BOLB   C3A24439  14.510  25.390  23.380
 1019BOLB   C4A24440  14.710  25.520  22.970
 1019BOLB   C1B24441  14.060  24.560  24.360
 1019BOLB   C2B24442  13.890  24.680  24.180
 1019BOLB   C3B24443  13.960  24.750  23.710
 1019BOLB   C4B24444  13.860  24.770  23.330
 1019BOLB   NC224445  15.940  25.160  24.010
 1019BOLB   PO224446  15.940  25.560  24.040
 1019BOLB   GL324447  16.020  25.450  23.620
 1019BOLB   GL424448  16.030  25.670  23.430
 1019BOLB   C1C24449  16.230  25.270  23.190
 1019BOLB   C2C24450  15.920  25.060  22.860
 1019BOLB   C3C24451  15.460  25.010  22.800
 1019BOLB   C4C24452  15.070  25.220  22.860
 1019BOLB   C1D24453  15.890  25.570  22.960
 1019BOLB   C2D24454  15.550  25.450  22.750
 1019BOLB   C3D24455  15.330  25.180  22.380
 1019BOLB   C4D24456  15.080  24.820  22.490
 1020BOLB   NC124457  10.240  10.790   5.100
 1020BOLB   PO124458  10.360  10.810   5.540
 1020BOLB   GL124459  10.250  11.150   5.840
 1020BOLB   GL224460   9.960  11.280   5.750
 1020BOLB   C1A24461  10.300  11.180   6.330
 1020BOLB   C2A24462  10.530  11.330   6.580
 1020BOLB   C3A24463  10.690  11.660   6.890
 1020BOLB   C4A24464  10.910  11.700   7.310
 1020BOLB   C1B24465  10.150  11.590   6.100
 1020BOLB   C2B24466  10.220  11.840   6.380
 1020BOLB   C3B24467  10.340  11.900   6.790
 1020BOLB   C4B24468  10.630  12.180   7.200
 1020BOLB   NC224469  11.470  10.450   5.920
 1020BOLB   PO224470  11.610  10.820   5.710
 1020BOLB   GL324471  11.540  11.050   6.110
 1020BOLB   GL424472  11.580  11.290   5.930
 1020BOLB   C1C24473  11.600  11.090   6.540
 1020BOLB   C2C24474  11.570  11.380   6.910
 1020BOLB   C3C24475  11.750  11.760   7.080
 1020BOLB   C4C24476  11.310  11.770   7.230
 1020BOLB   C1D24477  11.540  11.520   6.290
 1020BOLB   C2D24478  11.740  11.790   6.570
 1020BOLB   C3D24479  12.130  11.910   6.590
 1020BOLB   C4D24480  12.330  11.990   6.990
 1021BOLB   NC124481  35.150  25.880  12.740
 1021BOLB   PO124482  35.130  25.650  12.310
 1021BOLB   GL124483  35.600  25.640  12.420
 1021BOLB   GL224484  35.560  25.540  12.740
 1021BOLB   C1A24485  35.970  25.400  12.380
 1021BOLB   C2A24486  36.290  25.130  12.610
 1021BOLB   C3A24487   0.240  25.190  12.980
 1021BOLB   C4A24488   0.550  25.550  13.100
 1021BOLB   C1B24489  35.820  25.280  12.890
 1021BOLB   C2B24490  36.130  25.060  13.130
 1021BOLB   C3B24491  36.320  24.840  13.430
 1021BOLB   C4B24492   0.270  24.440  13.580
 1021BOLB   NC224493   0.650  27.570  12.670
 1021BOLB   PO224494   0.710  27.770  13.010
 1021BOLB   GL324495   1.000  27.480  13.030
 1021BOLB   GL424496   1.200  27.640  13.180
 1021BOLB   C1C24497   1.070  27.150  13.160
 1021BOLB   C2C24498   1.040  26.670  13.040
 1021BOLB   C3C24499   1.050  26.110  13.030
 1021BOLB   C4C24500   0.860  25.800  13.130
 1021BOLB   C1D24501   1.430  27.730  13.420
 1021BOLB   C2D24502   1.680  27.450  13.620
 1021BOLB   C3D24503   1.710  26.950  13.740
 1021BOLB   C4D24504   1.830  26.490  13.540
 1022BOLB   NC124505   7.360  15.080   9.220
 1022BOLB   PO124506   6.930  15.120   9.250
 1022BOLB   GL124507   6.960  14.930   8.840
 1022BOLB   GL224508   7.160  14.670   8.830
 1022BOLB   C1A24509   6.900  14.860   8.410
 1022BOLB   C2A24510   6.950  14.810   8.000
 1022BOLB   C3A24511   6.970  14.710   7.620
 1022BOLB   C4A24512   6.730  14.730   7.250
 1022BOLB   C1B24513   7.070  14.400   8.400
 1022BOLB   C2B24514   6.950  14.280   7.960
 1022BOLB   C3B24515   6.800  14.230   7.560
 1022BOLB   C4B24516   6.520  13.990   7.420
 1022BOLB   NC224517   5.850  14.720   4.800
 1022BOLB   PO224518   5.690  14.820   5.190
 1022BOLB   GL324519   5.690  14.620   5.590
 1022BOLB   GL424520   5.650  15.010   5.690
 1022BOLB   C1C24521   5.890  14.650   5.920
 1022BOLB   C2C24522   6.230  14.840   6.110
 1022BOLB   C3C24523   6.380  14.900   6.470
 1022BOLB   C4C24524   6.650  14.980   6.850
 1022BOLB   C1D24525   6.140  15.000   5.630
 1022BOLB   C2D24526   6.600  14.910   5.780
 1022BOLB   C3D24527   6.790  15.080   6.200
 1022BOLB   C4D24528   7.230  15.290   6.450
 1023BOLB   NC124529  13.030  15.870   7.540
 1023BOLB   PO124530  13.100  15.500   7.290
 1023BOLB   GL124531  12.880  15.180   7.080
 1023BOLB   GL224532  12.750  15.510   6.960
 1023BOLB   C1A24533  12.950  14.870   6.730
 1023BOLB   C2A24534  12.780  14.670   6.400
 1023BOLB   C3A24535  12.620  14.270   6.330
 1023BOLB   C4A24536  12.590  13.870   6.070
 1023BOLB   C1B24537  12.770  15.290   6.540
 1023BOLB   C2B24538  13.050  15.180   6.210
 1023BOLB   C3B24539  13.190  15.040   5.750
 1023BOLB   C4B24540  13.480  14.910   5.400
 1023BOLB   NC224541  12.930  12.460   3.980
 1023BOLB   PO224542  13.100  12.840   4.010
 1023BOLB   GL324543  13.130  12.900   4.370
 1023BOLB   GL424544  12.820  12.850   4.460
 1023BOLB   C1C24545  13.220  12.810   4.790
 1023BOLB   C2C24546  13.070  12.930   5.230
 1023BOLB   C3C24547  13.020  13.180   5.580
 1023BOLB   C4C24548  12.850  13.610   5.900
 1023BOLB   C1D24549  12.840  13.200   4.760
 1023BOLB   C2D24550  12.610  13.230   5.110
 1023BOLB   C3D24551  12.630  13.550   5.480
 1023BOLB   C4D24552  12.350  13.490   5.800
 1024BOLB   NC124553  11.950  24.860  10.180
 1024BOLB   PO124554  11.940  25.150  10.000
 1024BOLB   GL124555  11.880  25.550   9.780
 1024BOLB   GL224556  12.110  25.580   9.490
 1024BOLB   C1A24557  11.920  26.070   9.760
 1024BOLB   C2A24558  11.630  26.410   9.710
 1024BOLB   C3A24559  11.730  26.830   9.770
 1024BOLB   C4A24560  11.920  27.150   9.450
 1024BOLB   C1B24561  12.240  25.990   9.330
 1024BOLB   C2B24562  12.260  26.320   9.040
 1024BOLB   C3B24563  12.220  26.730   8.850
 1024BOLB   C4B24564  11.910  27.080   8.960
 1024BOLB   NC224565  11.580  28.870   8.050
 1024BOLB   PO224566  11.370  29.220   8.110
 1024BOLB   GL324567  11.440  28.950   8.560
 1024BOLB   GL424568  11.130  29.110   8.680
 1024BOLB   C1C24569  11.640  28.570   8.730
 1024BOLB   C2C24570  11.700  28.110   8.670
 1024BOLB   C3C24571  11.710  27.710   8.930
 1024BOLB   C4C24572  11.640  27.410   9.300
 1024BOLB   C1D24573  11.230  28.820   8.990
 1024BOLB   C2D24574  11.230  28.780   9.410
 1024BOLB   C3D24575  11.520  28.560   9.780
 1024BOLB   C4D24576  11.500  28.550  10.230
 1025BOLB   NC124577   1.990  19.700  12.110
 1025BOLB   PO124578   1.670  19.840  12.280
 1025BOLB   GL124579   1.310  19.680  12.150
 1025BOLB   GL224580   1.440  19.390  11.900
 1025BOLB   C1A24581   0.970  19.740  11.970
 1025BOLB   C2A24582   0.630  19.760  11.690
 1025BOLB   C3A24583   0.440  19.540  11.440
 1025BOLB   C4A24584   0.240  19.150  11.160
 1025BOLB   C1B24585   1.120  19.330  11.810
 1025BOLB   C2B24586   0.650  19.290  11.920
 1025BOLB   C3B24587   0.150  19.170  11.860
 1025BOLB   C4B24588  36.060  19.010  11.670
 1025BOLB   NC224589  35.530  18.080   9.490
 1025BOLB   PO224590  35.460  18.490   9.550
 1025BOLB   GL324591  35.840  18.390   9.880
 1025BOLB   GL424592  35.860  18.120   9.910
 1025BOLB   C1C24593  35.740  18.440  10.280
 1025BOLB   C2C24594  36.050  18.510  10.570
 1025BOLB   C3C24595  36.060  18.800  10.840
 1025BOLB   C4C24596  36.290  18.840  11.190
 1025BOLB   C1D24597  36.140  17.990  10.290
 1025BOLB   C2D24598  36.340  18.120  10.580
 1025BOLB   C3D24599   0.130  17.910  10.890
 1025BOLB   C4D24600   0.170  17.690  11.230
 1026BOLB   NC124601   9.050  27.700  14.340
 1026BOLB   PO124602   9.380  27.850  14.040
 1026BOLB   GL124603   9.550  28.130  13.700
 1026BOLB   GL224604   9.930  28.190  13.630
 1026BOLB   C1A24605   9.470  28.510  13.770
 1026BOLB   C2A24606   9.360  28.950  13.770
 1026BOLB   C3A24607   9.130  29.180  14.010
 1026BOLB   C4A24608   8.790  29.200  14.320
 1026BOLB   C1B24609   9.590  28.390  13.280
 1026BOLB   C2B24610   9.700  28.710  12.950
 1026BOLB   C3B24611   9.890  28.970  12.610
 1026BOLB   C4B24612  10.040  29.390  12.540
 1026BOLB   NC224613   7.200  31.550  14.360
 1026BOLB   PO224614   7.560  31.370  14.540
 1026BOLB   GL324615   7.800  31.080  14.690
 1026BOLB   GL424616   7.880  31.030  14.350
 1026BOLB   C1C24617   7.740  30.620  14.790
 1026BOLB   C2C24618   7.840  30.220  14.550
 1026BOLB   C3C24619   8.040  29.800  14.360
 1026BOLB   C4C24620   8.280  29.380  14.420
 1026BOLB   C1D24621   8.180  30.730  14.420
 1026BOLB   C2D24622   8.430  30.340  14.460
 1026BOLB   C3D24623   8.530  29.930  14.500
 1026BOLB   C4D24624   8.670  29.550  14.670
 1027BOLB   NC124625  11.170  15.940   7.640
 1027BOLB   PO124626  11.510  15.910   7.330
 1027BOLB   GL124627  11.190  15.880   7.070
 1027BOLB   GL224628  10.880  15.690   7.250
 1027BOLB   C1A24629  11.070  15.640   6.680
 1027BOLB   C2A24630  11.090  15.430   6.390
 1027BOLB   C3A24631  11.180  15.160   6.090
 1027BOLB   C4A24632  11.270  14.820   5.930
 1027BOLB   C1B24633  10.620  15.580   6.940
 1027BOLB   C2B24634  10.610  15.320   6.660
 1027BOLB   C3B24635  10.490  14.840   6.470
 1027BOLB   C4B24636  10.480  14.700   6.120
 1027BOLB   NC224637  10.760  14.090   3.860
 1027BOLB   PO224638  11.050  13.940   3.530
 1027BOLB   GL324639  11.220  13.970   4.020
 1027BOLB   GL424640  11.610  14.060   4.140
 1027BOLB   C1C24641  11.090  14.190   4.460
 1027BOLB   C2C24642  11.240  14.210   4.870
 1027BOLB   C3C24643  11.140  14.210   5.350
 1027BOLB   C4C24644  11.210  14.580   5.630
 1027BOLB   C1D24645  11.900  14.350   4.360
 1027BOLB   C2D24646  11.890  14.360   4.760
 1027BOLB   C3D24647  12.180  14.350   5.170
 1027BOLB   C4D24648  12.450  14.000   5.330
 1028BOLB   NC124649  13.530  18.090  22.120
 1028BOLB   PO124650  13.800  18.090  21.800
 1028BOLB   GL124651  14.010  17.780  21.920
 1028BOLB   GL224652  14.350  17.900  22.110
 1028BOLB   C1A24653  14.030  17.600  22.320
 1028BOLB   C2A24654  14.140  17.530  22.680
 1028BOLB   C3A24655  14.160  17.310  23.010
 1028BOLB   C4A24656  14.170  17.050  23.220
 1028BOLB   C1B24657  14.220  18.000  22.610
 1028BOLB   C2B24658  14.280  18.250  22.990
 1028BOLB   C3B24659  14.480  18.210  23.350
 1028BOLB   C4B24660  14.760  17.960  23.490
 1028BOLB   NC224661  15.730  16.970  25.370
 1028BOLB   PO224662  15.320  17.010  25.610
 1028BOLB   GL324663  15.170  17.130  25.280
 1028BOLB   GL424664  15.450  17.240  25.070
 1028BOLB   C1C24665  15.010  17.150  24.740
 1028BOLB   C2C24666  14.790  16.920  24.440
 1028BOLB   C3C24667  14.590  16.970  24.080
 1028BOLB   C4C24668  14.300  16.890  23.680
 1028BOLB   C1D24669  15.180  17.570  24.810
 1028BOLB   C2D24670  15.130  17.860  24.600
 1028BOLB   C3D24671  15.360  18.060  24.230
 1028BOLB   C4D24672  15.180  18.080  23.770
 1029BOLB   NC124673   2.990  22.470  18.530
 1029BOLB   PO124674   2.620  22.350  18.520
 1029BOLB   GL124675   2.610  22.570  18.890
 1029BOLB   GL224676   2.390  22.750  18.880
 1029BOLB   C1A24677   2.560  22.740  19.310
 1029BOLB   C2A24678   2.230  22.900  19.580
 1029BOLB   C3A24679   1.930  22.870  19.940
 1029BOLB   C4A24680   1.830  23.150  20.250
 1029BOLB   C1B24681   2.080  22.950  19.060
 1029BOLB   C2B24682   1.680  22.960  19.300
 1029BOLB   C3B24683   1.590  23.070  19.690
 1029BOLB   C4B24684   1.370  22.860  20.010
 1029BOLB   NC224685  36.130  22.890  21.490
 1029BOLB   PO224686   0.100  23.070  21.600
 1029BOLB   GL324687   0.320  22.990  21.320
 1029BOLB   GL424688   0.030  23.060  21.060
 1029BOLB   C1C24689   0.650  23.190  21.140
 1029BOLB   C2C24690   0.900  23.430  21.150
 1029BOLB   C3C24691   1.270  23.440  20.880
 1029BOLB   C4C24692   1.580  23.510  20.490
 1029BOLB   C1D24693   0.330  22.970  20.810
 1029BOLB   C2D24694   0.660  22.510  20.670
 1029BOLB   C3D24695   0.470  22.190  20.510
 1029BOLB   C4D24696   0.630  21.860  20.400
 1030BOLB   NC124697  15.640  25.950  13.560
 1030BOLB   PO124698  16.030  26.220  13.760
 1030BOLB   GL124699  16.100  26.620  13.730
 1030BOLB   GL224700  16.330  26.640  13.940
 1030BOLB   C1A24701  16.250  26.990  13.480
 1030BOLB   C2A24702  16.660  27.200  13.480
 1030BOLB   C3A24703  16.950  27.510  13.460
 1030BOLB   C4A24704  16.990  27.670  13.070
 1030BOLB   C1B24705  16.560  26.890  13.850
 1030BOLB   C2B24706  16.950  27.170  13.890
 1030BOLB   C3B24707  17.200  27.110  14.250
 1030BOLB   C4B24708  17.470  26.800  14.390
 1030BOLB   NC224709  18.950  28.690  12.560
 1030BOLB   PO224710  18.800  28.350  12.810
 1030BOLB   GL324711  18.640  28.080  12.580
 1030BOLB   GL424712  18.700  27.940  12.200
 1030BOLB   C1C24713  18.280  28.000  12.430
 1030BOLB   C2C24714  18.090  27.610  12.320
 1030BOLB   C3C24715  17.670  27.470  12.570
 1030BOLB   C4C24716  17.290  27.700  12.750
 1030BOLB   C1D24717  18.440  27.690  11.920
 1030BOLB   C2D24718  18.200  27.280  11.760
 1030BOLB   C3D24719  17.780  27.170  11.500
 1030BOLB   C4D24720  17.450  26.820  11.320
 1031BOLB   NC124721  11.640  24.500  21.150
 1031BOLB   PO124722  11.830  24.590  21.460
 1031BOLB   GL124723  11.820  24.630  21.850
 1031BOLB   GL224724  11.580  24.560  21.950
 1031BOLB   C1A24725  12.240  24.730  22.070
 1031BOLB   C2A24726  12.480  24.890  22.460
 1031BOLB   C3A24727  12.530  24.800  22.930
 1031BOLB   C4A24728  12.880  24.770  23.240
 1031BOLB   C1B24729  11.830  24.630  22.400
 1031BOLB   C2B24730  12.070  24.890  22.780
 1031BOLB   C3B24731  12.140  24.970  23.220
 1031BOLB   C4B24732  11.950  24.920  23.690
 1031BOLB   NC224733  14.940  24.820  24.790
 1031BOLB   PO224734  15.130  25.220  24.640
 1031BOLB   GL324735  14.750  25.170  24.390
 1031BOLB   GL424736  14.970  24.940  24.200
 1031BOLB   C1C24737  14.330  25.300  24.240
 1031BOLB   C2C24738  13.910  25.200  24.020
 1031BOLB   C3C24739  13.670  25.120  23.720
 1031BOLB   C4C24740  13.350  25.040  23.430
 1031BOLB   C1D24741  14.930  24.730  23.870
 1031BOLB   C2D24742  14.630  24.550  23.520
 1031BOLB   C3D24743  14.380  24.800  23.300
 1031BOLB   C4D24744  14.150  24.760  22.910
 1032BOLB   NC124745  12.560  27.570  16.890
 1032BOLB   PO124746  12.890  27.770  16.900
 1032BOLB   GL124747  13.210  28.060  16.890
 1032BOLB   GL224748  13.570  28.050  16.810
 1032BOLB   C1A24749  13.230  28.430  16.760
 1032BOLB   C2A24750  13.070  28.770  17.040
 1032BOLB   C3A24751  13.280  29.100  17.210
 1032BOLB   C4A24752  13.600  29.310  16.940
 1032BOLB   C1B24753  13.840  28.330  16.960
 1032BOLB   C2B24754  14.270  28.520  17.000
 1032BOLB   C3B24755  14.550  28.920  17.130
 1032BOLB   C4B24756  14.690  29.230  17.400
 1032BOLB   NC224757  14.510  31.330  17.900
 1032BOLB   PO224758  14.750  31.230  17.640
 1032BOLB   GL324759  14.820  30.740  17.530
 1032BOLB   GL424760  14.850  30.380  17.500
 1032BOLB   C1C24761  14.400  30.520  17.300
 1032BOLB   C2C24762  14.260  30.280  16.960
 1032BOLB   C3C24763  14.090  29.950  16.860
 1032BOLB   C4C24764  13.810  29.690  17.040
 1032BOLB   C1D24765  14.620  30.060  17.200
 1032BOLB   C2D24766  14.500  29.700  17.090
 1032BOLB   C3D24767  14.290  29.420  17.220
 1032BOLB   C4D24768  13.800  29.350  17.430
 1033BOLB   NC124769  34.920  14.420  13.520
 1033BOLB   PO124770  34.960  14.630  13.870
 1033BOLB   GL124771  35.190  15.000  13.810
 1033BOLB   GL224772  35.490  15.030  14.010
 1033BOLB   C1A24773  35.530  15.040  13.520
 1033BOLB   C2A24774  35.880  14.930  13.300
 1033BOLB   C3A24775  36.290  14.920  13.510
 1033BOLB   C4A24776   0.060  14.450  13.790
 1033BOLB   C1B24777  35.900  14.930  13.900
 1033BOLB   C2B24778  36.250  14.780  14.110
 1033BOLB   C3B24779   0.360  14.800  14.160
 1033BOLB   C4B24780   0.580  14.330  14.060
 1033BOLB   NC224781  35.960  12.150  15.100
 1033BOLB   PO224782  36.270  12.460  15.040
 1033BOLB   GL324783   0.130  12.850  15.000
 1033BOLB   GL424784   0.360  12.680  14.870
 1033BOLB   C1C24785   0.280  13.180  14.740
 1033BOLB   C2C24786   0.130  13.510  14.550
 1033BOLB   C3C24787   0.250  13.860  14.260
 1033BOLB   C4C24788   0.050  14.280  14.130
 1033BOLB   C1D24789   0.630  13.010  15.190
 1033BOLB   C2D24790   1.040  13.220  15.320
 1033BOLB   C3D24791   1.400  13.480  15.250
 1033BOLB   C4D24792   1.800  13.240  15.030
 1034BOLB   NC124793   2.210  24.080  14.980
 1034BOLB   PO124794   2.080  23.630  15.200
 1034BOLB   GL124795   1.770  23.980  15.220
 1034BOLB   GL224796   1.410  23.860  15.230
 1034BOLB   C1A24797   1.430  24.380  15.300
 1034BOLB   C2A24798   1.040  24.610  15.160
 1034BOLB   C3A24799   0.740  24.380  15.060
 1034BOLB   C4A24800   0.320  24.170  14.940
 1034BOLB   C1B24801   1.040  24.010  15.220
 1034BOLB   C2B24802   0.650  24.000  15.400
 1034BOLB   C3B24803   0.250  24.070  15.480
 1034BOLB   C4B24804  36.300  23.730  15.420
 1034BOLB   NC224805  34.270  23.630  15.360
 1034BOLB   PO224806  34.380  23.230  15.130
 1034BOLB   GL324807  34.700  23.400  15.300
 1034BOLB   GL424808  34.740  23.840  15.220
 1034BOLB   C1C24809  35.100  23.530  15.260
 1034BOLB   C2C24810  35.490  23.740  15.420
 1034BOLB   C3C24811  35.840  23.850  15.240
 1034BOLB   C4C24812  36.250  24.090  15.110
 1034BOLB   C1D24813  34.970  23.800  14.850
 1034BOLB   C2D24814  35.470  23.740  14.880
 1034BOLB   C3D24815  35.790  23.650  14.690
 1034BOLB   C4D24816  36.010  23.620  14.310
 1035BOLB   NC124817  10.100  27.270  15.510
 1035BOLB   PO124818  10.280  27.650  15.730
 1035BOLB   GL124819  10.110  28.070  15.820
 1035BOLB   GL224820   9.970  28.130  15.630
 1035BOLB   C1A24821  10.210  28.530  15.850
 1035BOLB   C2A24822   9.970  28.920  15.860
 1035BOLB   C3A24823   9.820  29.110  15.420
 1035BOLB   C4A24824   9.820  29.450  15.070
 1035BOLB   C1B24825   9.740  28.490  15.650
 1035BOLB   C2B24826   9.530  28.790  15.610
 1035BOLB   C3B24827   9.530  29.190  15.860
 1035BOLB   C4B24828   9.620  29.630  15.890
 1035BOLB   NC224829   7.950  31.270  13.810
 1035BOLB   PO224830   8.060  31.480  14.220
 1035BOLB   GL324831   8.320  31.040  14.080
 1035BOLB   GL424832   8.220  30.830  13.910
 1035BOLB   C1C24833   8.620  30.730  14.260
 1035BOLB   C2C24834   8.940  30.360  14.440
 1035BOLB   C3C24835   9.090  29.970  14.600
 1035BOLB   C4C24836   9.450  29.710  14.880
 1035BOLB   C1D24837   8.560  30.550  13.770
 1035BOLB   C2D24838   8.720  30.080  13.680
 1035BOLB   C3D24839   8.650  29.720  13.590
 1035BOLB   C4D24840   8.980  29.500  13.660
 1036BOLB   NC124841   8.420  26.860  17.680
 1036BOLB   PO124842   8.760  27.230  17.760
 1036BOLB   GL124843   8.640  27.550  17.940
 1036BOLB   GL224844   8.820  27.610  18.230
 1036BOLB   C1A24845   8.530  28.030  17.930
 1036BOLB   C2A24846   8.610  28.430  17.920
 1036BOLB   C3A24847   8.340  28.790  17.900
 1036BOLB   C4A24848   8.050  29.100  17.770
 1036BOLB   C1B24849   8.900  28.040  18.320
 1036BOLB   C2B24850   8.840  28.430  18.500
 1036BOLB   C3B24851   9.110  28.900  18.610
 1036BOLB   C4B24852   9.230  29.330  18.710
 1036BOLB   NC224853   7.300  30.680  18.890
 1036BOLB   PO224854   7.030  30.860  18.620
 1036BOLB   GL324855   6.840  30.440  18.630
 1036BOLB   GL424856   6.830  30.400  18.390
 1036BOLB   C1C24857   6.980  29.990  18.670
 1036BOLB   C2C24858   7.360  29.740  18.530
 1036BOLB   C3C24859   7.460  29.600  18.160
 1036BOLB   C4C24860   7.710  29.340  17.980
 1036BOLB   C1D24861   7.070  30.010  18.220
 1036BOLB   C2D24862   7.350  30.060  17.950
 1036BOLB   C3D24863   7.580  29.720  17.670
 1036BOLB   C4D24864   7.740  29.670  17.240
 1037BOLB   NC124865  15.530  23.230  19.740
 1037BOLB   PO124866  15.680  23.670  19.910
 1037BOLB   GL124867  16.080  23.640  20.210
 1037BOLB   GL224868  16.160  23.390  20.200
 1037BOLB   C1A24869  16.280  23.850  20.590
 1037BOLB   C2A24870  16.620  24.090  20.890
 1037BOLB   C3A24871  17.000  24.410  20.940
 1037BOLB   C4A24872  17.400  24.620  21.120
 1037BOLB   C1B24873  16.510  23.400  20.520
 1037BOLB   C2B24874  16.850  23.590  20.610
 1037BOLB   C3B24875  17.190  23.710  20.840
 1037BOLB   C4B24876  17.480  23.910  21.180
 1037BOLB   NC224877  18.240  26.260  22.200
 1037BOLB   PO224878  17.950  26.680  22.130
 1037BOLB   GL324879  17.650  26.330  22.030
 1037BOLB   GL424880  17.580  26.410  22.320
 1037BOLB   C1C24881  17.440  26.060  21.760
 1037BOLB   C2C24882  17.420  25.680  21.690
 1037BOLB   C3C24883  17.560  25.380  21.340
 1037BOLB   C4C24884  17.480  25.080  21.080
 1037BOLB   C1D24885  17.180  26.400  22.140
 1037BOLB   C2D24886  16.770  26.420  22.140
 1037BOLB   C3D24887  16.430  26.250  21.870
 1037BOLB   C4D24888  16.100  26.150  21.550
 1038BOLB   NC124889  16.790  15.680  18.670
 1038BOLB   PO124890  17.120  15.470  18.800
 1038BOLB   GL124891  17.520  15.310  18.970
 1038BOLB   GL224892  17.790  15.070  18.770
 1038BOLB   C1A24893  17.700  15.110  19.340
 1038BOLB   C2A24894  18.060  15.110  19.580
 1038BOLB   C3A24895  18.470  14.820  19.620
 1038BOLB   C4A24896  18.680  14.570  19.930
 1038BOLB   C1B24897  17.820  14.730  18.950
 1038BOLB   C2B24898  17.920  14.360  18.880
 1038BOLB   C3B24899  18.140  14.130  19.220
 1038BOLB   C4B24900  18.290  13.720  19.440
 1038BOLB   NC224901  19.830  13.170  21.930
 1038BOLB   PO224902  19.770  13.000  21.450
 1038BOLB   GL324903  19.420  13.080  21.280
 1038BOLB   GL424904  19.350  12.880  21.120
 1038BOLB   C1C24905  19.250  13.490  21.190
 1038BOLB   C2C24906  19.370  13.660  20.780
 1038BOLB   C3C24907  19.190  13.920  20.360
 1038BOLB   C4C24908  18.910  14.260  20.080
 1038BOLB   C1D24909  19.130  13.180  20.830
 1038BOLB   C2D24910  18.820  13.270  20.580
 1038BOLB   C3D24911  18.490  13.330  20.360
 1038BOLB   C4D24912  18.350  13.450  19.940
 1039BOLB   NC124913   3.450  22.920  19.040
 1039BOLB   PO124914   3.310  23.240  18.750
 1039BOLB   GL124915   2.960  23.570  18.990
 1039BOLB   GL224916   2.730  23.880  18.970
 1039BOLB   C1A24917   2.990  23.790  19.460
 1039BOLB   C2A24918   2.630  24.050  19.600
 1039BOLB   C3A24919   2.370  24.300  19.840
 1039BOLB   C4A24920   2.010  24.230  20.090
 1039BOLB   C1B24921   2.530  24.170  19.130
 1039BOLB   C2B24922   2.150  24.180  19.410
 1039BOLB   C3B24923   1.780  24.150  19.560
 1039BOLB   C4B24924   1.500  23.820  19.720
 1039BOLB   NC224925  36.120  24.380  21.070
 1039BOLB   PO224926   0.150  24.410  21.350
 1039BOLB   GL324927   0.300  24.190  21.070
 1039BOLB   GL424928   0.070  24.090  20.820
 1039BOLB   C1C24929   0.620  24.260  20.790
 1039BOLB   C2C24930   1.070  24.360  20.620
 1039BOLB   C3C24931   1.540  24.290  20.640
 1039BOLB   C4C24932   1.810  24.140  20.450
 1039BOLB   C1D24933   0.300  24.010  20.460
 1039BOLB   C2D24934   0.710  23.860  20.460
 1039BOLB   C3D24935   0.830  23.710  20.060
 1039BOLB   C4D24936   0.900  23.500  19.640
 1040BOLB   NC124937  14.550  26.790  17.440
 1040BOLB   PO124938  15.070  26.710  17.350
 1040BOLB   GL124939  15.250  27.140  17.480
 1040BOLB   GL224940  14.970  27.130  17.700
 1040BOLB   C1A24941  15.610  27.210  17.730
 1040BOLB   C2A24942  15.710  27.620  17.860
 1040BOLB   C3A24943  15.960  27.890  17.830
 1040BOLB   C4A24944  16.070  28.160  17.500
 1040BOLB   C1B24945  15.030  27.470  18.020
 1040BOLB   C2B24946  15.080  27.630  18.360
 1040BOLB   C3B24947  15.130  27.630  18.750
 1040BOLB   C4B24948  15.530  27.660  18.880
 1040BOLB   NC224949  16.830  29.600  19.240
 1040BOLB   PO224950  16.810  29.780  18.790
 1040BOLB   GL324951  16.520  29.500  18.700
 1040BOLB   GL424952  16.560  29.300  18.930
 1040BOLB   C1C24953  16.400  29.230  18.300
 1040BOLB   C2C24954  16.770  29.100  18.060
 1040BOLB   C3C24955  16.660  28.750  17.750
 1040BOLB   C4C24956  16.320  28.620  17.540
 1040BOLB   C1D24957  16.290  28.930  18.910
 1040BOLB   C2D24958  15.900  28.670  18.880
 1040BOLB   C3D24959  15.790  28.280  18.810
 1040BOLB   C4D24960  15.550  27.990  18.470
 1041BOLB   NC124961   2.970  23.460  18.460
 1041BOLB   PO124962   2.910  22.950  18.510
 1041BOLB   GL124963   2.730  23.170  18.780
 1041BOLB   GL224964   2.950  23.020  19.020
 1041BOLB   C1A24965   2.290  23.370  18.870
 1041BOLB   C2A24966   2.270  23.630  19.140
 1041BOLB   C3A24967   1.860  23.790  19.140
 1041BOLB   C4A24968   1.620  24.100  19.020
 1041BOLB   C1B24969   2.660  23.230  19.240
 1041BOLB   C2B24970   2.490  23.470  19.550
 1041BOLB   C3B24971   2.100  23.780  19.670
 1041BOLB   C4B24972   1.960  23.740  20.070
 1041BOLB   NC224973  35.250  24.340  18.700
 1041BOLB   PO224974  35.460  24.590  19.120
 1041BOLB   GL324975  35.870  24.640  19.000
 1041BOLB   GL424976  36.010  24.960  19.120
 1041BOLB   C1C24977  36.200  24.500  18.790
 1041BOLB   C2C24978   0.300  24.400  18.860
 1041BOLB   C3C24979   0.770  24.290  18.880
 1041BOLB   C4C24980   1.190  24.150  18.870
 1041BOLB   C1D24981   0.070  24.980  18.860
 1041BOLB   C2D24982   0.250  24.780  18.540
 1041BOLB   C3D24983   0.590  24.330  18.340
 1041BOLB   C4D24984   0.980  24.310  18.380
 1042BOLB   NC124985  14.870  15.790  19.960
 1042BOLB   PO124986  15.230  15.410  20.150
 1042BOLB   GL124987  15.280  15.250  20.650
 1042BOLB   GL224988  15.320  14.920  20.610
 1042BOLB   C1A24989  15.730  15.080  20.870
 1042BOLB   C2A24990  15.850  14.840  21.170
 1042BOLB   C3A24991  16.180  14.710  21.520
 1042BOLB   C4A24992  16.420  14.580  21.950
 1042BOLB   C1B24993  15.440  14.620  20.880
 1042BOLB   C2B24994  15.560  14.420  21.280
 1042BOLB   C3B24995  15.680  14.280  21.720
 1042BOLB   C4B24996  15.570  14.180  22.170
 1042BOLB   NC224997  17.490  13.690  23.890
 1042BOLB   PO224998  17.490  14.150  23.860
 1042BOLB   GL324999  17.170  14.350  23.710
 1042BOLB   GL425000  17.210  14.620  23.700
 1042BOLB   C1C25001  16.800  14.130  23.440
 1042BOLB   C2C25002  16.630  14.090  23.050
 1042BOLB   C3C25003  16.390  14.190  22.660
 1042BOLB   C4C25004  16.480  14.410  22.310
 1042BOLB   C1D25005  17.090  14.660  23.300
 1042BOLB   C2D25006  16.930  14.530  23.040
 1042BOLB   C3D25007  16.860  14.340  22.690
 1042BOLB   C4D25008  16.860  13.960  22.400
 1043BOLB   NC125009  19.170  20.870  15.330
 1043BOLB   PO125010  19.400  20.500  15.320
 1043BOLB   GL125011  19.740  20.560  15.460
 1043BOLB   GL225012  19.760  20.940  15.550
 1043BOLB   C1A25013  20.150  20.440  15.590
 1043BOLB   C2A25014  20.480  20.070  15.680
 1043BOLB   C3A25015  20.870  20.090  15.610
 1043BOLB   C4A25016  21.270  20.140  15.510
 1043BOLB   C1B25017  20.270  20.890  15.580
 1043BOLB   C2B25018  20.780  20.990  15.410
 1043BOLB   C3B25019  21.260  21.050  15.280
 1043BOLB   C4B25020  21.650  21.340  15.210
 1043BOLB   NC225021  23.790  20.520  16.100
 1043BOLB   PO225022  23.670  20.910  15.820
 1043BOLB   GL325023  23.260  20.740  15.800
 1043BOLB   GL425024  23.340  20.420  15.750
 1043BOLB   C1C25025  22.890  20.940  15.820
 1043BOLB   C2C25026  22.450  20.710  15.870
 1043BOLB   C3C25027  22.100  20.490  15.910
 1043BOLB   C4C25028  21.590  20.430  15.820
 1043BOLB   C1D25029  23.060  20.160  15.570
 1043BOLB   C2D25030  22.930  19.720  15.620
 1043BOLB   C3D25031  22.600  19.430  15.650
 1043BOLB   C4D25032  22.480  19.190  15.270
 1044BOLB   NC125033  19.070  23.240  15.760
 1044BOLB   PO125034  18.840  23.370  15.360
 1044BOLB   GL125035  19.210  23.560  15.350
 1044BOLB   GL225036  19.200  23.720  15.750
 1044BOLB   C1A25037  19.540  23.910  15.330
 1044BOLB   C2A25038  19.890  24.110  15.160
 1044BOLB   C3A25039  20.260  24.030  15.000
 1044BOLB   C4A25040  20.590  24.110  15.060
 1044BOLB   C1B25041  19.690  23.580  15.690
 1044BOLB   C2B25042  20.070  23.310  15.640
 1044BOLB   C3B25043  20.450  23.340  15.830
 1044BOLB   C4B25044  20.730  23.140  15.870
 1044BOLB   NC225045  22.520  24.330  15.290
 1044BOLB   PO225046  22.450  24.150  14.970
 1044BOLB   GL325047  22.250  23.820  15.150
 1044BOLB   GL425048  22.150  23.620  14.890
 1044BOLB   C1C25049  21.960  23.700  15.450
 1044BOLB   C2C25050  21.650  23.860  15.590
 1044BOLB   C3C25051  21.230  23.990  15.560
 1044BOLB   C4C25052  20.940  24.180  15.330
 1044BOLB   C1D25053  21.760  23.410  14.950
 1044BOLB   C2D25054  21.570  23.210  14.720
 1044BOLB   C3D25055  21.390  22.990  14.310
 1044BOLB   C4D25056  21.430  22.880  13.840
 1045BOLB   NC125057   6.010  26.310  13.440
 1045BOLB   PO125058   5.630  26.430  13.450
 1045BOLB   GL125059   5.330  26.650  13.260
 1045BOLB   GL225060   5.160  26.770  13.550
 1045BOLB   C1A25061   5.340  27.050  12.950
 1045BOLB   C2A25062   5.190  27.370  12.930
 1045BOLB   C3A25063   5.090  27.790  13.070
 1045BOLB   C4A25064   5.010  28.150  13.080
 1045BOLB   C1B25065   4.910  26.970  13.250
 1045BOLB   C2B25066   4.530  27.260  13.110
 1045BOLB   C3B25067   4.600  27.520  12.790
 1045BOLB   C4B25068   4.830  27.370  12.350
 1045BOLB   NC225069   4.420  30.230  12.660
 1045BOLB   PO225070   4.150  30.030  12.360
 1045BOLB   GL325071   4.210  29.780  12.630
 1045BOLB   GL425072   4.020  29.640  12.710
 1045BOLB   C1C25073   4.400  29.530  13.050
 1045BOLB   C2C25074   4.360  29.080  13.220
 1045BOLB   C3C25075   4.370  28.680  13.100
 1045BOLB   C4C25076   4.800  28.480  12.930
 1045BOLB   C1D25077   3.940  29.300  13.050
 1045BOLB   C2D25078   3.880  28.880  12.980
 1045BOLB   C3D25079   3.470  28.680  13.120
 1045BOLB   C4D25080   3.210  28.350  13.290
 1046BOLB   NC125081  15.510  26.510  14.460
 1046BOLB   PO125082  15.110  26.670  14.450
 1046BOLB   GL125083  15.160  27.120  14.360
 1046BOLB   GL225084  15.360  27.040  14.120
 1046BOLB   C1A25085  15.520  27.600  14.610
 1046BOLB   C2A25086  15.920  27.650  14.800
 1046BOLB   C3A25087  16.250  27.920  14.980
 1046BOLB   C4A25088  16.600  28.230  15.050
 1046BOLB   C1B25089  15.610  27.310  13.870
 1046BOLB   C2B25090  15.940  27.620  13.820
 1046BOLB   C3B25091  16.260  27.900  14.070
 1046BOLB   C4B25092  16.200  28.340  14.150
 1046BOLB   NC225093  18.320  29.960  16.210
 1046BOLB   PO225094  17.970  30.070  15.960
 1046BOLB   GL325095  17.940  29.690  16.010
 1046BOLB   GL425096  17.890  29.620  16.300
 1046BOLB   C1C25097  17.650  29.300  15.900
 1046BOLB   C2C25098  17.520  28.970  15.730
 1046BOLB   C3C25099  17.250  28.690  15.430
 1046BOLB   C4C25100  16.900  28.500  15.300
 1046BOLB   C1D25101  17.890  29.150  16.400
 1046BOLB   C2D25102  17.890  28.770  16.560
 1046BOLB   C3D25103  17.590  28.390  16.440
 1046BOLB   C4D25104  17.170  28.400  16.430
 1047BOLB   NC125105  12.120  27.440  13.100
 1047BOLB   PO125106  12.070  27.450  13.550
 1047BOLB   GL125107  12.350  27.830  13.350
 1047BOLB   GL225108  12.140  28.030  13.200
 1047BOLB   C1A25109  12.600  28.170  13.180
 1047BOLB   C2A25110  12.920  28.520  13.020
 1047BOLB   C3A25111  13.140  28.880  12.930
 1047BOLB   C4A25112  13.160  29.280  12.740
 1047BOLB   C1B25113  12.170  28.280  12.810
 1047BOLB   C2B25114  12.170  28.300  12.450
 1047BOLB   C3B25115  12.070  28.200  12.050
 1047BOLB   C4B25116  12.050  28.130  11.590
 1047BOLB   NC225117  14.600  31.500  11.790
 1047BOLB   PO225118  14.580  31.060  12.030
 1047BOLB   GL325119  14.370  30.650  12.140
 1047BOLB   GL425120  14.260  30.380  12.380
 1047BOLB   C1C25121  13.830  30.510  12.140
 1047BOLB   C2C25122  13.670  30.140  12.370
 1047BOLB   C3C25123  13.600  29.890  12.700
 1047BOLB   C4C25124  13.270  29.690  12.870
 1047BOLB   C1D25125  14.470  29.980  12.510
 1047BOLB   C2D25126  14.790  29.670  12.190
 1047BOLB   C3D25127  15.060  29.350  12.000
 1047BOLB   C4D25128  15.060  29.000  11.740
 1048BOLB   NC125129  19.740  18.360  16.080
 1048BOLB   PO125130  19.610  18.750  15.750
 1048BOLB   GL125131  19.890  18.980  16.030
 1048BOLB   GL225132  20.060  18.820  16.080
 1048BOLB   C1A25133  20.300  19.250  16.230
 1048BOLB   C2A25134  20.600  19.400  16.440
 1048BOLB   C3A25135  21.000  19.290  16.590
 1048BOLB   C4A25136  21.270  19.610  16.920
 1048BOLB   C1B25137  20.610  18.870  16.200
 1048BOLB   C2B25138  20.910  18.830  16.440
 1048BOLB   C3B25139  21.240  18.970  16.840
 1048BOLB   C4B25140  21.540  18.880  17.170
 1048BOLB   NC225141  23.780  20.280  17.790
 1048BOLB   PO225142  23.370  20.220  17.630
 1048BOLB   GL325143  23.040  19.910  17.490
 1048BOLB   GL425144  23.090  19.700  17.780
 1048BOLB   C1C25145  22.650  19.950  17.340
 1048BOLB   C2C25146  22.320  20.090  17.230
 1048BOLB   C3C25147  21.990  20.050  16.880
 1048BOLB   C4C25148  21.630  19.830  16.810
 1048BOLB   C1D25149  22.670  19.880  17.900
 1048BOLB   C2D25150  22.440  20.210  18.020
 1048BOLB   C3D25151  22.060  20.490  18.180
 1048BOLB   C4D25152  21.760  20.740  18.390
 1049BOLB   NC125153  12.450  27.080  17.070
 1049BOLB   PO125154  12.330  27.340  17.410
 1049BOLB   GL125155  12.560  27.720  17.540
 1049BOLB   GL225156  12.530  27.880  17.270
 1049BOLB   C1A25157  12.610  28.060  17.740
 1049BOLB   C2A25158  12.750  28.520  17.610
 1049BOLB   C3A25159  13.000  28.840  17.570
 1049BOLB   C4A25160  12.880  29.320  17.550
 1049BOLB   C1B25161  12.230  28.170  17.350
 1049BOLB   C2B25162  12.190  28.580  17.560
 1049BOLB   C3B25163  11.760  28.650  17.530
 1049BOLB   C4B25164  11.350  28.870  17.520
 1049BOLB   NC225165  13.100  31.290  18.380
 1049BOLB   PO225166  12.730  31.540  18.290
 1049BOLB   GL325167  12.660  31.420  17.950
 1049BOLB   GL425168  12.830  31.010  17.970
 1049BOLB   C1C25169  12.510  31.140  17.480
 1049BOLB   C2C25170  12.640  30.610  17.520
 1049BOLB   C3C25171  12.480  30.110  17.540
 1049BOLB   C4C25172  12.530  29.680  17.550
 1049BOLB   C1D25173  13.150  30.660  18.050
 1049BOLB   C2D25174  13.150  30.360  18.400
 1049BOLB   C3D25175  12.820  30.020  18.480
 1049BOLB   C4D25176  12.720  29.820  18.030
 1050BOLB   NC125177  17.610  24.880  14.900
 1050BOLB   PO125178  17.440  25.120  15.200
 1050BOLB   GL125179  17.670  25.370  15.060
 1050BOLB   GL225180  17.930  25.220  14.970
 1050BOLB   C1A25181  18.000  25.690  14.910
 1050BOLB   C2A25182  18.290  25.880  14.650
 1050BOLB   C3A25183  18.600  26.070  14.330
 1050BOLB   C4A25184  18.800  26.480  14.230
 1050BOLB   C1B25185  18.290  25.380  15.170
 1050BOLB   C2B25186  18.660  25.540  15.080
 1050BOLB   C3B25187  18.760  25.900  15.300
 1050BOLB   C4B25188  18.960  26.040  15.640
 1050BOLB   NC225189  19.660  28.220  14.410
 1050BOLB   PO225190  19.590  28.620  14.080
 1050BOLB   GL325191  19.200  28.360  13.970
 1050BOLB   GL425192  18.860  28.340  13.780
 1050BOLB   C1C25193  19.150  27.900  14.020
 1050BOLB   C2C25194  19.360  27.630  14.290
 1050BOLB   C3C25195  19.200  27.230  14.600
 1050BOLB   C4C25196  19.030  26.870  14.500
 1050BOLB   C1D25197  18.530  28.180  13.650
 1050BOLB   C2D25198  18.190  28.020  13.960
 1050BOLB   C3D25199  17.940  27.760  13.970
 1050BOLB   C4D25200  17.880  27.300  13.700
 1051BOLB   NC125201   8.130  26.540  11.940
 1051BOLB   PO125202   7.730  26.570  12.050
 1051BOLB   GL125203   7.670  26.840  11.820
 1051BOLB   GL225204   7.350  26.960  11.780
 1051BOLB   C1A25205   7.790  27.170  11.560
 1051BOLB   C2A25206   8.070  27.470  11.660
 1051BOLB   C3A25207   8.030  27.830  11.660
 1051BOLB   C4A25208   7.740  28.160  11.740
 1051BOLB   C1B25209   7.200  27.290  11.600
 1051BOLB   C2B25210   7.040  27.620  11.600
 1051BOLB   C3B25211   6.760  27.970  11.430
 1051BOLB   C4B25212   6.820  28.330  11.110
 1051BOLB   NC225213   7.190  30.470  10.860
 1051BOLB   PO225214   7.470  30.620  11.150
 1051BOLB   GL325215   7.290  30.210  11.290
 1051BOLB   GL425216   7.650  30.100  11.430
 1051BOLB   C1C25217   7.250  29.710  11.290
 1051BOLB   C2C25218   7.340  29.280  11.500
 1051BOLB   C3C25219   7.370  28.910  11.840
 1051BOLB   C4C25220   7.500  28.500  11.960
 1051BOLB   C1D25221   7.650  29.800  11.830
 1051BOLB   C2D25222   7.700  29.450  12.070
 1051BOLB   C3D25223   7.460  29.120  12.280
 1051BOLB   C4D25224   7.200  28.860  12.310
 1052BOLB   NC125225  13.460  27.100  17.760
 1052BOLB   PO125226  13.580  27.460  17.490
 1052BOLB   GL125227  13.520  27.840  17.670
 1052BOLB   GL225228  13.430  28.020  17.360
 1052BOLB   C1A25229  13.540  28.270  17.800
 1052BOLB   C2A25230  13.520  28.720  17.920
 1052BOLB   C3A25231  13.810  28.980  17.900
 1052BOLB   C4A25232  14.070  29.170  18.180
 1052BOLB   C1B25233  13.140  28.330  17.280
 1052BOLB   C2B25234  12.790  28.370  17.160
 1052BOLB   C3B25235  12.540  28.730  17.220
 1052BOLB   C4B25236  12.450  29.160  17.410
 1052BOLB   NC225237  14.400  29.750  20.690
 1052BOLB   PO225238  14.220  30.050  20.420
 1052BOLB   GL325239  14.120  29.780  20.080
 1052BOLB   GL425240  14.340  29.590  20.030
 1052BOLB   C1C25241  13.890  29.880  19.690
 1052BOLB   C2C25242  13.830  29.900  19.270
 1052BOLB   C3C25243  13.640  29.650  18.950
 1052BOLB   C4C25244  13.780  29.440  18.510
 1052BOLB   C1D25245  13.950  29.340  19.880
 1052BOLB   C2D25246  13.760  29.030  20.120
 1052BOLB   C3D25247  13.630  28.670  20.330
 1052BOLB   C4D25248  13.650  28.280  20.610
 1053BOLB   NC125249  17.170  23.240  12.860
 1053BOLB   PO125250  17.440  23.610  12.870
 1053BOLB   GL125251  17.880  23.890  12.820
 1053BOLB   GL225252  18.200  23.880  12.950
 1053BOLB   C1A25253  18.010  24.430  12.820
 1053BOLB   C2A25254  18.240  24.830  12.710
 1053BOLB   C3A25255  18.360  25.270  12.550
 1053BOLB   C4A25256  18.520  25.640  12.560
 1053BOLB   C1B25257  18.290  24.090  12.510
 1053BOLB   C2B25258  18.390  24.530  12.340
 1053BOLB   C3B25259  18.700  24.830  12.320
 1053BOLB   C4B25260  18.980  24.960  12.630
 1053BOLB   NC225261  20.060  27.290  11.480
 1053BOLB   PO225262  20.410  27.050  11.560
 1053BOLB   GL325263  20.040  26.930  11.790
 1053BOLB   GL425264  20.050  26.710  12.050
 1053BOLB   C1C25265  19.590  26.820  11.940
 1053BOLB   C2C25266  19.330  26.500  12.110
 1053BOLB   C3C25267  19.050  26.220  12.300
 1053BOLB   C4C25268  18.750  25.880  12.300
 1053BOLB   C1D25269  19.870  26.380  12.320
 1053BOLB   C2D25270  19.540  26.100  12.520
 1053BOLB   C3D25271  19.350  25.820  12.730
 1053BOLB   C4D25272  19.600  25.450  12.860
 1054BOLB   NC125273  10.140  23.770  26.320
 1054BOLB   PO125274   9.950  24.210  26.040
 1054BOLB   GL125275   9.950  23.900  25.730
 1054BOLB   GL225276   9.990  23.640  25.880
 1054BOLB   C1A25277   9.940  23.670  25.380
 1054BOLB   C2A25278  10.120  23.340  25.130
 1054BOLB   C3A25279  10.280  23.360  24.780
 1054BOLB   C4A25280  10.530  23.010  24.550
 1054BOLB   C1B25281   9.890  23.280  25.690
 1054BOLB   C2B25282   9.610  23.250  25.300
 1054BOLB   C3B25283   9.590  23.300  24.920
 1054BOLB   C4B25284   9.270  23.390  24.590
 1054BOLB   NC225285  11.470  22.730  26.640
 1054BOLB   PO225286  11.050  22.570  26.780
 1054BOLB   GL325287  11.050  22.800  26.340
 1054BOLB   GL425288  10.810  22.640  26.250
 1054BOLB   C1C25289  11.060  22.870  25.860
 1054BOLB   C2C25290  11.090  23.060  25.370
 1054BOLB   C3C25291  11.080  22.980  25.060
 1054BOLB   C4C25292  10.880  22.760  24.710
 1054BOLB   C1D25293  10.740  22.430  25.890
 1054BOLB   C2D25294  10.450  22.120  25.590
 1054BOLB   C3D25295  10.480  21.820  25.400
 1054BOLB   C4D25296  10.260  21.630  25.080
 1055BOLB   NC125297  19.750  17.910  13.440
 1055BOLB   PO125298  19.810  17.710  13.030
 1055BOLB   GL125299  20.240  17.730  13.100
 1055BOLB   GL225300  20.310  17.680  12.740
 1055BOLB   C1A25301  20.550  18.030  13.000
 1055BOLB   C2A25302  21.000  18.210  13.110
 1055BOLB   C3A25303  21.470  18.140  13.150
 1055BOLB   C4A25304  21.850  18.140  13.050
 1055BOLB   C1B25305  20.770  17.470  12.820
 1055BOLB   C2B25306  21.130  17.460  12.740
 1055BOLB   C3B25307  21.440  17.150  12.440
 1055BOLB   C4B25308  21.720  16.750  12.450
 1055BOLB   NC225309  24.180  16.980  12.630
 1055BOLB   PO225310  23.940  17.100  13.040
 1055BOLB   GL325311  23.560  17.090  12.980
 1055BOLB   GL425312  23.500  16.720  12.960
 1055BOLB   C1C25313  23.240  17.440  12.950
 1055BOLB   C2C25314  22.860  17.630  12.770
 1055BOLB   C3C25315  22.510  17.800  12.940
 1055BOLB   C4C25316  22.110  17.900  12.950
 1055BOLB   C1D25317  23.100  16.980  12.870
 1055BOLB   C2D25318  22.630  17.190  12.730
 1055BOLB   C3D25319  22.260  17.550  12.540
 1055BOLB   C4D25320  21.860  17.660  12.370
 1056BOLB   NC125321  14.360  25.680  10.970
 1056BOLB   PO125322  13.930  25.770  11.020
 1056BOLB   GL125323  14.050  26.080  10.710
 1056BOLB   GL225324  14.280  26.030  10.650
 1056BOLB   C1A25325  14.020  26.480  10.480
 1056BOLB   C2A25326  14.200  26.720  10.150
 1056BOLB   C3A25327  14.200  27.290  10.170
 1056BOLB   C4A25328  14.200  27.600   9.880
 1056BOLB   C1B25329  14.460  26.320  10.430
 1056BOLB   C2B25330  14.560  26.780  10.450
 1056BOLB   C3B25331  14.680  27.220  10.310
 1056BOLB   C4B25332  14.750  27.660  10.130
 1056BOLB   NC225333  14.110  29.800   8.450
 1056BOLB   PO225334  14.070  29.390   8.600
 1056BOLB   GL325335  14.120  29.240   8.970
 1056BOLB   GL425336  13.870  29.180   9.250
 1056BOLB   C1C25337  14.310  28.930   9.210
 1056BOLB   C2C25338  14.620  28.620   9.310
 1056BOLB   C3C25339  14.660  28.360   9.640
 1056BOLB   C4C25340  14.590  27.910   9.700
 1056BOLB   C1D25341  13.800  28.790   9.510
 1056BOLB   C2D25342  13.630  28.370   9.740
 1056BOLB   C3D25343  13.430  28.030   9.660
 1056BOLB   C4D25344  13.120  27.770   9.530
 1057BOLB   NC125345  15.350  26.240  12.580
 1057BOLB   PO125346  14.960  26.320  12.640
 1057BOLB   GL125347  14.980  26.560  12.350
 1057BOLB   GL225348  14.760  26.860  12.400
 1057BOLB   C1A25349  15.260  26.700  12.060
 1057BOLB   C2A25350  15.680  26.840  12.000
 1057BOLB   C3A25351  15.980  27.080  11.860
 1057BOLB   C4A25352  16.320  27.470  11.910
 1057BOLB   C1B25353  14.870  27.140  12.210
 1057BOLB   C2B25354  15.100  27.410  11.880
 1057BOLB   C3B25355  15.350  27.750  11.740
 1057BOLB   C4B25356  15.580  27.890  11.360
 1057BOLB   NC225357  16.730  29.520  11.360
 1057BOLB   PO225358  17.070  29.390  11.680
 1057BOLB   GL325359  17.220  29.040  11.660
 1057BOLB   GL425360  17.370  28.900  11.350
 1057BOLB   C1C25361  17.020  28.690  11.790
 1057BOLB   C2C25362  17.080  28.320  11.960
 1057BOLB   C3C25363  16.890  28.030  12.130
 1057BOLB   C4C25364  16.520  27.780  12.200
 1057BOLB   C1D25365  17.240  28.490  11.340
 1057BOLB   C2D25366  17.350  28.150  11.590
 1057BOLB   C3D25367  17.370  27.780  11.790
 1057BOLB   C4D25368  17.250  27.620  12.150
 1058BOLB   NC125369  14.180  26.980  17.070
 1058BOLB   PO125370  13.750  27.320  16.970
 1058BOLB   GL125371  13.810  27.700  17.120
 1058BOLB   GL225372  14.100  27.570  17.410
 1058BOLB   C1A25373  13.930  28.110  17.370
 1058BOLB   C2A25374  13.990  28.520  17.410
 1058BOLB   C3A25375  14.090  28.960  17.370
 1058BOLB   C4A25376  14.080  29.150  16.870
 1058BOLB   C1B25377  14.380  27.870  17.360
 1058BOLB   C2B25378  14.490  28.230  17.440
 1058BOLB   C3B25379  14.470  28.580  17.490
 1058BOLB   C4B25380  14.360  28.870  17.900
 1058BOLB   NC225381  13.910  31.380  17.120
 1058BOLB   PO225382  13.880  31.270  16.670
 1058BOLB   GL325383  13.910  30.940  16.430
 1058BOLB   GL425384  14.200  30.930  16.300
 1058BOLB   C1C25385  14.110  30.520  16.530
 1058BOLB   C2C25386  14.100  30.150  16.350
 1058BOLB   C3C25387  14.020  29.780  16.380
 1058BOLB   C4C25388  14.190  29.510  16.610
 1058BOLB   C1D25389  14.450  30.950  15.910
 1058BOLB   C2D25390  14.750  30.640  15.710
 1058BOLB   C3D25391  14.900  30.360  15.400
 1058BOLB   C4D25392  15.170  30.120  15.290
 1059BOLB   NC125393  14.640  26.210  12.330
 1059BOLB   PO125394  14.360  26.500  12.380
 1059BOLB   GL125395  14.290  26.920  12.280
 1059BOLB   GL225396  13.920  26.960  12.290
 1059BOLB   C1A25397  14.470  27.180  11.890
 1059BOLB   C2A25398  14.590  27.610  11.850
 1059BOLB   C3A25399  14.480  28.080  11.940
 1059BOLB   C4A25400  14.280  28.320  11.990
 1059BOLB   C1B25401  14.160  27.400  12.240
 1059BOLB   C2B25402  13.980  27.850  12.330
 1059BOLB   C3B25403  14.030  28.280  12.480
 1059BOLB   C4B25404  13.830  28.540  12.590
 1059BOLB   NC225405  14.790  30.610  11.410
 1059BOLB   PO225406  14.600  30.670  11.700
 1059BOLB   GL325407  14.610  30.210  11.610
 1059BOLB   GL425408  14.510  30.160  11.270
 1059BOLB   C1C25409  14.640  29.750  11.590
 1059BOLB   C2C25410  14.520  29.400  11.790
 1059BOLB   C3C25411  14.550  29.100  11.990
 1059BOLB   C4C25412  14.260  28.770  12.130
 1059BOLB   C1D25413  14.280  29.750  11.200
 1059BOLB   C2D25414  14.260  29.420  11.350
 1059BOLB   C3D25415  14.160  29.030  11.570
 1059BOLB   C4D25416  14.110  28.580  11.650
 1060BOLB   NC125417   6.280  24.170  10.170
 1060BOLB   PO125418   6.190  24.410  10.440
 1060BOLB   GL125419   5.960  24.560  10.040
 1060BOLB   GL225420   5.920  24.320   9.850
 1060BOLB   C1A25421   5.720  24.790   9.820
 1060BOLB   C2A25422   5.600  25.060   9.500
 1060BOLB   C3A25423   5.610  25.420   9.240
 1060BOLB   C4A25424   5.470  25.530   8.850
 1060BOLB   C1B25425   6.140  24.390   9.550
 1060BOLB   C2B25426   6.000  24.670   9.320
 1060BOLB   C3B25427   5.910  25.040   9.060
 1060BOLB   C4B25428   5.900  25.360   8.650
 1060BOLB   NC225429   5.150  26.420   7.110
 1060BOLB   PO225430   5.600  26.620   6.940
 1060BOLB   GL325431   5.920  26.360   7.170
 1060BOLB   GL425432   6.250  26.160   7.060
 1060BOLB   C1C25433   5.790  26.090   7.400
 1060BOLB   C2C25434   5.870  25.860   7.760
 1060BOLB   C3C25435   5.700  25.620   8.110
 1060BOLB   C4C25436   5.480  25.540   8.480
 1060BOLB   C1D25437   6.230  25.750   7.230
 1060BOLB   C2D25438   6.290  25.310   7.050
 1060BOLB   C3D25439   6.550  25.000   6.900
 1060BOLB   C4D25440   6.630  24.510   6.760
 1061BOLB   NC125441   4.200  17.710  20.040
 1061BOLB   PO125442   4.440  17.790  20.400
 1061BOLB   GL125443   4.340  17.680  20.760
 1061BOLB   GL225444   4.060  17.480  20.640
 1061BOLB   C1A25445   4.140  17.890  21.160
 1061BOLB   C2A25446   3.950  18.000  21.580
 1061BOLB   C3A25447   3.930  18.170  22.070
 1061BOLB   C4A25448   3.720  18.330  22.490
 1061BOLB   C1B25449   3.870  17.400  21.060
 1061BOLB   C2B25450   3.730  17.560  21.380
 1061BOLB   C3B25451   3.220  17.670  21.380
 1061BOLB   C4B25452   3.040  18.030  21.610
 1061BOLB   NC225453   1.630  18.450  23.260
 1061BOLB   PO225454   1.510  18.120  23.510
 1061BOLB   GL325455   1.940  18.090  23.210
 1061BOLB   GL425456   1.860  17.770  23.080
 1061BOLB   C1C25457   2.320  18.170  22.930
 1061BOLB   C2C25458   2.530  18.570  22.940
 1061BOLB   C3C25459   2.900  18.690  22.840
 1061BOLB   C4C25460   3.280  18.610  22.650
 1061BOLB   C1D25461   2.120  17.790  22.680
 1061BOLB   C2D25462   2.300  17.860  22.330
 1061BOLB   C3D25463   2.250  17.800  21.950
 1061BOLB   C4D25464   1.950  18.050  21.700
 1062BOLB   NC125465  11.690  27.900  15.670
 1062BOLB   PO125466  11.820  28.200  15.290
 1062BOLB   GL125467  11.710  28.610  15.050
 1062BOLB   GL225468  11.400  28.710  15.180
 1062BOLB   C1A25469  11.780  28.980  15.080
 1062BOLB   C2A25470  11.860  29.290  15.390
 1062BOLB   C3A25471  12.260  29.540  15.380
 1062BOLB   C4A25472  12.440  29.840  15.690
 1062BOLB   C1B25473  11.330  29.190  15.280
 1062BOLB   C2B25474  11.460  29.600  15.410
 1062BOLB   C3B25475  11.550  29.730  15.760
 1062BOLB   C4B25476  11.920  29.990  15.790
 1062BOLB   NC225477  12.210  31.970  17.200
 1062BOLB   PO225478  12.000  31.860  16.790
 1062BOLB   GL325479  11.830  31.510  16.760
 1062BOLB   GL425480  11.850  31.170  16.910
 1062BOLB   C1C25481  11.870  31.260  16.420
 1062BOLB   C2C25482  12.140  30.900  16.350
 1062BOLB   C3C25483  12.370  30.600  16.120
 1062BOLB   C4C25484  12.400  30.250  15.950
 1062BOLB   C1D25485  11.780  30.890  16.920
 1062BOLB   C2D25486  11.580  30.480  17.090
 1062BOLB   C3D25487  11.590  30.160  17.280
 1062BOLB   C4D25488  11.990  30.040  17.280
 1063BOLB   NC125489  11.140  26.810  18.880
 1063BOLB   PO125490  11.240  26.830  19.340
 1063BOLB   GL125491  11.150  27.270  19.350
 1063BOLB   GL225492  11.360  27.370  18.980
 1063BOLB   C1A25493  10.980  27.530  19.650
 1063BOLB   C2A25494  10.800  27.870  19.550
 1063BOLB   C3A25495  10.520  28.190  19.680
 1063BOLB   C4A25496  10.500  28.430  20.020
 1063BOLB   C1B25497  11.500  27.810  18.880
 1063BOLB   C2B25498  11.890  28.110  18.880
 1063BOLB   C3B25499  12.160  28.510  19.100
 1063BOLB   C4B25500  12.490  28.780  18.940
 1063BOLB   NC225501   9.550  30.360  20.840
 1063BOLB   PO225502   9.280  30.260  21.150
 1063BOLB   GL325503   9.530  29.910  21.050
 1063BOLB   GL425504   9.850  29.950  20.960
 1063BOLB   C1C25505   9.450  29.480  20.950
 1063BOLB   C2C25506   9.600  29.000  20.880
 1063BOLB   C3C25507   9.890  28.820  20.530
 1063BOLB   C4C25508  10.290  28.720  20.230
 1063BOLB   C1D25509   9.780  29.610  21.300
 1063BOLB   C2D25510   9.450  29.420  21.430
 1063BOLB   C3D25511   9.080  29.280  21.660
 1063BOLB   C4D25512   8.990  28.880  21.920
 1064BOLB   NC125513  11.940  26.880  12.260
 1064BOLB   PO125514  12.420  26.740  12.200
 1064BOLB   GL125515  12.550  27.220  12.230
 1064BOLB   GL225516  12.270  27.230  12.190
 1064BOLB   C1A25517  12.600  27.700  12.180
 1064BOLB   C2A25518  12.530  28.050  12.180
 1064BOLB   C3A25519  12.430  28.540  12.020
 1064BOLB   C4A25520  12.350  28.820  11.740
 1064BOLB   C1B25521  12.460  27.460  11.780
 1064BOLB   C2B25522  12.470  27.800  11.540
 1064BOLB   C3B25523  12.350  28.000  11.110
 1064BOLB   C4B25524  12.420  28.270  10.780
 1064BOLB   NC225525  11.820  30.220  10.390
 1064BOLB   PO225526  12.200  30.220  10.300
 1064BOLB   GL325527  12.130  29.800  10.380
 1064BOLB   GL425528  11.880  29.800  10.650
 1064BOLB   C1C25529  12.070  29.390  10.340
 1064BOLB   C2C25530  12.170  29.150  10.630
 1064BOLB   C3C25531  12.220  28.980  10.970
 1064BOLB   C4C25532  12.350  29.160  11.340
 1064BOLB   C1D25533  11.680  29.480  10.600
 1064BOLB   C2D25534  11.400  29.300  10.320
 1064BOLB   C3D25535  11.210  28.980  10.260
 1064BOLB   C4D25536  11.150  28.830  10.670
 1065BOLB   NC125537   4.590  25.800  18.390
 1065BOLB   PO125538   4.630  25.980  18.030
 1065BOLB   GL125539   4.410  26.360  18.040
 1065BOLB   GL225540   4.510  26.440  17.760
 1065BOLB   C1A25541   3.920  26.490  18.090
 1065BOLB   C2A25542   3.650  26.860  18.320
 1065BOLB   C3A25543   3.450  27.260  18.160
 1065BOLB   C4A25544   3.630  27.700  18.190
 1065BOLB   C1B25545   4.460  26.810  17.790
 1065BOLB   C2B25546   4.380  27.150  17.900
 1065BOLB   C3B25547   4.360  27.600  18.000
 1065BOLB   C4B25548   4.120  27.810  18.290
 1065BOLB   NC225549   3.490  29.810  18.900
 1065BOLB   PO225550   3.090  29.760  18.960
 1065BOLB   GL325551   3.340  29.340  18.960
 1065BOLB   GL425552   3.610  29.200  19.130
 1065BOLB   C1C25553   3.480  28.920  18.700
 1065BOLB   C2C25554   3.510  28.640  18.470
 1065BOLB   C3C25555   3.610  28.310  18.450
 1065BOLB   C4C25556   3.690  28.070  18.180
 1065BOLB   C1D25557   3.690  28.790  19.100
 1065BOLB   C2D25558   3.580  28.460  18.950
 1065BOLB   C3D25559   3.410  27.990  19.040
 1065BOLB   C4D25560   3.360  27.930  19.460
 1066BOLB   NC125561  18.010  19.450  19.230
 1066BOLB   PO125562  18.470  19.320  19.170
 1066BOLB   GL125563  18.830  19.260  19.100
 1066BOLB   GL225564  18.960  19.100  19.080
 1066BOLB   C1A25565  19.400  19.230  19.140
 1066BOLB   C2A25566  19.660  19.270  19.500
 1066BOLB   C3A25567  20.060  19.370  19.620
 1066BOLB   C4A25568  20.410  19.690  19.850
 1066BOLB   C1B25569  19.120  19.260  19.510
 1066BOLB   C2B25570  19.400  19.450  19.920
 1066BOLB   C3B25571  19.300  19.850  19.960
 1066BOLB   C4B25572  19.310  20.050  20.330
 1066BOLB   NC225573  22.320  20.780  21.010
 1066BOLB   PO225574  21.990  20.860  20.760
 1066BOLB   GL325575  21.540  20.850  20.900
 1066BOLB   GL425576  21.290  21.120  21.140
 1066BOLB   C1C25577  21.250  20.640  20.650
 1066BOLB   C2C25578  20.900  20.330  20.510
 1066BOLB   C3C25579  20.920  19.960  20.420
 1066BOLB   C4C25580  20.780  19.650  20.150
 1066BOLB   C1D25581  20.940  20.800  21.030
 1066BOLB   C2D25582  20.580  20.720  20.760
 1066BOLB   C3D25583  20.290  20.660  20.470
 1066BOLB   C4D25584  19.950  20.670  20.220
 1067BOLB   NC125585  14.850  26.170  18.540
 1067BOLB   PO125586  15.080  26.270  18.130
 1067BOLB   GL125587  15.140  26.700  18.230
 1067BOLB   GL225588  15.040  26.660  18.560
 1067BOLB   C1A25589  15.300  27.050  18.150
 1067BOLB   C2A25590  15.540  27.480  18.400
 1067BOLB   C3A25591  15.940  27.420  18.630
 1067BOLB   C4A25592  16.360  27.450  18.700
 1067BOLB   C1B25593  15.530  26.790  18.560
 1067BOLB   C2B25594  15.940  26.940  18.670
 1067BOLB   C3B25595  16.180  26.700  18.840
 1067BOLB   C4B25596  16.560  26.650  18.950
 1067BOLB   NC225597  18.450  28.690  18.710
 1067BOLB   PO225598  18.190  28.700  18.260
 1067BOLB   GL325599  18.060  28.400  18.500
 1067BOLB   GL425600  17.910  28.310  18.830
 1067BOLB   C1C25601  17.930  27.920  18.390
 1067BOLB   C2C25602  17.670  27.550  18.390
 1067BOLB   C3C25603  17.240  27.400  18.370
 1067BOLB   C4C25604  16.800  27.470  18.540
 1067BOLB   C1D25605  17.520  27.990  18.740
 1067BOLB   C2D25606  17.340  27.570  18.840
 1067BOLB   C3D25607  17.110  27.210  19.070
 1067BOLB   C4D25608  16.640  27.130  19.000
 1068BOLB   NC125609  13.740  26.790  18.590
 1068BOLB   PO125610  13.900  26.440  18.810
 1068BOLB   GL125611  14.210  26.550  19.080
 1068BOLB   GL225612  14.370  26.280  19.170
 1068BOLB   C1A25613  14.390  26.920  19.190
 1068BOLB   C2A25614  14.460  27.310  19.180
 1068BOLB   C3A25615  14.710  27.660  19.160
 1068BOLB   C4A25616  14.670  28.030  19.130
 1068BOLB   C1B25617  14.740  26.380  19.180
 1068BOLB   C2B25618  15.100  26.390  19.450
 1068BOLB   C3B25619  15.590  26.480  19.530
 1068BOLB   C4B25620  16.020  26.560  19.680
 1068BOLB   NC225621  15.210  30.440  19.430
 1068BOLB   PO225622  15.540  30.120  19.500
 1068BOLB   GL325623  15.390  29.650  19.630
 1068BOLB   GL425624  15.150  29.540  19.820
 1068BOLB   C1C25625  15.290  29.230  19.460
 1068BOLB   C2C25626  15.120  28.910  19.220
 1068BOLB   C3C25627  14.970  28.610  18.920
 1068BOLB   C4C25628  14.550  28.410  18.920
 1068BOLB   C1D25629  15.180  29.120  19.960
 1068BOLB   C2D25630  15.010  28.750  19.660
 1068BOLB   C3D25631  15.040  28.400  19.390
 1068BOLB   C4D25632  15.180  27.950  19.380
 1069BOLB   NC125633   7.690  26.550  18.190
 1069BOLB   PO125634   7.730  27.020  18.390
 1069BOLB   GL125635   7.550  27.320  18.390
 1069BOLB   GL225636   7.640  27.420  18.140
 1069BOLB   C1A25637   7.240  27.710  18.500
 1069BOLB   C2A25638   7.090  28.170  18.350
 1069BOLB   C3A25639   6.840  28.490  18.180
 1069BOLB   C4A25640   6.760  28.810  17.940
 1069BOLB   C1B25641   7.380  27.860  18.010
 1069BOLB   C2B25642   7.190  28.240  17.890
 1069BOLB   C3B25643   7.220  28.550  17.540
 1069BOLB   C4B25644   7.100  28.980  17.470
 1069BOLB   NC225645   6.080  30.980  17.850
 1069BOLB   PO225646   5.660  30.920  18.010
 1069BOLB   GL325647   5.680  30.510  17.980
 1069BOLB   GL425648   6.090  30.450  17.960
 1069BOLB   C1C25649   5.700  30.140  18.040
 1069BOLB   C2C25650   6.120  29.890  18.090
 1069BOLB   C3C25651   6.270  29.550  18.150
 1069BOLB   C4C25652   6.550  29.240  17.890
 1069BOLB   C1D25653   6.550  30.400  17.950
 1069BOLB   C2D25654   6.630  29.990  18.030
 1069BOLB   C3D25655   6.840  29.620  17.900
 1069BOLB   C4D25656   7.220  29.360  17.810
 1070BOLB   NC125657  14.850  24.030  20.180
 1070BOLB   PO125658  14.970  24.320  20.630
 1070BOLB   GL125659  15.230  24.550  20.900
 1070BOLB   GL225660  15.170  24.800  21.120
 1070BOLB   C1A25661  15.650  24.690  21.060
 1070BOLB   C2A25662  15.960  24.970  21.190
 1070BOLB   C3A25663  16.020  25.270  21.380
 1070BOLB   C4A25664  15.810  25.600  21.620
 1070BOLB   C1B25665  15.400  25.050  21.220
 1070BOLB   C2B25666  15.570  25.420  21.210
 1070BOLB   C3B25667  15.650  25.850  21.160
 1070BOLB   C4B25668  15.730  26.150  21.200
 1070BOLB   NC225669  16.170  27.650  23.100
 1070BOLB   PO225670  15.940  27.500  22.870
 1070BOLB   GL325671  16.040  27.140  22.760
 1070BOLB   GL425672  16.190  27.130  22.430
 1070BOLB   C1C25673  15.960  26.650  22.710
 1070BOLB   C2C25674  15.800  26.390  22.400
 1070BOLB   C3C25675  15.950  26.130  22.160
 1070BOLB   C4C25676  15.810  25.780  22.030
 1070BOLB   C1D25677  15.860  26.890  22.310
 1070BOLB   C2D25678  15.490  26.760  22.120
 1070BOLB   C3D25679  15.140  26.610  21.900
 1070BOLB   C4D25680  14.870  26.510  21.510
 1071BOLB   NC125681   9.610  24.820   9.600
 1071BOLB   PO125682   9.260  24.770   9.720
 1071BOLB   GL125683   9.170  24.920   9.330
 1071BOLB   GL225684   8.790  24.890   9.380
 1071BOLB   C1A25685   9.350  25.230   9.100
 1071BOLB   C2A25686   9.190  25.580   8.920
 1071BOLB   C3A25687   9.250  25.950   8.650
 1071BOLB   C4A25688   9.180  26.430   8.530
 1071BOLB   C1B25689   8.700  25.280   9.190
 1071BOLB   C2B25690   8.600  25.630   8.980
 1071BOLB   C3B25691   8.450  26.100   8.900
 1071BOLB   C4B25692   8.250  26.500   8.930
 1071BOLB   NC225693   9.910  28.370   7.440
 1071BOLB   PO225694   9.590  28.440   7.410
 1071BOLB   GL325695   9.490  28.120   7.810
 1071BOLB   GL425696   9.140  28.250   8.070
 1071BOLB   C1C25697   9.530  27.740   7.930
 1071BOLB   C2C25698   9.570  27.390   8.270
 1071BOLB   C3C25699   9.550  26.980   8.280
 1071BOLB   C4C25700   9.490  26.550   8.220
 1071BOLB   C1D25701   9.350  28.020   8.370
 1071BOLB   C2D25702   9.530  27.700   8.680
 1071BOLB   C3D25703   9.950  27.600   8.660
 1071BOLB   C4D25704  10.230  27.260   8.840
 1072BOLB   NC125705   3.270  25.110  14.850
 1072BOLB   PO125706   3.530  25.410  14.930
 1072BOLB   GL125707   3.150  25.580  14.810
 1072BOLB   GL225708   3.180  25.500  14.520
 1072BOLB   C1A25709   2.740  25.790  14.980
 1072BOLB   C2A25710   2.500  26.070  15.060
 1072BOLB   C3A25711   2.470  26.530  15.030
 1072BOLB   C4A25712   2.220  26.800  14.820
 1072BOLB   C1B25713   2.830  25.810  14.370
 1072BOLB   C2B25714   2.570  26.150  14.420
 1072BOLB   C3B25715   2.510  26.610  14.330
 1072BOLB   C4B25716   2.400  27.030  14.340
 1072BOLB   NC225717  36.200  28.030  14.080
 1072BOLB   PO225718   0.040  27.640  13.780
 1072BOLB   GL325719   0.390  27.400  13.870
 1072BOLB   GL425720   0.270  27.040  13.980
 1072BOLB   C1C25721   0.700  27.240  14.040
 1072BOLB   C2C25722   0.960  27.130  14.390
 1072BOLB   C3C25723   1.400  27.030  14.550
 1072BOLB   C4C25724   1.760  26.970  14.710
 1072BOLB   C1D25725   0.450  26.620  13.900
 1072BOLB   C2D25726   0.830  26.380  13.940
 1072BOLB   C3D25727   1.060  26.170  14.220
 1072BOLB   C4D25728   0.900  26.200  14.650
 1073BOLB   NC125729  19.790  18.970  14.040
 1073BOLB   PO125730  20.040  19.100  13.680
 1073BOLB   GL125731  20.480  19.160  13.860
 1073BOLB   GL225732  20.570  19.230  13.590
 1073BOLB   C1A25733  20.780  18.860  13.940
 1073BOLB   C2A25734  20.870  18.710  13.530
 1073BOLB   C3A25735  21.300  18.550  13.450
 1073BOLB   C4A25736  21.750  18.640  13.520
 1073BOLB   C1B25737  21.000  19.340  13.710
 1073BOLB   C2B25738  21.270  19.190  13.890
 1073BOLB   C3B25739  21.730  19.380  14.080
 1073BOLB   C4B25740  22.190  19.490  14.030
 1073BOLB   NC225741  23.650  17.040  14.060
 1073BOLB   PO225742  23.860  17.500  13.980
 1073BOLB   GL325743  23.440  17.410  13.790
 1073BOLB   GL425744  23.460  17.260  13.580
 1073BOLB   C1C25745  23.120  17.570  13.460
 1073BOLB   C2C25746  22.710  17.850  13.460
 1073BOLB   C3C25747  22.220  18.030  13.450
 1073BOLB   C4C25748  22.030  18.420  13.470
 1073BOLB   C1D25749  23.020  17.220  13.890
 1073BOLB   C2D25750  22.570  17.280  13.660
 1073BOLB   C3D25751  22.200  17.480  13.490
 1073BOLB   C4D25752  21.790  17.750  13.550
 1074BOLB   NC125753  17.130  24.550  13.560
 1074BOLB   PO125754  17.000  24.540  13.250
 1074BOLB   GL125755  17.300  24.860  13.100
 1074BOLB   GL225756  17.340  24.990  12.750
 1074BOLB   C1A25757  17.790  25.020  13.020
 1074BOLB   C2A25758  17.990  25.310  12.880
 1074BOLB   C3A25759  18.210  25.550  12.980
 1074BOLB   C4A25760  18.360  26.000  12.930
 1074BOLB   C1B25761  17.730  25.040  12.530
 1074BOLB   C2B25762  17.900  25.330  12.260
 1074BOLB   C3B25763  18.350  25.490  12.110
 1074BOLB   C4B25764  18.710  25.420  12.110
 1074BOLB   NC225765  19.200  27.730  11.380
 1074BOLB   PO225766  19.580  27.640  11.480
 1074BOLB   GL325767  19.550  27.430  11.760
 1074BOLB   GL425768  19.500  27.610  12.180
 1074BOLB   C1C25769  19.280  27.210  11.980
 1074BOLB   C2C25770  19.090  26.900  12.320
 1074BOLB   C3C25771  18.900  26.580  12.600
 1074BOLB   C4C25772  18.780  26.230  12.680
 1074BOLB   C1D25773  19.010  27.430  12.370
 1074BOLB   C2D25774  18.540  27.470  12.420
 1074BOLB   C3D25775  18.130  27.150  12.310
 1074BOLB   C4D25776  17.970  26.820  12.450
 1075BOLB   NC125777  18.280  23.800  16.600
 1075BOLB   PO125778  18.430  24.160  16.320
 1075BOLB   GL125779  18.910  24.380  16.440
 1075BOLB   GL225780  18.740  24.670  16.630
 1075BOLB   C1A25781  19.340  24.320  16.570
 1075BOLB   C2A25782  19.710  24.340  16.330
 1075BOLB   C3A25783  20.150  24.240  16.180
 1075BOLB   C4A25784  20.460  24.320  15.970
 1075BOLB   C1B25785  18.900  25.040  16.620
 1075BOLB   C2B25786  19.170  25.270  16.940
 1075BOLB   C3B25787  19.590  25.460  16.870
 1075BOLB   C4B25788  19.980  25.520  16.580
 1075BOLB   NC225789  22.310  25.100  16.990
 1075BOLB   PO225790  22.240  25.010  16.450
 1075BOLB   GL325791  22.170  24.640  16.340
 1075BOLB   GL425792  22.110  24.420  16.000
 1075BOLB   C1C25793  21.750  24.320  16.410
 1075BOLB   C2C25794  21.570  24.060  16.190
 1075BOLB   C3C25795  21.270  24.390  15.890
 1075BOLB   C4C25796  20.870  24.520  16.090
 1075BOLB   C1D25797  21.700  24.590  15.970
 1075BOLB   C2D25798  21.460  24.910  15.790
 1075BOLB   C3D25799  21.120  25.240  15.930
 1075BOLB   C4D25800  20.820  25.550  16.090
 1076BOLB   NC125801  16.190  24.870  18.810
 1076BOLB   PO125802  16.150  25.290  18.700
 1076BOLB   GL125803  16.480  25.410  18.860
 1076BOLB   GL225804  16.560  25.150  19.110
 1076BOLB   C1A25805  16.610  25.580  19.290
 1076BOLB   C2A25806  16.430  25.730  19.510
 1076BOLB   C3A25807  16.370  25.920  20.020
 1076BOLB   C4A25808  16.230  26.340  20.140
 1076BOLB   C1B25809  16.860  25.100  19.340
 1076BOLB   C2B25810  17.200  25.280  19.670
 1076BOLB   C3B25811  17.460  25.220  20.130
 1076BOLB   C4B25812  17.560  24.940  20.500
 1076BOLB   NC225813  17.830  28.110  21.650
 1076BOLB   PO225814  17.720  28.070  21.320
 1076BOLB   GL325815  17.650  27.890  20.890
 1076BOLB   GL425816  17.890  27.900  20.680
 1076BOLB   C1C25817  17.420  27.710  20.540
 1076BOLB   C2C25818  17.180  27.350  20.340
 1076BOLB   C3C25819  16.870  27.180  20.270
 1076BOLB   C4C25820  16.550  26.740  20.080
 1076BOLB   C1D25821  17.870  27.670  20.350
 1076BOLB   C2D25822  17.570  27.550  20.050
 1076BOLB   C3D25823  17.250  27.350  19.830
 1076BOLB   C4D25824  17.010  26.970  19.830
 1077BOLB   NC125825   9.680  27.770  16.590
 1077BOLB   PO125826   9.840  27.730  17.020
 1077BOLB   GL125827   9.920  28.150  17.310
 1077BOLB   GL225828  10.180  28.050  17.610
 1077BOLB   C1A25829  10.170  28.550  17.290
 1077BOLB   C2A25830  10.400  28.680  17.490
 1077BOLB   C3A25831  10.870  28.730  17.470
 1077BOLB   C4A25832  10.910  29.140  17.570
 1077BOLB   C1B25833  10.070  28.410  17.770
 1077BOLB   C2B25834   9.720  28.670  17.580
 1077BOLB   C3B25835   9.490  29.030  17.690
 1077BOLB   C4B25836   9.250  29.390  17.820
 1077BOLB   NC225837   9.630  31.070  18.920
 1077BOLB   PO225838  10.080  31.020  19.080
 1077BOLB   GL325839  10.280  30.650  18.770
 1077BOLB   GL425840  10.090  30.310  18.800
 1077BOLB   C1C25841  10.480  30.380  18.500
 1077BOLB   C2C25842  10.660  30.180  18.110
 1077BOLB   C3C25843  10.700  29.900  17.890
 1077BOLB   C4C25844  10.920  29.510  17.780
 1077BOLB   C1D25845  10.150  30.060  18.410
 1077BOLB   C2D25846  10.280  29.860  18.100
 1077BOLB   C3D25847  10.360  29.510  17.780
 1077BOLB   C4D25848  10.510  29.390  17.430
 1078BOLB   NC125849  15.620  25.310  12.310
 1078BOLB   PO125850  15.380  25.700  12.410
 1078BOLB   GL125851  15.700  25.950  12.180
 1078BOLB   GL225852  15.540  26.290  12.120
 1078BOLB   C1A25853  16.000  26.170  11.890
 1078BOLB   C2A25854  16.160  26.530  11.700
 1078BOLB   C3A25855  16.500  26.830  11.580
 1078BOLB   C4A25856  16.350  27.260  11.470
 1078BOLB   C1B25857  15.960  26.540  12.240
 1078BOLB   C2B25858  16.270  26.840  12.230
 1078BOLB   C3B25859  16.370  27.240  12.390
 1078BOLB   C4B25860  16.670  27.550  12.620
 1078BOLB   NC225861  16.960  28.700   9.760
 1078BOLB   PO225862  16.810  29.060   9.950
 1078BOLB   GL325863  16.700  28.740  10.270
 1078BOLB   GL425864  16.680  28.420  10.050
 1078BOLB   C1C25865  16.920  28.280  10.510
 1078BOLB   C2C25866  16.760  28.010  10.670
 1078BOLB   C3C25867  16.650  27.780  10.960
 1078BOLB   C4C25868  16.430  27.620  11.190
 1078BOLB   C1D25869  16.350  28.030  10.130
 1078BOLB   C2D25870  16.280  27.630  10.280
 1078BOLB   C3D25871  15.870  27.340  10.160
 1078BOLB   C4D25872  15.840  26.930  10.080
 1079BOLB   NC125873  16.460  25.030  18.370
 1079BOLB   PO125874  16.810  24.980  18.000
 1079BOLB   GL125875  16.790  25.470  18.060
 1079BOLB   GL225876  16.770  25.420  18.360
 1079BOLB   C1A25877  16.880  25.850  18.070
 1079BOLB   C2A25878  16.800  26.200  18.360
 1079BOLB   C3A25879  16.980  26.480  18.750
 1079BOLB   C4A25880  17.270  26.680  18.940
 1079BOLB   C1B25881  17.100  25.680  18.490
 1079BOLB   C2B25882  17.130  25.970  18.710
 1079BOLB   C3B25883  17.460  26.260  18.790
 1079BOLB   C4B25884  17.650  26.550  18.540
 1079BOLB   NC225885  17.720  28.920  19.340
 1079BOLB   PO225886  17.760  28.730  19.670
 1079BOLB   GL325887  17.840  28.360  19.340
 1079BOLB   GL425888  17.570  28.150  19.200
 1079BOLB   C1C25889  18.050  27.950  19.410
 1079BOLB   C2C25890  18.100  27.540  19.290
 1079BOLB   C3C25891  18.030  27.130  19.250
 1079BOLB   C4C25892  17.670  26.850  19.080
 1079BOLB   C1D25893  17.560  27.780  19.240
 1079BOLB   C2D25894  17.580  27.320  19.410
 1079BOLB   C3D25895  17.350  26.960  19.420
 1079BOLB   C4D25896  16.950  26.870  19.310
 1080BOLB   NC125897  15.300  26.100  15.720
 1080BOLB   PO125898  15.150  26.530  15.660
 1080BOLB   GL125899  15.570  26.840  15.830
 1080BOLB   GL225900  15.690  26.690  16.070
 1080BOLB   C1A25901  15.750  27.260  15.700
 1080BOLB   C2A25902  15.890  27.700  15.760
 1080BOLB   C3A25903  15.990  28.140  15.960
 1080BOLB   C4A25904  16.110  28.300  16.310
 1080BOLB   C1B25905  15.980  27.040  16.120
 1080BOLB   C2B25906  16.090  27.380  16.240
 1080BOLB   C3B25907  16.180  27.820  16.290
 1080BOLB   C4B25908  16.580  27.940  16.200
 1080BOLB   NC225909  16.970  30.570  17.270
 1080BOLB   PO225910  17.200  30.260  16.920
 1080BOLB   GL325911  17.120  29.830  16.860
 1080BOLB   GL425912  17.330  29.630  16.970
 1080BOLB   C1C25913  16.810  29.590  17.090
 1080BOLB   C2C25914  16.550  29.300  17.000
 1080BOLB   C3C25915  16.470  28.950  16.700
 1080BOLB   C4C25916  16.490  28.610  16.460
 1080BOLB   C1D25917  17.050  29.230  16.730
 1080BOLB   C2D25918  17.010  28.790  16.730
 1080BOLB   C3D25919  16.800  28.420  16.800
 1080BOLB   C4D25920  16.410  28.170  16.670
 1081BOLB   NC125921  20.810  13.060  19.130
 1081BOLB   PO125922  21.250  12.930  19.020
 1081BOLB   GL125923  21.050  13.270  18.730
 1081BOLB   GL225924  20.740  13.260  18.680
 1081BOLB   C1A25925  20.880  13.460  18.250
 1081BOLB   C2A25926  20.780  13.500  17.820
 1081BOLB   C3A25927  20.560  13.700  17.570
 1081BOLB   C4A25928  20.760  13.850  17.270
 1081BOLB   C1B25929  20.460  13.190  18.520
 1081BOLB   C2B25930  20.470  13.110  18.080
 1081BOLB   C3B25931  20.560  13.020  17.610
 1081BOLB   C4B25932  20.420  13.290  17.270
 1081BOLB   NC225933  22.160  12.610  17.680
 1081BOLB   PO225934  21.940  12.970  17.610
 1081BOLB   GL325935  21.880  13.300  17.260
 1081BOLB   GL425936  21.710  13.630  17.370
 1081BOLB   C1C25937  21.860  13.620  16.860
 1081BOLB   C2C25938  21.420  13.580  16.630
 1081BOLB   C3C25939  20.950  13.720  16.500
 1081BOLB   C4C25940  20.770  13.700  16.860
 1081BOLB   C1D25941  21.330  13.690  17.070
 1081BOLB   C2D25942  21.160  14.050  16.860
 1081BOLB   C3D25943  20.710  14.240  16.950
 1081BOLB   C4D25944  20.530  14.300  17.370
 1082BOLB   NC125945  18.040  24.000  13.760
 1082BOLB   PO125946  17.890  23.970  13.380
 1082BOLB   GL125947  18.220  24.220  13.300
 1082BOLB   GL225948  18.440  24.280  13.550
 1082BOLB   C1A25949  18.480  24.430  12.910
 1082BOLB   C2A25950  18.830  24.360  12.650
 1082BOLB   C3A25951  19.160  24.550  12.540
 1082BOLB   C4A25952  19.340  24.790  12.190
 1082BOLB   C1B25953  18.800  24.420  13.370
 1082BOLB   C2B25954  18.930  24.700  13.050
 1082BOLB   C3B25955  19.150  25.160  13.050
 1082BOLB   C4B25956  19.290  25.430  13.240
 1082BOLB   NC225957  21.860  26.110  12.270
 1082BOLB   PO225958  21.500  26.200  11.970
 1082BOLB   GL325959  21.090  25.990  11.930
 1082BOLB   GL425960  20.980  26.110  11.630
 1082BOLB   C1C25961  20.780  25.660  11.590
 1082BOLB   C2C25962  20.320  25.430  11.570
 1082BOLB   C3C25963  19.930  25.220  11.690
 1082BOLB   C4C25964  19.570  25.110  12.010
 1082BOLB   C1D25965  20.580  26.150  11.880
 1082BOLB   C2D25966  20.240  26.100  12.050
 1082BOLB   C3D25967  19.890  25.870  12.170
 1082BOLB   C4D25968  19.670  25.600  12.400
 1083BOLB   NC125969  17.360  25.200  14.210
 1083BOLB   PO125970  17.430  25.390  14.620
 1083BOLB   GL125971  17.730  25.550  14.310
 1083BOLB   GL225972  17.770  25.880  14.320
 1083BOLB   C1A25973  18.170  25.560  14.240
 1083BOLB   C2A25974  18.380  25.870  13.810
 1083BOLB   C3A25975  18.810  26.110  13.830
 1083BOLB   C4A25976  19.080  26.070  14.180
 1083BOLB   C1B25977  18.110  26.110  14.150
 1083BOLB   C2B25978  18.200  26.360  13.730
 1083BOLB   C3B25979  18.070  26.740  13.490
 1083BOLB   C4B25980  17.650  26.890  13.380
 1083BOLB   NC225981  20.700  28.270  14.360
 1083BOLB   PO225982  20.270  28.160  14.220
 1083BOLB   GL325983  19.980  27.790  14.330
 1083BOLB   GL425984  19.800  27.790  14.640
 1083BOLB   C1C25985  19.780  27.330  14.340
 1083BOLB   C2C25986  19.660  27.000  14.520
 1083BOLB   C3C25987  19.490  26.610  14.650
 1083BOLB   C4C25988  19.350  26.290  14.570
 1083BOLB   C1D25989  19.550  27.520  14.770
 1083BOLB   C2D25990  19.190  27.620  14.980
 1083BOLB   C3D25991  18.760  27.410  14.890
 1083BOLB   C4D25992  18.540  27.070  14.770
 1084BOLB   NC125993  12.360  26.720  19.360
 1084BOLB   PO125994  12.050  26.720  19.170
 1084BOLB   GL125995  11.790  27.050  19.390
 1084BOLB   GL225996  11.830  26.940  19.640
 1084BOLB   C1A25997  11.620  27.500  19.400
 1084BOLB   C2A25998  11.760  27.900  19.580
 1084BOLB   C3A25999  11.990  28.250  19.580
 1084BOLB   C4A26000  12.220  28.620  19.680
 1084BOLB   C1B26001  11.870  27.370  19.840
 1084BOLB   C2B26002  11.970  27.800  20.030
 1084BOLB   C3B26003  12.260  28.210  20.000
 1084BOLB   C4B26004  12.570  28.530  20.060
 1084BOLB   NC226005  11.880  30.490  20.010
 1084BOLB   PO226006  12.110  30.710  19.680
 1084BOLB   GL326007  11.900  30.400  19.400
 1084BOLB   GL426008  11.760  30.300  19.520
 1084BOLB   C1C26009  11.880  29.940  19.090
 1084BOLB   C2C26010  12.230  29.570  19.050
 1084BOLB   C3C26011  12.500  29.300  19.270
 1084BOLB   C4C26012  12.390  28.950  19.470
 1084BOLB   C1D26013  12.170  29.990  19.550
 1084BOLB   C2D26014  12.300  29.610  19.570
 1084BOLB   C3D26015  12.570  29.310  19.760
 1084BOLB   C4D26016  12.800  28.990  19.840
 1085BOLB   NC126017   6.120  25.730  12.700
 1085BOLB   PO126018   6.470  25.880  12.410
 1085BOLB   GL126019   6.360  26.350  12.170
 1085BOLB   GL226020   5.960  26.330  11.970
 1085BOLB   C1A26021   6.320  26.810  11.970
 1085BOLB   C2A26022   6.450  27.150  11.880
 1085BOLB   C3A26023   6.620  27.560  11.860
 1085BOLB   C4A26024   6.730  27.930  11.920
 1085BOLB   C1B26025   5.890  26.350  11.530
 1085BOLB   C2B26026   5.890  26.530  11.200
 1085BOLB   C3B26027   5.830  26.900  10.940
 1085BOLB   C4B26028   5.710  27.260  10.840
 1085BOLB   NC226029   4.710  29.330  11.240
 1085BOLB   PO226030   4.950  29.750  11.400
 1085BOLB   GL326031   5.240  29.450  11.410
 1085BOLB   GL426032   5.220  29.070  11.250
 1085BOLB   C1C26033   5.580  29.140  11.550
 1085BOLB   C2C26034   5.840  28.880  11.690
 1085BOLB   C3C26035   6.220  28.610  11.860
 1085BOLB   C4C26036   6.620  28.390  11.740
 1085BOLB   C1D26037   5.060  28.630  11.130
 1085BOLB   C2D26038   4.730  28.370  11.170
 1085BOLB   C3D26039   4.520  27.950  11.070
 1085BOLB   C4D26040   4.330  27.730  10.670
 1086BOLB   NC126041   3.670  28.890  20.530
 1086BOLB   PO126042   3.670  29.080  20.150
 1086BOLB   GL126043   3.910  28.750  19.940
 1086BOLB   GL226044   4.200  28.850  19.960
 1086BOLB   C1A26045   4.210  28.480  19.660
 1086BOLB   C2A26046   4.590  28.270  19.690
 1086BOLB   C3A26047   4.830  27.960  19.720
 1086BOLB   C4A26048   5.300  27.980  19.540
 1086BOLB   C1B26049   4.490  28.910  19.590
 1086BOLB   C2B26050   4.680  28.670  19.290
 1086BOLB   C3B26051   4.450  28.200  19.230
 1086BOLB   C4B26052   4.470  27.830  19.450
 1086BOLB   NC226053   5.940  29.760  20.320
 1086BOLB   PO226054   5.810  30.050  20.000
 1086BOLB   GL326055   6.090  29.780  19.850
 1086BOLB   GL426056   6.240  29.570  20.000
 1086BOLB   C1C26057   5.990  29.440  19.630
 1086BOLB   C2C26058   5.870  29.020  19.680
 1086BOLB   C3C26059   5.890  28.610  19.580
 1086BOLB   C4C26060   5.610  28.370  19.500
 1086BOLB   C1D26061   6.460  29.040  19.850
 1086BOLB   C2D26062   6.440  28.610  19.900
 1086BOLB   C3D26063   6.400  28.260  19.560
 1086BOLB   C4D26064   6.110  27.970  19.310
 1087BOLB   NC126065   9.880  26.900  17.760
 1087BOLB   PO126066   9.840  27.180  17.420
 1087BOLB   GL126067   9.770  27.380  17.780
 1087BOLB   GL226068  10.020  27.570  17.710
 1087BOLB   C1A26069   9.910  27.620  18.200
 1087BOLB   C2A26070  10.060  28.090  18.260
 1087BOLB   C3A26071  10.010  28.520  18.480
 1087BOLB   C4A26072  10.090  28.850  18.710
 1087BOLB   C1B26073   9.650  27.890  17.790
 1087BOLB   C2B26074   9.440  28.210  17.580
 1087BOLB   C3B26075   9.210  28.560  17.600
 1087BOLB   C4B26076   9.000  28.930  17.730
 1087BOLB   NC226077  11.350  31.150  18.600
 1087BOLB   PO226078  11.310  31.130  18.980
 1087BOLB   GL326079  10.970  30.810  18.900
 1087BOLB   GL426080  10.820  30.860  18.670
 1087BOLB   C1C26081  10.690  30.430  18.970
 1087BOLB   C2C26082  10.410  29.970  18.860
 1087BOLB   C3C26083  10.330  29.530  18.610
 1087BOLB   C4C26084  10.240  29.200  18.830
 1087BOLB   C1D26085  10.980  30.310  18.600
 1087BOLB   C2D26086  10.770  29.880  18.420
 1087BOLB   C3D26087  10.720  29.470  18.220
 1087BOLB   C4D26088  10.660  29.110  18.440
 1088BOLB   NC126089  17.490  23.570  16.700
 1088BOLB   PO126090  17.900  23.670  16.890
 1088BOLB   GL126091  18.180  23.940  17.070
 1088BOLB   GL226092  18.450  24.060  17.450
 1088BOLB   C1A26093  18.560  24.280  16.940
 1088BOLB   C2A26094  18.950  24.300  16.930
 1088BOLB   C3A26095  19.150  24.710  16.860
 1088BOLB   C4A26096  19.670  24.740  16.670
 1088BOLB   C1B26097  18.710  24.060  17.740
 1088BOLB   C2B26098  19.060  24.110  18.010
 1088BOLB   C3B26099  19.370  23.950  18.300
 1088BOLB   C4B26100  19.630  23.590  18.570
 1088BOLB   NC226101  21.620  26.110  16.150
 1088BOLB   PO226102  21.450  25.770  16.350
 1088BOLB   GL326103  21.290  25.380  16.440
 1088BOLB   GL426104  21.020  25.380  16.650
 1088BOLB   C1C26105  21.100  24.910  16.360
 1088BOLB   C2C26106  20.720  24.810  16.560
 1088BOLB   C3C26107  20.320  25.000  16.740
 1088BOLB   C4C26108  19.940  25.070  16.800
 1088BOLB   C1D26109  20.900  25.100  16.950
 1088BOLB   C2D26110  21.050  24.620  17.060
 1088BOLB   C3D26111  20.870  24.410  16.810
 1088BOLB   C4D26112  20.540  24.310  16.500
 1089BOLB   NC126113  19.250  21.500  14.190
 1089BOLB   PO126114  19.450  21.620  13.740
 1089BOLB   GL126115  19.850  21.800  13.620
 1089BOLB   GL226116  19.930  22.020  13.850
 1089BOLB   C1A26117  20.360  21.970  13.580
 1089BOLB   C2A26118  20.670  22.270  13.630
 1089BOLB   C3A26119  20.880  22.470  13.250
 1089BOLB   C4A26120  21.090  22.690  13.010
 1089BOLB   C1B26121  20.350  21.980  14.090
 1089BOLB   C2B26122  20.760  22.190  14.130
 1089BOLB   C3B26123  21.060  22.510  14.200
 1089BOLB   C4B26124  21.310  22.700  14.670
 1089BOLB   NC226125  22.730  23.920  12.560
 1089BOLB   PO226126  22.870  24.050  12.920
 1089BOLB   GL326127  22.600  23.830  13.060
 1089BOLB   GL426128  22.390  23.730  12.800
 1089BOLB   C1C26129  22.460  23.330  13.080
 1089BOLB   C2C26130  22.280  23.040  12.890
 1089BOLB   C3C26131  21.870  22.810  12.920
 1089BOLB   C4C26132  21.560  22.630  12.870
 1089BOLB   C1D26133  22.000  23.620  13.050
 1089BOLB   C2D26134  21.590  23.560  13.130
 1089BOLB   C3D26135  21.140  23.630  13.010
 1089BOLB   C4D26136  21.110  24.020  12.910
 1090BOLB   NC126137   6.550  31.310  16.560
 1090BOLB   PO126138   6.580  30.970  16.430
 1090BOLB   GL126139   6.540  30.620  16.190
 1090BOLB   GL226140   6.260  30.640  16.160
 1090BOLB   C1A26141   6.860  30.390  15.980
 1090BOLB   C2A26142   6.840  30.090  15.520
 1090BOLB   C3A26143   6.830  29.720  15.220
 1090BOLB   C4A26144   7.170  29.770  14.950
 1090BOLB   C1B26145   5.900  30.280  16.340
 1090BOLB   C2B26146   5.900  29.830  16.320
 1090BOLB   C3B26147   6.250  29.660  16.110
 1090BOLB   C4B26148   6.440  29.260  15.940
 1090BOLB   NC226149   7.160  31.080  13.570
 1090BOLB   PO226150   6.630  31.060  13.710
 1090BOLB   GL326151   6.780  30.690  13.820
 1090BOLB   GL426152   7.100  30.580  13.900
 1090BOLB   C1C26153   6.760  30.330  13.560
 1090BOLB   C2C26154   6.860  29.920  13.760
 1090BOLB   C3C26155   7.120  29.720  14.120
 1090BOLB   C4C26156   7.340  29.790  14.530
 1090BOLB   C1D26157   7.070  30.260  14.150
 1090BOLB   C2D26158   6.700  29.970  14.200
 1090BOLB   C3D26159   6.570  29.590  13.980
 1090BOLB   C4D26160   6.700  29.330  13.560
 1091BOLB   NC126161  16.450  22.040  20.280
 1091BOLB   PO126162  16.770  22.220  19.940
 1091BOLB   GL126163  17.040  22.430  20.090
 1091BOLB   GL226164  16.990  22.740  20.070
 1091BOLB   C1A26165  17.190  22.350  20.500
 1091BOLB   C2A26166  17.010  22.110  20.930
 1091BOLB   C3A26167  17.090  21.850  21.320
 1091BOLB   C4A26168  17.430  21.760  21.640
 1091BOLB   C1B26169  17.290  22.850  20.390
 1091BOLB   C2B26170  17.680  22.890  20.590
 1091BOLB   C3B26171  18.100  23.050  20.600
 1091BOLB   C4B26172  18.460  23.260  20.560
 1091BOLB   NC226173  19.240  21.010  23.370
 1091BOLB   PO226174  19.000  21.370  23.310
 1091BOLB   GL326175  18.700  21.420  23.180
 1091BOLB   GL426176  18.450  21.180  23.150
 1091BOLB   C1C26177  18.430  21.520  22.820
 1091BOLB   C2C26178  18.310  21.290  22.450
 1091BOLB   C3C26179  18.010  21.450  22.050
 1091BOLB   C4C26180  17.760  21.550  21.700
 1091BOLB   C1D26181  18.120  21.100  23.360
 1091BOLB   C2D26182  17.710  20.950  23.260
 1091BOLB   C3D26183  17.480  20.960  23.000
 1091BOLB   C4D26184  17.650  20.710  22.640
 1092BOLB   NC126185   3.820  25.160  17.380
 1092BOLB   PO126186   3.650  25.510  17.040
 1092BOLB   GL126187   3.370  25.900  17.020
 1092BOLB   GL226188   3.140  25.860  17.110
 1092BOLB   C1A26189   3.370  26.390  16.870
 1092BOLB   C2A26190   3.380  26.810  16.890
 1092BOLB   C3A26191   3.110  27.070  16.970
 1092BOLB   C4A26192   2.840  27.230  16.730
 1092BOLB   C1B26193   3.030  26.190  17.160
 1092BOLB   C2B26194   2.710  26.500  17.050
 1092BOLB   C3B26195   2.230  26.600  17.020
 1092BOLB   C4B26196   1.800  26.690  16.910
 1092BOLB   NC226197   1.810  29.250  16.000
 1092BOLB   PO226198   1.530  28.970  15.930
 1092BOLB   GL326199   1.640  28.590  15.670
 1092BOLB   GL426200   1.950  28.630  15.420
 1092BOLB   C1C26201   1.780  28.140  15.870
 1092BOLB   C2C26202   2.100  27.870  15.840
 1092BOLB   C3C26203   2.300  27.570  16.210
 1092BOLB   C4C26204   2.530  27.510  16.530
 1092BOLB   C1D26205   2.180  28.320  15.540
 1092BOLB   C2D26206   2.430  28.070  15.470
 1092BOLB   C3D26207   2.530  27.660  15.690
 1092BOLB   C4D26208   2.840  27.420  15.460
 1093BOLB   NC126209   6.940  31.270  18.210
 1093BOLB   PO126210   6.590  31.220  17.790
 1093BOLB   GL126211   6.560  30.880  17.550
 1093BOLB   GL226212   6.830  30.770  17.360
 1093BOLB   C1A26213   6.320  30.450  17.520
 1093BOLB   C2A26214   6.420  30.080  17.580
 1093BOLB   C3A26215   6.350  29.600  17.620
 1093BOLB   C4A26216   6.100  29.260  17.620
 1093BOLB   C1B26217   6.970  30.530  17.690
 1093BOLB   C2B26218   6.980  30.060  17.630
 1093BOLB   C3B26219   7.170  29.690  17.410
 1093BOLB   C4B26220   7.410  29.330  17.330
 1093BOLB   NC226221   5.690  26.660  16.990
 1093BOLB   PO226222   6.010  26.700  17.220
 1093BOLB   GL326223   5.810  27.140  17.220
 1093BOLB   GL426224   5.670  27.200  17.490
 1093BOLB   C1C26225   5.600  27.670  17.090
 1093BOLB   C2C26226   5.470  28.050  17.380
 1093BOLB   C3C26227   5.510  28.510  17.560
 1093BOLB   C4C26228   5.850  28.910  17.590
 1093BOLB   C1D26229   5.610  27.620  17.710
 1093BOLB   C2D26230   5.430  27.890  17.900
 1093BOLB   C3D26231   5.490  28.270  18.030
 1093BOLB   C4D26232   5.770  28.630  18.120
 1094BOLB   NC126233  20.470  27.840  13.370
 1094BOLB   PO126234  20.290  27.510  13.100
 1094BOLB   GL126235  19.980  27.470  13.420
 1094BOLB   GL226236  19.750  27.530  13.190
 1094BOLB   C1A26237  19.610  27.150  13.430
 1094BOLB   C2A26238  19.170  27.010  13.540
 1094BOLB   C3A26239  18.860  27.350  13.520
 1094BOLB   C4A26240  18.360  27.510  13.450
 1094BOLB   C1B26241  19.710  27.160  12.950
 1094BOLB   C2B26242  19.450  26.830  13.010
 1094BOLB   C3B26243  19.320  26.570  13.280
 1094BOLB   C4B26244  19.060  26.510  13.690
 1094BOLB   NC226245  18.100  28.980  12.360
 1094BOLB   PO226246  18.450  28.720  12.620
 1094BOLB   GL326247  18.070  28.440  12.640
 1094BOLB   GL426248  17.930  28.360  12.310
 1094BOLB   C1C26249  17.720  28.340  12.850
 1094BOLB   C2C26250  17.570  28.320  13.250
 1094BOLB   C3C26251  17.720  28.040  13.580
 1094BOLB   C4C26252  17.930  27.800  13.520
 1094BOLB   C1D26253  17.790  27.930  12.600
 1094BOLB   C2D26254  17.830  27.860  13.020
 1094BOLB   C3D26255  17.650  27.560  13.180
 1094BOLB   C4D26256  17.360  27.250  13.220
 1095BOLB   NC126257  15.740  25.530  13.220
 1095BOLB   PO126258  15.970  26.030  13.210
 1095BOLB   GL126259  16.350  26.250  13.300
 1095BOLB   GL226260  16.520  26.310  13.580
 1095BOLB   C1A26261  16.500  26.600  13.110
 1095BOLB   C2A26262  16.720  26.640  12.700
 1095BOLB   C3A26263  16.760  26.920  12.390
 1095BOLB   C4A26264  16.800  27.320  12.070
 1095BOLB   C1B26265  16.810  26.640  13.550
 1095BOLB   C2B26266  17.070  26.870  13.300
 1095BOLB   C3B26267  16.930  27.180  12.960
 1095BOLB   C4B26268  17.110  27.220  12.560
 1095BOLB   NC226269  18.140  29.010  11.500
 1095BOLB   PO226270  18.440  28.690  11.590
 1095BOLB   GL326271  18.240  28.290  11.650
 1095BOLB   GL426272  18.180  28.150  11.940
 1095BOLB   C1C26273  17.860  28.080  11.360
 1095BOLB   C2C26274  17.400  27.900  11.170
 1095BOLB   C3C26275  17.130  27.600  11.390
 1095BOLB   C4C26276  16.750  27.550  11.690
 1095BOLB   C1D26277  17.920  27.850  11.890
 1095BOLB   C2D26278  17.740  27.440  12.040
 1095BOLB   C3D26279  17.800  26.920  11.950
 1095BOLB   C4D26280  17.480  26.640  11.820
 1096BOLB   NC126281  19.470  17.190  16.060
 1096BOLB   PO126282  19.490  17.440  16.380
 1096BOLB   GL126283  19.820  17.170  16.590
 1096BOLB   GL226284  19.790  16.810  16.720
 1096BOLB   C1A26285  20.230  17.220  16.650
 1096BOLB   C2A26286  20.530  17.010  16.710
 1096BOLB   C3A26287  20.880  16.850  16.690
 1096BOLB   C4A26288  21.150  16.730  16.440
 1096BOLB   C1B26289  20.020  16.880  17.090
 1096BOLB   C2B26290  20.490  16.740  17.310
 1096BOLB   C3B26291  20.800  16.430  17.520
 1096BOLB   C4B26292  21.050  16.220  17.810
 1096BOLB   NC226293  23.390  17.000  16.930
 1096BOLB   PO226294  23.310  16.650  17.180
 1096BOLB   GL326295  22.910  16.650  17.200
 1096BOLB   GL426296  22.750  16.810  17.500
 1096BOLB   C1C26297  22.690  17.000  17.060
 1096BOLB   C2C26298  22.290  17.190  16.860
 1096BOLB   C3C26299  21.810  17.010  16.750
 1096BOLB   C4C26300  21.460  17.080  16.490
 1096BOLB   C1D26301  22.290  16.690  17.830
 1096BOLB   C2D26302  21.940  16.570  18.080
 1096BOLB   C3D26303  21.900  16.390  18.490
 1096BOLB   C4D26304  21.610  16.280  18.750
 1097BOLB   NC126305  18.340  23.150  13.310
 1097BOLB   PO126306  18.340  23.360  12.940
 1097BOLB   GL126307  18.520  23.630  12.520
 1097BOLB   GL226308  18.840  23.580  12.340
 1097BOLB   C1A26309  18.730  24.010  12.300
 1097BOLB   C2A26310  19.120  24.090  12.390
 1097BOLB   C3A26311  19.450  24.340  12.120
 1097BOLB   C4A26312  19.930  24.410  12.070
 1097BOLB   C1B26313  19.200  23.470  12.260
 1097BOLB   C2B26314  19.610  23.610  12.350
 1097BOLB   C3B26315  19.770  23.970  12.220
 1097BOLB   C4B26316  20.050  23.940  11.940
 1097BOLB   NC226317  21.800  25.320  10.610
 1097BOLB   PO226318  21.990  24.910  10.650
 1097BOLB   GL326319  21.530  24.970  10.900
 1097BOLB   GL426320  21.490  24.840  11.400
 1097BOLB   C1C26321  21.210  24.790  10.970
 1097BOLB   C2C26322  20.890  24.720  11.280
 1097BOLB   C3C26323  20.510  24.480  11.450
 1097BOLB   C4C26324  20.200  24.390  11.700
 1097BOLB   C1D26325  21.170  24.690  11.750
 1097BOLB   C2D26326  20.870  24.340  11.760
 1097BOLB   C3D26327  20.840  24.050  12.090
 1097BOLB   C4D26328  20.470  23.810  12.280
 1098BOLB   NC126329  13.870  21.270  21.540
 1098BOLB   PO126330  13.910  21.540  21.860
 1098BOLB   GL126331  13.890  21.550  22.340
 1098BOLB   GL226332  13.800  21.230  22.460
 1098BOLB   C1A26333  14.140  21.550  22.690
 1098BOLB   C2A26334  14.170  21.580  23.110
 1098BOLB   C3A26335  14.520  21.530  23.380
 1098BOLB   C4A26336  14.890  21.750  23.470
 1098BOLB   C1B26337  14.000  21.070  22.790
 1098BOLB   C2B26338  14.130  21.120  23.260
 1098BOLB   C3B26339  14.240  20.930  23.720
 1098BOLB   C4B26340  14.130  20.710  24.070
 1098BOLB   NC226341  15.540  22.690  25.730
 1098BOLB   PO226342  15.860  22.370  25.560
 1098BOLB   GL326343  15.580  22.330  25.270
 1098BOLB   GL426344  15.210  22.380  25.160
 1098BOLB   C1C26345  15.680  22.250  24.810
 1098BOLB   C2C26346  15.600  21.990  24.440
 1098BOLB   C3C26347  15.610  21.900  23.960
 1098BOLB   C4C26348  15.350  21.760  23.600
 1098BOLB   C1D26349  15.130  22.260  24.780
 1098BOLB   C2D26350  15.020  21.980  24.410
 1098BOLB   C3D26351  14.790  21.720  24.170
 1098BOLB   C4D26352  14.500  21.880  23.840
 1099BOLB   NC126353  19.640  19.960  12.570
 1099BOLB   PO126354  19.750  20.360  12.690
 1099BOLB   GL126355  20.110  20.180  12.660
 1099BOLB   GL226356  20.370  20.140  12.930
 1099BOLB   C1A26357  20.350  20.350  12.330
 1099BOLB   C2A26358  20.740  20.480  12.280
 1099BOLB   C3A26359  21.090  20.230  12.300
 1099BOLB   C4A26360  21.570  20.180  12.240
 1099BOLB   C1B26361  20.540  20.410  12.830
 1099BOLB   C2B26362  20.970  20.640  12.700
 1099BOLB   C3B26363  21.300  20.760  12.350
 1099BOLB   C4B26364  21.800  20.630  12.450
 1099BOLB   NC226365  24.010  19.590  11.470
 1099BOLB   PO226366  23.900  19.900  11.700
 1099BOLB   GL326367  23.550  19.980  11.800
 1099BOLB   GL426368  23.480  19.920  12.110
 1099BOLB   C1C26369  23.170  19.990  11.720
 1099BOLB   C2C26370  22.760  20.230  11.800
 1099BOLB   C3C26371  22.390  20.390  11.990
 1099BOLB   C4C26372  21.890  20.240  11.990
 1099BOLB   C1D26373  23.410  19.480  12.130
 1099BOLB   C2D26374  23.120  19.150  12.230
 1099BOLB   C3D26375  22.710  19.040  12.340
 1099BOLB   C4D26376  22.240  19.030  12.260
 1100BOLB   NC126377   8.290  23.140  22.340
 1100BOLB   PO126378   8.000  23.480  22.230
 1100BOLB   GL126379   7.820  23.960  22.450
 1100BOLB   GL226380   8.080  24.110  22.670
 1100BOLB   C1A26381   7.510  24.120  22.780
 1100BOLB   C2A26382   7.040  24.090  22.970
 1100BOLB   C3A26383   6.780  24.090  23.310
 1100BOLB   C4A26384   6.440  23.920  23.610
 1100BOLB   C1B26385   7.980  24.130  23.080
 1100BOLB   C2B26386   7.670  24.210  23.240
 1100BOLB   C3B26387   7.350  24.340  23.480
 1100BOLB   C4B26388   7.160  24.300  23.880
 1100BOLB   NC226389   4.820  26.090  24.760
 1100BOLB   PO226390   4.950  25.700  24.700
 1100BOLB   GL326391   5.390  25.580  24.670
 1100BOLB   GL426392   5.620  25.430  24.850
 1100BOLB   C1C26393   5.590  25.110  24.460
 1100BOLB   C2C26394   5.820  24.800  24.190
 1100BOLB   C3C26395   5.900  24.420  24.010
 1100BOLB   C4C26396   6.050  24.190  23.710
 1100BOLB   C1D26397   5.960  25.330  24.620
 1100BOLB   C2D26398   6.230  25.070  24.270
 1100BOLB   C3D26399   6.110  24.960  23.840
 1100BOLB   C4D26400   6.200  24.560  23.570
 1101BOLB   NC126401  11.160  23.050   8.460
 1101BOLB   PO126402  11.420  23.420   8.580
 1101BOLB   GL126403  11.140  23.460   8.150
 1101BOLB   GL226404  11.300  23.710   8.130
 1101BOLB   C1A26405  10.800  23.540   7.950
 1101BOLB   C2A26406  10.890  23.830   7.710
 1101BOLB   C3A26407  10.680  24.200   7.620
 1101BOLB   C4A26408  10.450  24.370   7.250
 1101BOLB   C1B26409  11.130  24.150   8.020
 1101BOLB   C2B26410  11.120  24.550   7.770
 1101BOLB   C3B26411  11.140  24.990   7.730
 1101BOLB   C4B26412  11.380  25.270   7.600
 1101BOLB   NC226413   9.660  26.110   5.290
 1101BOLB   PO226414   9.320  25.760   5.310
 1101BOLB   GL326415   9.520  25.400   5.560
 1101BOLB   GL426416   9.800  25.670   5.750
 1101BOLB   C1C26417   9.640  25.140   5.870
 1101BOLB   C2C26418   9.860  25.060   6.210
 1101BOLB   C3C26419   9.990  24.900   6.670
 1101BOLB   C4C26420  10.150  24.590   6.970
 1101BOLB   C1D26421   9.980  25.540   6.130
 1101BOLB   C2D26422  10.350  25.300   6.200
 1101BOLB   C3D26423  10.580  25.040   6.500
 1101BOLB   C4D26424  10.640  24.840   6.910
 1102BOLB   NC126425  16.520  20.070  19.990
 1102BOLB   PO126426  16.640  20.490  20.130
 1102BOLB   GL126427  17.070  20.380  20.150
 1102BOLB   GL226428  17.080  20.140  20.100
 1102BOLB   C1A26429  17.500  20.310  20.180
 1102BOLB   C2A26430  18.020  20.390  20.300
 1102BOLB   C3A26431  18.280  20.190  20.560
 1102BOLB   C4A26432  18.780  20.080  20.450
 1102BOLB   C1B26433  17.270  20.070  20.570
 1102BOLB   C2B26434  17.210  20.370  20.920
 1102BOLB   C3B26435  17.280  20.410  21.310
 1102BOLB   C4B26436  17.520  20.360  21.680
 1102BOLB   NC226437  20.710  20.950  22.320
 1102BOLB   PO226438  20.370  20.490  22.360
 1102BOLB   GL326439  20.040  20.290  22.010
 1102BOLB   GL426440  19.780  20.540  22.040
 1102BOLB   C1C26441  19.700  20.150  21.780
 1102BOLB   C2C26442  19.370  20.250  21.530
 1102BOLB   C3C26443  19.250  20.140  21.140
 1102BOLB   C4C26444  19.070  19.970  20.810
 1102BOLB   C1D26445  19.570  20.670  21.660
 1102BOLB   C2D26446  19.270  20.750  21.420
 1102BOLB   C3D26447  18.830  20.950  21.360
 1102BOLB   C4D26448  18.640  20.790  20.930
 1103BOLB   NC126449  17.500  23.760  13.470
 1103BOLB   PO126450  17.510  24.200  13.610
 1103BOLB   GL126451  17.870  24.500  13.540
 1103BOLB   GL226452  18.110  24.660  13.740
 1103BOLB   C1A26453  18.230  24.740  13.210
 1103BOLB   C2A26454  18.420  25.090  13.160
 1103BOLB   C3A26455  18.690  25.280  12.950
 1103BOLB   C4A26456  19.010  25.450  12.530
 1103BOLB   C1B26457  18.420  24.940  13.580
 1103BOLB   C2B26458  18.760  25.180  13.460
 1103BOLB   C3B26459  18.960  25.570  13.560
 1103BOLB   C4B26460  19.290  25.820  13.750
 1103BOLB   NC226461  20.940  27.230  11.280
 1103BOLB   PO226462  20.960  26.880  11.340
 1103BOLB   GL326463  20.620  26.650  11.720
 1103BOLB   GL426464  20.540  26.650  12.030
 1103BOLB   C1C26465  20.220  26.460  11.670
 1103BOLB   C2C26466  19.780  26.260  11.830
 1103BOLB   C3C26467  19.380  26.030  11.990
 1103BOLB   C4C26468  19.190  25.640  12.180
 1103BOLB   C1D26469  20.450  26.410  12.430
 1103BOLB   C2D26470  20.240  26.060  12.570
 1103BOLB   C3D26471  19.880  25.870  12.820
 1103BOLB   C4D26472  19.770  25.660  13.200
 1104BOLB   NC126473  10.250  26.200  19.760
 1104BOLB   PO126474  10.000  25.910  20.100
 1104BOLB   GL126475   9.670  26.230  20.290
 1104BOLB   GL226476   9.500  26.430  20.140
 1104BOLB   C1A26477   9.440  26.510  20.620
 1104BOLB   C2A26478   9.410  26.810  20.920
 1104BOLB   C3A26479   9.270  27.260  21.000
 1104BOLB   C4A26480   9.210  27.680  21.110
 1104BOLB   C1B26481   9.450  26.920  20.280
 1104BOLB   C2B26482   9.460  27.260  20.590
 1104BOLB   C3B26483   9.630  27.570  20.850
 1104BOLB   C4B26484   9.840  27.610  21.220
 1104BOLB   NC226485   7.900  29.490  22.340
 1104BOLB   PO226486   8.300  29.410  22.550
 1104BOLB   GL326487   8.300  29.130  22.190
 1104BOLB   GL426488   7.950  28.950  22.160
 1104BOLB   C1C26489   8.360  28.760  21.870
 1104BOLB   C2C26490   8.500  28.530  21.540
 1104BOLB   C3C26491   8.640  28.130  21.420
 1104BOLB   C4C26492   8.850  27.930  21.160
 1104BOLB   C1D26493   7.910  28.570  22.190
 1104BOLB   C2D26494   7.570  28.300  22.420
 1104BOLB   C3D26495   7.140  28.130  22.590
 1104BOLB   C4D26496   6.810  27.880  22.550
 1105BOLB   NC126497  16.740  24.580  14.380
 1105BOLB   PO126498  17.160  24.780  14.070
 1105BOLB   GL126499  17.310  25.100  13.630
 1105BOLB   GL226500  17.590  24.940  13.500
 1105BOLB   C1A26501  17.520  25.410  13.400
 1105BOLB   C2A26502  17.840  25.720  13.240
 1105BOLB   C3A26503  18.070  26.010  13.370
 1105BOLB   C4A26504  18.430  26.250  13.330
 1105BOLB   C1B26505  17.990  25.160  13.550
 1105BOLB   C2B26506  18.260  25.440  13.510
 1105BOLB   C3B26507  18.520  25.720  13.360
 1105BOLB   C4B26508  18.940  25.740  13.070
 1105BOLB   NC226509  20.510  27.150  12.080
 1105BOLB   PO226510  20.110  27.440  12.010
 1105BOLB   GL326511  19.890  27.180  12.310
 1105BOLB   GL426512  19.970  27.340  12.560
 1105BOLB   C1C26513  19.640  26.900  12.510
 1105BOLB   C2C26514  19.410  26.550  12.620
 1105BOLB   C3C26515  19.200  26.260  12.910
 1105BOLB   C4C26516  18.830  26.220  13.190
 1105BOLB   C1D26517  19.520  27.330  12.550
 1105BOLB   C2D26518  19.200  27.160  12.720
 1105BOLB   C3D26519  18.960  26.860  13.070
 1105BOLB   C4D26520  18.740  26.650  13.410
 1106BOLB   NC126521  16.500  14.230  18.030
 1106BOLB   PO126522  16.840  14.460  17.930
 1106BOLB   GL126523  17.020  14.170  18.330
 1106BOLB   GL226524  16.860  13.930  18.180
 1106BOLB   C1A26525  17.440  13.990  18.500
 1106BOLB   C2A26526  17.680  13.660  18.600
 1106BOLB   C3A26527  18.080  13.460  18.560
 1106BOLB   C4A26528  18.500  13.360  18.540
 1106BOLB   C1B26529  16.820  13.570  18.270
 1106BOLB   C2B26530  16.740  13.140  18.440
 1106BOLB   C3B26531  16.920  12.820  18.680
 1106BOLB   C4B26532  17.270  12.530  18.890
 1106BOLB   NC226533  20.470  12.290  19.560
 1106BOLB   PO226534  20.550  12.060  19.140
 1106BOLB   GL326535  20.370  12.470  19.090
 1106BOLB   GL426536  20.200  12.370  18.840
 1106BOLB   C1C26537  20.190  12.920  18.870
 1106BOLB   C2C26538  19.720  13.120  18.710
 1106BOLB   C3C26539  19.310  13.190  18.810
 1106BOLB   C4C26540  18.880  13.290  18.670
 1106BOLB   C1D26541  19.800  12.490  18.700
 1106BOLB   C2D26542  19.360  12.630  18.840
 1106BOLB   C3D26543  18.890  12.740  18.720
 1106BOLB   C4D26544  18.360  12.720  18.800
 1107BOLB   NC126545  17.900  21.070  19.110
 1107BOLB   PO126546  18.120  21.310  18.930
 1107BOLB   GL126547  18.340  21.520  19.180
 1107BOLB   GL226548  18.630  21.450  18.960
 1107BOLB   C1A26549  18.610  21.650  19.430
 1107BOLB   C2A26550  18.950  21.760  19.640
 1107BOLB   C3A26551  18.910  21.900  19.980
 1107BOLB   C4A26552  19.230  22.170  20.170
 1107BOLB   C1B26553  19.000  21.340  19.100
 1107BOLB   C2B26554  19.540  21.330  19.120
 1107BOLB   C3B26555  19.860  21.740  19.180
 1107BOLB   C4B26556  19.740  22.120  18.870
 1107BOLB   NC226557  20.730  22.810  21.680
 1107BOLB   PO226558  20.740  23.180  21.360
 1107BOLB   GL326559  20.350  23.020  21.400
 1107BOLB   GL426560  20.000  23.220  21.410
 1107BOLB   C1C26561  20.100  22.760  21.260
 1107BOLB   C2C26562  19.730  22.710  20.970
 1107BOLB   C3C26563  19.690  22.550  20.650
 1107BOLB   C4C26564  19.540  22.360  20.360
 1107BOLB   C1D26565  20.010  23.230  21.000
 1107BOLB   C2D26566  19.820  23.260  20.640
 1107BOLB   C3D26567  19.720  23.200  20.230
 1107BOLB   C4D26568  19.390  23.100  19.860
 1108BOLB   NC126569  15.710  23.790   9.350
 1108BOLB   PO126570  15.830  24.140   9.480
 1108BOLB   GL126571  15.600  24.550   9.360
 1108BOLB   GL226572  15.350  24.600   9.170
 1108BOLB   C1A26573  15.720  24.850   8.920
 1108BOLB   C2A26574  15.650  24.820   8.590
 1108BOLB   C3A26575  15.790  24.850   8.290
 1108BOLB   C4A26576  15.920  24.990   7.900
 1108BOLB   C1B26577  15.110  24.970   9.040
 1108BOLB   C2B26578  15.260  25.180   8.740
 1108BOLB   C3B26579  15.680  25.390   8.690
 1108BOLB   C4B26580  16.030  25.710   8.700
 1108BOLB   NC226581  17.240  25.970   6.270
 1108BOLB   PO226582  17.080  26.430   6.280
 1108BOLB   GL326583  16.860  26.220   6.590
 1108BOLB   GL426584  16.970  25.930   6.720
 1108BOLB   C1C26585  16.460  26.000   6.660
 1108BOLB   C2C26586  16.240  25.710   6.880
 1108BOLB   C3C26587  15.850  25.530   7.120
 1108BOLB   C4C26588  15.910  25.340   7.560
 1108BOLB   C1D26589  16.750  25.870   7.090
 1108BOLB   C2D26590  16.520  25.580   7.370
 1108BOLB   C3D26591  16.490  25.250   7.640
 1108BOLB   C4D26592  16.460  24.910   7.790
 1109BOLB   NC126593  19.020  15.340  13.520
 1109BOLB   PO126594  18.640  15.110  13.810
 1109BOLB   GL126595  18.990  14.870  13.820
 1109BOLB   GL226596  19.090  14.810  13.530
 1109BOLB   C1A26597  19.200  14.540  14.030
 1109BOLB   C2A26598  19.580  14.260  14.100
 1109BOLB   C3A26599  20.010  14.030  14.310
 1109BOLB   C4A26600  20.310  13.750  14.270
 1109BOLB   C1B26601  19.510  14.850  13.810
 1109BOLB   C2B26602  19.890  14.670  13.940
 1109BOLB   C3B26603  20.160  14.300  13.800
 1109BOLB   C4B26604  20.320  13.930  13.750
 1109BOLB   NC226605  22.830  14.050  14.260
 1109BOLB   PO226606  22.980  13.700  14.170
 1109BOLB   GL326607  22.500  13.610  14.070
 1109BOLB   GL426608  22.310  13.920  14.040
 1109BOLB   C1C26609  21.990  13.540  14.220
 1109BOLB   C2C26610  21.520  13.540  14.340
 1109BOLB   C3C26611  21.110  13.680  14.250
 1109BOLB   C4C26612  20.710  13.560  14.230
 1109BOLB   C1D26613  21.870  14.120  14.100
 1109BOLB   C2D26614  21.590  14.460  14.100
 1109BOLB   C3D26615  21.260  14.510  14.330
 1109BOLB   C4D26616  20.840  14.620  14.350
 1110BOLB   NC126617  12.740  27.320  15.280
 1110BOLB   PO126618  12.730  27.760  15.320
 1110BOLB   GL126619  12.780  28.170  15.410
 1110BOLB   GL226620  12.960  28.270  15.650
 1110BOLB   C1A26621  13.060  28.460  15.240
 1110BOLB   C2A26622  13.360  28.550  15.010
 1110BOLB   C3A26623  13.450  28.820  14.730
 1110BOLB   C4A26624  13.720  29.160  14.650
 1110BOLB   C1B26625  13.150  28.600  15.760
 1110BOLB   C2B26626  13.390  28.810  16.080
 1110BOLB   C3B26627  13.320  29.260  16.190
 1110BOLB   C4B26628  13.380  29.770  16.180
 1110BOLB   NC226629  14.420  31.450  13.880
 1110BOLB   PO226630  14.190  31.580  14.130
 1110BOLB   GL326631  14.130  31.150  14.300
 1110BOLB   GL426632  14.080  31.270  14.570
 1110BOLB   C1C26633  14.070  30.690  14.200
 1110BOLB   C2C26634  13.750  30.300  14.170
 1110BOLB   C3C26635  13.600  29.960  14.390
 1110BOLB   C4C26636  13.680  29.550  14.620
 1110BOLB   C1D26637  13.660  31.020  14.650
 1110BOLB   C2D26638  13.470  30.540  14.550
 1110BOLB   C3D26639  13.220  30.160  14.650
 1110BOLB   C4D26640  13.220  29.730  14.710
 1111BOLB   NC126641   9.060  25.330  10.210
 1111BOLB   PO126642   8.970  24.930  10.130
 1111BOLB   GL126643   8.810  25.190   9.810
 1111BOLB   GL226644   8.980  25.220   9.710
 1111BOLB   C1A26645   8.690  25.610   9.660
 1111BOLB   C2A26646   8.480  25.910   9.460
 1111BOLB   C3A26647   8.170  26.250   9.320
 1111BOLB   C4A26648   7.980  26.630   9.330
 1111BOLB   C1B26649   9.090  25.510   9.430
 1111BOLB   C2B26650   8.970  25.950   9.250
 1111BOLB   C3B26651   8.930  26.190   9.000
 1111BOLB   C4B26652   8.960  26.720   8.930
 1111BOLB   NC226653   6.950  28.870   8.170
 1111BOLB   PO226654   6.970  28.590   8.460
 1111BOLB   GL326655   6.850  28.210   8.640
 1111BOLB   GL426656   6.820  27.980   8.450
 1111BOLB   C1C26657   7.310  28.000   8.860
 1111BOLB   C2C26658   7.540  27.590   8.870
 1111BOLB   C3C26659   7.860  27.280   8.940
 1111BOLB   C4C26660   8.030  26.950   9.060
 1111BOLB   C1D26661   6.950  27.680   8.690
 1111BOLB   C2D26662   7.060  27.640   9.130
 1111BOLB   C3D26663   7.350  27.840   9.390
 1111BOLB   C4D26664   7.650  27.730   9.660
 1112BOLB   NC126665  13.970  13.520  19.670
 1112BOLB   PO126666  14.360  13.600  19.690
 1112BOLB   GL126667  14.390  13.350  19.990
 1112BOLB   GL226668  14.140  13.070  19.960
 1112BOLB   C1A26669  14.700  13.290  20.360
 1112BOLB   C2A26670  14.640  13.230  20.810
 1112BOLB   C3A26671  14.700  13.390  21.280
 1112BOLB   C4A26672  15.110  13.350  21.540
 1112BOLB   C1B26673  14.020  12.690  20.030
 1112BOLB   C2B26674  13.920  12.450  20.260
 1112BOLB   C3B26675  13.870  12.600  20.750
 1112BOLB   C4B26676  13.890  12.800  21.210
 1112BOLB   NC226677  15.420  12.270  23.360
 1112BOLB   PO226678  15.640  11.860  23.320
 1112BOLB   GL326679  15.560  12.110  22.870
 1112BOLB   GL426680  15.400  11.950  22.580
 1112BOLB   C1C26681  15.750  12.450  22.610
 1112BOLB   C2C26682  15.670  12.640  22.300
 1112BOLB   C3C26683  15.660  12.730  21.950
 1112BOLB   C4C26684  15.410  13.020  21.680
 1112BOLB   C1D26685  15.370  12.200  22.170
 1112BOLB   C2D26686  14.910  12.450  22.130
 1112BOLB   C3D26687  14.700  12.750  21.860
 1112BOLB   C4D26688  14.640  12.980  21.510
 1113BOLB   NC126689   4.980  26.380  17.920
 1113BOLB   PO126690   5.070  26.070  18.260
 1113BOLB   GL126691   4.750  26.240  18.470
 1113BOLB   GL226692   4.710  26.620  18.430
 1113BOLB   C1A26693   4.210  26.410  18.460
 1113BOLB   C2A26694   3.960  26.700  18.650
 1113BOLB   C3A26695   3.710  26.950  18.810
 1113BOLB   C4A26696   3.270  27.050  18.600
 1113BOLB   C1B26697   4.380  26.850  18.270
 1113BOLB   C2B26698   4.020  27.170  18.250
 1113BOLB   C3B26699   3.890  27.420  18.480
 1113BOLB   C4B26700   3.750  27.820  18.680
 1113BOLB   NC226701   2.720  29.510  18.650
 1113BOLB   PO226702   2.840  29.240  19.020
 1113BOLB   GL326703   3.150  28.940  19.110
 1113BOLB   GL426704   2.910  28.710  19.270
 1113BOLB   C1C26705   3.160  28.570  18.810
 1113BOLB   C2C26706   3.130  28.230  18.590
 1113BOLB   C3C26707   3.190  27.810  18.520
 1113BOLB   C4C26708   3.090  27.440  18.440
 1113BOLB   C1D26709   3.040  28.230  19.200
 1113BOLB   C2D26710   2.920  27.910  18.920
 1113BOLB   C3D26711   3.110  27.460  19.090
 1113BOLB   C4D26712   3.380  27.030  19.110
 1114BOLB   NC126713  15.040  25.170  19.240
 1114BOLB   PO126714  15.040  25.110  19.730
 1114BOLB   GL126715  15.150  25.310  20.110
 1114BOLB   GL226716  15.460  25.310  20.130
 1114BOLB   C1A26717  15.130  25.530  20.490
 1114BOLB   C2A26718  15.180  25.820  20.850
 1114BOLB   C3A26719  15.250  26.150  21.160
 1114BOLB   C4A26720  15.370  26.420  21.360
 1114BOLB   C1B26721  15.560  25.710  20.070
 1114BOLB   C2B26722  15.360  26.050  19.790
 1114BOLB   C3B26723  15.270  26.480  19.970
 1114BOLB   C4B26724  14.940  26.830  20.170
 1114BOLB   NC226725  16.620  26.450  23.340
 1114BOLB   PO226726  16.270  26.370  23.640
 1114BOLB   GL326727  16.140  26.220  23.210
 1114BOLB   GL426728  16.440  26.020  23.260
 1114BOLB   C1C26729  16.340  26.260  22.730
 1114BOLB   C2C26730  16.240  26.570  22.310
 1114BOLB   C3C26731  15.930  26.570  21.860
 1114BOLB   C4C26732  15.740  26.560  21.500
 1114BOLB   C1D26733  16.470  25.710  22.930
 1114BOLB   C2D26734  16.340  25.350  22.570
 1114BOLB   C3D26735  16.490  25.040  22.410
 1114BOLB   C4D26736  16.660  24.860  22.000
 1115BOLB   NC126737  10.060  23.740  21.740
 1115BOLB   PO126738  10.200  23.710  22.100
 1115BOLB   GL126739   9.980  23.750  22.520
 1115BOLB   GL226740   9.680  23.670  22.530
 1115BOLB   C1A26741   9.810  24.110  22.740
 1115BOLB   C2A26742   9.970  24.430  22.850
 1115BOLB   C3A26743   9.930  24.640  23.200
 1115BOLB   C4A26744   9.800  24.620  23.570
 1115BOLB   C1B26745   9.390  23.840  22.770
 1115BOLB   C2B26746   9.150  24.180  22.800
 1115BOLB   C3B26747   9.060  24.520  23.150
 1115BOLB   C4B26748   8.870  24.680  23.600
 1115BOLB   NC226749  10.530  25.050  25.720
 1115BOLB   PO226750  10.170  25.050  25.570
 1115BOLB   GL326751  10.400  25.020  25.220
 1115BOLB   GL426752  10.180  25.250  25.110
 1115BOLB   C1C26753  10.520  24.800  24.870
 1115BOLB   C2C26754  10.110  24.800  24.540
 1115BOLB   C3C26755   9.980  24.560  24.240
 1115BOLB   C4C26756   9.730  24.480  23.920
 1115BOLB   C1D26757   9.810  25.050  24.910
 1115BOLB   C2D26758   9.620  25.080  24.570
 1115BOLB   C3D26759   9.620  24.920  24.120
 1115BOLB   C4D26760   9.380  24.800  23.730
 1116BOLB   NC126761  13.430  20.400   7.070
 1116BOLB   PO126762  13.410  20.080   6.870
 1116BOLB   GL126763  13.440  20.180   6.450
 1116BOLB   GL226764  13.470  20.000   6.170
 1116BOLB   C1A26765  13.590  20.530   6.160
 1116BOLB   C2A26766  13.490  20.780   5.740
 1116BOLB   C3A26767  13.470  21.040   5.460
 1116BOLB   C4A26768  13.610  21.340   5.150
 1116BOLB   C1B26769  13.480  20.150   5.700
 1116BOLB   C2B26770  13.330  20.010   5.300
 1116BOLB   C3B26771  13.320  20.300   4.910
 1116BOLB   C4B26772  13.350  20.570   4.510
 1116BOLB   NC226773  15.090  22.480   3.750
 1116BOLB   PO226774  15.440  22.440   3.970
 1116BOLB   GL326775  15.120  22.430   4.300
 1116BOLB   GL426776  15.100  22.710   4.280
 1116BOLB   C1C26777  14.980  22.140   4.660
 1116BOLB   C2C26778  14.620  22.060   4.900
 1116BOLB   C3C26779  14.310  21.860   4.910
 1116BOLB   C4C26780  13.940  21.610   5.120
 1116BOLB   C1D26781  14.650  22.610   4.510
 1116BOLB   C2D26782  14.380  22.510   4.840
 1116BOLB   C3D26783  14.370  22.420   5.290
 1116BOLB   C4D26784  14.350  22.290   5.720
 1117BOLB   NC126785   7.150  23.100  22.140
 1117BOLB   PO126786   7.510  23.310  22.090
 1117BOLB   GL126787   7.310  23.450  22.460
 1117BOLB   GL226788   7.500  23.560  22.580
 1117BOLB   C1A26789   7.030  23.600  22.740
 1117BOLB   C2A26790   6.900  23.630  23.100
 1117BOLB   C3A26791   6.920  23.590  23.500
 1117BOLB   C4A26792   6.860  23.930  23.810
 1117BOLB   C1B26793   7.820  23.690  22.860
 1117BOLB   C2B26794   7.940  23.710  23.300
 1117BOLB   C3B26795   8.260  23.920  23.540
 1117BOLB   C4B26796   8.560  23.950  23.950
 1117BOLB   NC226797   6.300  24.980  25.910
 1117BOLB   PO226798   6.140  25.340  25.820
 1117BOLB   GL326799   6.140  25.100  25.410
 1117BOLB   GL426800   5.830  25.080  25.110
 1117BOLB   C1C26801   6.340  25.040  25.000
 1117BOLB   C2C26802   6.530  24.830  24.630
 1117BOLB   C3C26803   6.370  24.580  24.190
 1117BOLB   C4C26804   6.540  24.180  24.070
 1117BOLB   C1D26805   5.970  24.810  24.750
 1117BOLB   C2D26806   6.170  24.480  24.690
 1117BOLB   C3D26807   6.040  24.080  24.360
 1117BOLB   C4D26808   5.780  23.860  24.000
 1118BOLB   NC126809   5.610  25.100  19.690
 1118BOLB   PO126810   5.180  25.020  19.760
 1118BOLB   GL126811   4.840  25.250  19.910
 1118BOLB   GL226812   4.490  25.130  19.730
 1118BOLB   C1A26813   4.680  25.360  20.350
 1118BOLB   C2A26814   4.440  25.660  20.640
 1118BOLB   C3A26815   4.370  26.080  20.710
 1118BOLB   C4A26816   4.170  26.320  20.450
 1118BOLB   C1B26817   4.140  25.270  19.720
 1118BOLB   C2B26818   3.960  25.610  19.800
 1118BOLB   C3B26819   3.830  25.960  19.650
 1118BOLB   C4B26820   3.590  26.190  19.570
 1118BOLB   NC226821   2.320  27.890  21.210
 1118BOLB   PO226822   2.760  27.890  21.520
 1118BOLB   GL326823   2.880  27.670  21.150
 1118BOLB   GL426824   2.790  27.740  20.890
 1118BOLB   C1C26825   3.210  27.430  21.020
 1118BOLB   C2C26826   3.460  27.250  20.680
 1118BOLB   C3C26827   3.750  26.990  20.490
 1118BOLB   C4C26828   3.950  26.590  20.420
 1118BOLB   C1D26829   3.040  27.560  20.560
 1118BOLB   C2D26830   2.960  27.580  20.130
 1118BOLB   C3D26831   3.170  27.520  19.810
 1118BOLB   C4D26832   3.400  27.430  19.510
 1119BOLB   NC126833   9.310  27.420  15.710
 1119BOLB   PO126834   9.610  27.730  15.500
 1119BOLB   GL126835   9.380  28.190  15.360
 1119BOLB   GL226836   9.070  28.180  15.090
 1119BOLB   C1A26837   9.350  28.570  15.160
 1119BOLB   C2A26838   8.980  28.800  15.100
 1119BOLB   C3A26839   8.650  29.060  15.260
 1119BOLB   C4A26840   8.800  29.490  15.470
 1119BOLB   C1B26841   8.690  28.360  15.060
 1119BOLB   C2B26842   8.400  28.330  15.450
 1119BOLB   C3B26843   8.390  28.750  15.620
 1119BOLB   C4B26844   8.420  29.160  15.730
 1119BOLB   NC226845   9.390  32.160  15.760
 1119BOLB   PO226846   9.380  31.690  16.070
 1119BOLB   GL326847   9.520  31.310  16.270
 1119BOLB   GL426848   9.830  31.330  16.310
 1119BOLB   C1C26849   9.340  30.830  16.220
 1119BOLB   C2C26850   9.340  30.550  15.840
 1119BOLB   C3C26851   9.270  30.290  15.550
 1119BOLB   C4C26852   9.080  29.840  15.340
 1119BOLB   C1D26853   9.830  31.020  15.960
 1119BOLB   C2D26854   9.810  30.800  15.620
 1119BOLB   C3D26855   9.470  30.680  15.300
 1119BOLB   C4D26856   8.970  30.610  15.160
 1120BOLB   NC126857  18.390  16.080  10.970
 1120BOLB   PO126858  18.190  15.830  10.630
 1120BOLB   GL126859  18.370  15.610  10.230
 1120BOLB   GL226860  18.120  15.470  10.140
 1120BOLB   C1A26861  18.730  15.360  10.040
 1120BOLB   C2A26862  19.150  15.450   9.890
 1120BOLB   C3A26863  19.580  15.260   9.860
 1120BOLB   C4A26864  19.960  15.520   9.770
 1120BOLB   C1B26865  18.360  15.200   9.740
 1120BOLB   C2B26866  18.500  14.890   9.480
 1120BOLB   C3B26867  18.870  14.920   9.240
 1120BOLB   C4B26868  19.260  15.020   9.010
 1120BOLB   NC226869  22.110  15.160   8.300
 1120BOLB   PO226870  22.070  15.500   8.740
 1120BOLB   GL326871  21.760  15.450   9.040
 1120BOLB   GL426872  21.500  15.450   8.790
 1120BOLB   C1C26873  21.490  15.340   9.420
 1120BOLB   C2C26874  21.190  15.440   9.580
 1120BOLB   C3C26875  20.810  15.600   9.670
 1120BOLB   C4C26876  20.360  15.720   9.690
 1120BOLB   C1D26877  21.180  15.450   8.980
 1120BOLB   C2D26878  20.900  15.670   9.100
 1120BOLB   C3D26879  20.520  15.730   9.190
 1120BOLB   C4D26880  20.300  16.070   9.240
 1121BOLB   NC126881   6.760  19.430   7.790
 1121BOLB   PO126882   6.720  19.040   7.860
 1121BOLB   GL126883   6.470  19.090   7.440
 1121BOLB   GL226884   6.510  19.410   7.340
 1121BOLB   C1A26885   6.430  18.940   6.970
 1121BOLB   C2A26886   6.280  19.010   6.600
 1121BOLB   C3A26887   6.080  19.120   6.160
 1121BOLB   C4A26888   6.130  19.470   5.820
 1121BOLB   C1B26889   6.300  19.490   6.940
 1121BOLB   C2B26890   6.360  19.460   6.480
 1121BOLB   C3B26891   6.540  19.490   6.070
 1121BOLB   C4B26892   6.750  19.500   5.660
 1121BOLB   NC226893   5.550  18.590   3.530
 1121BOLB   PO226894   5.420  19.030   3.660
 1121BOLB   GL326895   5.700  19.260   3.960
 1121BOLB   GL426896   6.000  19.120   3.980
 1121BOLB   C1C26897   5.860  19.350   4.390
 1121BOLB   C2C26898   6.150  19.340   4.740
 1121BOLB   C3C26899   6.230  19.610   5.150
 1121BOLB   C4C26900   6.160  19.740   5.480
 1121BOLB   C1D26901   6.350  19.190   4.270
 1121BOLB   C2D26902   6.600  19.350   4.500
 1121BOLB   C3D26903   6.590  19.660   4.820
 1121BOLB   C4D26904   6.740  19.730   5.240
 1122BOLB   NC126905   5.210  25.510  12.130
 1122BOLB   PO126906   4.930  25.090  12.160
 1122BOLB   GL126907   4.880  25.360  11.720
 1122BOLB   GL226908   4.800  25.700  11.810
 1122BOLB   C1A26909   4.890  25.420  11.290
 1122BOLB   C2A26910   4.800  25.610  10.920
 1122BOLB   C3A26911   5.050  25.760  10.550
 1122BOLB   C4A26912   5.050  25.870  10.160
 1122BOLB   C1B26913   4.560  25.970  11.770
 1122BOLB   C2B26914   4.230  26.220  11.570
 1122BOLB   C3B26915   4.210  26.440  11.190
 1122BOLB   C4B26916   4.260  26.450  10.780
 1122BOLB   NC226917   3.830  28.100   9.110
 1122BOLB   PO226918   3.810  27.900   9.260
 1122BOLB   GL326919   4.110  27.570   9.390
 1122BOLB   GL426920   4.170  27.260   9.090
 1122BOLB   C1C26921   4.420  27.360   9.550
 1122BOLB   C2C26922   4.390  27.000   9.610
 1122BOLB   C3C26923   4.610  26.670   9.800
 1122BOLB   C4C26924   4.900  26.190   9.910
 1122BOLB   C1D26925   4.360  26.780   9.210
 1122BOLB   C2D26926   4.730  26.640   9.150
 1122BOLB   C3D26927   5.150  26.700   9.120
 1122BOLB   C4D26928   5.480  26.710   9.380
 1123BOLB   NC126929   7.530  20.540   8.100
 1123BOLB   PO126930   7.740  20.250   7.780
 1123BOLB   GL126931   7.610  20.520   7.460
 1123BOLB   GL226932   7.790  20.450   7.180
 1123BOLB   C1A26933   7.370  20.870   7.190
 1123BOLB   C2A26934   7.230  21.130   6.860
 1123BOLB   C3A26935   7.240  21.440   6.460
 1123BOLB   C4A26936   7.110  21.660   6.150
 1123BOLB   C1B26937   8.010  20.500   6.840
 1123BOLB   C2B26938   7.840  20.560   6.440
 1123BOLB   C3B26939   7.920  20.410   6.040
 1123BOLB   C4B26940   7.870  20.340   5.640
 1123BOLB   NC226941   5.750  20.930   4.180
 1123BOLB   PO226942   6.080  21.190   4.230
 1123BOLB   GL326943   6.350  21.020   4.520
 1123BOLB   GL426944   6.520  21.250   4.410
 1123BOLB   C1C26945   6.640  21.060   4.900
 1123BOLB   C2C26946   6.770  21.340   5.120
 1123BOLB   C3C26947   6.960  21.480   5.400
 1123BOLB   C4C26948   7.250  21.670   5.730
 1123BOLB   C1D26949   6.850  21.550   4.660
 1123BOLB   C2D26950   7.220  21.400   4.900
 1123BOLB   C3D26951   7.390  21.140   5.140
 1123BOLB   C4D26952   7.400  21.170   5.580
 1124BOLB   NC126953  17.380  14.030  11.430
 1124BOLB   PO126954  17.500  14.130  11.020
 1124BOLB   GL126955  17.490  13.790  10.640
 1124BOLB   GL226956  17.680  13.970  10.330
 1124BOLB   C1A26957  17.560  13.430  10.430
 1124BOLB   C2A26958  17.750  13.100  10.290
 1124BOLB   C3A26959  17.880  12.890   9.930
 1124BOLB   C4A26960  18.280  12.630   9.900
 1124BOLB   C1B26961  17.990  13.610  10.310
 1124BOLB   C2B26962  18.260  13.270  10.190
 1124BOLB   C3B26963  18.570  13.160   9.910
 1124BOLB   C4B26964  18.890  13.460   9.920
 1124BOLB   NC226965  19.780  11.420   9.100
 1124BOLB   PO226966  19.590  11.130   8.770
 1124BOLB   GL326967  19.260  11.280   9.050
 1124BOLB   GL426968  19.030  11.290   8.880
 1124BOLB   C1C26969  19.160  11.550   9.390
 1124BOLB   C2C26970  18.850  11.580   9.710
 1124BOLB   C3C26971  18.680  11.960   9.700
 1124BOLB   C4C26972  18.490  12.340   9.690
 1124BOLB   C1D26973  18.730  11.450   9.030
 1124BOLB   C2D26974  18.620  11.730   9.250
 1124BOLB   C3D26975  18.240  12.000   9.310
 1124BOLB   C4D26976  17.930  12.280   9.110
 1125BOLB   NC126977  15.930  13.520  17.070
 1125BOLB   PO126978  16.340  13.280  17.310
 1125BOLB   GL126979  16.630  12.990  17.560
 1125BOLB   GL226980  16.900  13.130  17.680
 1125BOLB   C1A26981  16.740  12.590  17.740
 1125BOLB   C2A26982  16.690  12.250  18.070
 1125BOLB   C3A26983  16.850  11.950  18.310
 1125BOLB   C4A26984  17.040  12.110  18.650
 1125BOLB   C1B26985  17.110  13.130  18.060
 1125BOLB   C2B26986  17.380  12.900  18.230
 1125BOLB   C3B26987  17.760  12.700  18.070
 1125BOLB   C4B26988  18.080  12.570  18.280
 1125BOLB   NC226989  18.540  10.130  18.970
 1125BOLB   PO226990  18.330  10.290  19.340
 1125BOLB   GL326991  18.450  10.720  19.330
 1125BOLB   GL426992  18.210  10.940  19.510
 1125BOLB   C1C26993  18.440  11.040  19.070
 1125BOLB   C2C26994  18.110  11.410  19.050
 1125BOLB   C3C26995  17.860  11.740  18.800
 1125BOLB   C4C26996  17.520  12.040  18.710
 1125BOLB   C1D26997  17.910  10.950  19.280
 1125BOLB   C2D26998  17.820  11.050  18.830
 1125BOLB   C3D26999  17.500  11.340  18.670
 1125BOLB   C4D27000  17.110  11.470  18.750
 1126BOLB   NC127001   7.420  25.990  19.080
 1126BOLB   PO127002   7.550  26.380  19.190
 1126BOLB   GL127003   7.480  26.730  19.310
 1126BOLB   GL227004   7.290  26.720  19.630
 1126BOLB   C1A27005   7.640  27.040  19.460
 1126BOLB   C2A27006   7.870  27.330  19.630
 1126BOLB   C3A27007   8.200  27.630  19.760
 1126BOLB   C4A27008   8.210  28.040  19.760
 1126BOLB   C1B27009   7.060  26.990  19.950
 1126BOLB   C2B27010   6.740  27.020  20.310
 1126BOLB   C3B27011   6.690  26.740  20.610
 1126BOLB   C4B27012   6.620  26.320  20.770
 1126BOLB   NC227013   8.400  30.520  20.310
 1126BOLB   PO227014   8.090  30.330  20.030
 1126BOLB   GL327015   8.000  30.010  19.730
 1126BOLB   GL427016   8.150  29.700  19.820
 1126BOLB   C1C27017   8.020  29.590  19.400
 1126BOLB   C2C27018   8.180  29.240  19.630
 1126BOLB   C3C27019   8.150  28.830  19.840
 1126BOLB   C4C27020   8.060  28.460  19.710
 1126BOLB   C1D27021   8.220  29.320  20.160
 1126BOLB   C2D27022   8.280  28.840  20.380
 1126BOLB   C3D27023   8.030  28.550  20.650
 1126BOLB   C4D27024   7.620  28.410  20.610
 1127BOLB   NC127025  15.570  15.690   8.940
 1127BOLB   PO127026  15.820  15.360   8.640
 1127BOLB   GL127027  16.070  15.380   8.270
 1127BOLB   GL227028  16.520  15.260   8.290
 1127BOLB   C1A27029  16.010  15.340   7.830
 1127BOLB   C2A27030  15.960  15.220   7.400
 1127BOLB   C3A27031  15.990  15.080   7.030
 1127BOLB   C4A27032  16.180  14.800   6.770
 1127BOLB   C1B27033  16.730  15.120   7.900
 1127BOLB   C2B27034  16.680  14.720   7.630
 1127BOLB   C3B27035  16.490  14.340   7.470
 1127BOLB   C4B27036  16.370  13.940   7.550
 1127BOLB   NC227037  17.130  14.360   4.260
 1127BOLB   PO227038  17.200  14.590   4.550
 1127BOLB   GL327039  17.200  14.750   4.920
 1127BOLB   GL427040  17.360  15.010   5.060
 1127BOLB   C1C27041  16.980  14.520   5.300
 1127BOLB   C2C27042  16.790  14.610   5.700
 1127BOLB   C3C27043  16.710  14.770   6.110
 1127BOLB   C4C27044  16.550  14.890   6.510
 1127BOLB   C1D27045  16.900  15.080   5.210
 1127BOLB   C2D27046  16.670  15.080   5.540
 1127BOLB   C3D27047  16.320  14.860   5.760
 1127BOLB   C4D27048  16.170  14.840   6.200
 1128BOLB   NC127049   5.880  26.800  15.030
 1128BOLB   PO127050   5.890  26.830  15.480
 1128BOLB   GL127051   5.730  27.220  15.210
 1128BOLB   GL227052   5.670  27.430  15.430
 1128BOLB   C1A27053   5.780  27.540  14.860
 1128BOLB   C2A27054   5.880  27.960  14.710
 1128BOLB   C3A27055   6.000  28.450  14.780
 1128BOLB   C4A27056   5.970  28.830  14.630
 1128BOLB   C1B27057   5.540  27.850  15.220
 1128BOLB   C2B27058   5.430  28.250  15.190
 1128BOLB   C3B27059   5.510  28.670  14.930
 1128BOLB   C4B27060   5.560  29.050  14.890
 1128BOLB   NC227061   4.720  30.860  14.140
 1128BOLB   PO227062   4.970  30.610  13.900
 1128BOLB   GL327063   5.510  30.410  14.010
 1128BOLB   GL427064   5.390  30.160  14.250
 1128BOLB   C1C27065   5.720  30.060  13.840
 1128BOLB   C2C27066   5.590  29.620  13.860
 1128BOLB   C3C27067   5.740  29.250  14.080
 1128BOLB   C4C27068   5.840  29.150  14.460
 1128BOLB   C1D27069   5.620  29.900  14.390
 1128BOLB   C2D27070   5.620  29.560  14.610
 1128BOLB   C3D27071   5.910  29.390  14.950
 1128BOLB   C4D27072   6.090  28.950  15.070
 1129BOLB   NC127073   2.700  24.930  15.540
 1129BOLB   PO127074   2.310  24.960  15.710
 1129BOLB   GL127075   2.050  24.920  16.020
 1129BOLB   GL227076   1.850  25.150  15.890
 1129BOLB   C1A27077   1.690  24.910  16.260
 1129BOLB   C2A27078   1.490  24.960  16.770
 1129BOLB   C3A27079   1.010  25.030  16.800
 1129BOLB   C4A27080   0.790  25.250  16.470
 1129BOLB   C1B27081   1.410  25.240  15.970
 1129BOLB   C2B27082   1.280  25.400  16.350
 1129BOLB   C3B27083   1.260  25.460  16.680
 1129BOLB   C4B27084   1.280  25.320  17.170
 1129BOLB   NC227085  34.710  25.570  17.750
 1129BOLB   PO227086  35.160  25.410  17.820
 1129BOLB   GL327087  35.410  25.340  17.400
 1129BOLB   GL427088  35.480  25.010  17.410
 1129BOLB   C1C27089  35.740  25.470  16.990
 1129BOLB   C2C27090  36.120  25.370  16.950
 1129BOLB   C3C27091   0.110  25.330  16.710
 1129BOLB   C4C27092   0.350  25.130  16.490
 1129BOLB   C1D27093  35.810  24.860  17.570
 1129BOLB   C2D27094  36.070  24.870  17.840
 1129BOLB   C3D27095  36.030  24.910  18.270
 1129BOLB   C4D27096  35.950  25.040  18.660
 1130BOLB   NC127097  15.390  23.000   9.180
 1130BOLB   PO127098  15.550  23.400   9.200
 1130BOLB   GL127099  15.780  23.560   8.900
 1130BOLB   GL227100  15.690  23.550   8.670
 1130BOLB   C1A27101  16.010  23.910   8.700
 1130BOLB   C2A27102  16.310  24.140   8.740
 1130BOLB   C3A27103  16.610  24.230   8.320
 1130BOLB   C4A27104  16.750  24.140   7.840
 1130BOLB   C1B27105  15.900  23.570   8.350
 1130BOLB   C2B27106  15.750  23.820   7.990
 1130BOLB   C3B27107  15.830  24.270   7.950
 1130BOLB   C4B27108  15.870  24.580   7.670
 1130BOLB   NC227109  18.190  24.580   5.880
 1130BOLB   PO227110  18.080  24.930   6.070
 1130BOLB   GL327111  17.800  24.970   6.350
 1130BOLB   GL427112  17.580  25.150   6.500
 1130BOLB   C1C27113  17.460  24.610   6.450
 1130BOLB   C2C27114  17.360  24.490   6.890
 1130BOLB   C3C27115  17.320  24.490   7.310
 1130BOLB   C4C27116  17.140  24.140   7.520
 1130BOLB   C1D27117  17.480  25.000   6.940
 1130BOLB   C2D27118  17.030  24.900   7.030
 1130BOLB   C3D27119  16.640  24.970   7.260
 1130BOLB   C4D27120  16.270  25.090   7.240
 1131BOLB   NC127121  12.390  26.310  11.080
 1131BOLB   PO127122  12.080  26.260  10.860
 1131BOLB   GL127123  12.150  26.590  10.720
 1131BOLB   GL227124  12.400  26.730  10.850
 1131BOLB   C1A27125  12.270  26.850  10.340
 1131BOLB   C2A27126  12.140  27.050  10.140
 1131BOLB   C3A27127  12.300  27.350   9.820
 1131BOLB   C4A27128  12.410  27.840   9.730
 1131BOLB   C1B27129  12.450  27.170  10.750
 1131BOLB   C2B27130  12.620  27.550  10.630
 1131BOLB   C3B27131  12.700  27.900  10.700
 1131BOLB   C4B27132  12.990  28.170  10.440
 1131BOLB   NC227133  12.610  29.950   8.810
 1131BOLB   PO227134  12.590  29.690   8.420
 1131BOLB   GL327135  12.720  29.300   8.660
 1131BOLB   GL427136  12.520  28.970   8.770
 1131BOLB   C1C27137  12.970  28.940   8.600
 1131BOLB   C2C27138  13.230  28.590   8.680
 1131BOLB   C3C27139  13.010  28.290   9.040
 1131BOLB   C4C27140  12.640  28.050   9.400
 1131BOLB   C1D27141  12.610  28.510   8.750
 1131BOLB   C2D27142  12.580  28.140   8.930
 1131BOLB   C3D27143  12.510  27.690   9.020
 1131BOLB   C4D27144  12.150  27.510   9.100
 1132BOLB   NC127145  19.690  20.160  15.050
 1132BOLB   PO127146  19.780  20.410  14.770
 1132BOLB   GL127147  20.000  20.560  15.070
 1132BOLB   GL227148  20.300  20.570  15.130
 1132BOLB   C1A27149  20.260  21.050  15.130
 1132BOLB   C2A27150  20.670  21.270  15.030
 1132BOLB   C3A27151  20.950  21.450  15.350
 1132BOLB   C4A27152  21.140  21.850  15.610
 1132BOLB   C1B27153  20.640  20.510  15.530
 1132BOLB   C2B27154  21.130  20.710  15.660
 1132BOLB   C3B27155  21.190  21.190  15.800
 1132BOLB   C4B27156  21.000  21.530  15.960
 1132BOLB   NC227157  23.390  21.240  16.060
 1132BOLB   PO227158  23.620  21.480  16.440
 1132BOLB   GL327159  23.150  21.680  16.490
 1132BOLB   GL427160  23.090  21.450  16.500
 1132BOLB   C1C27161  22.830  21.900  16.260
 1132BOLB   C2C27162  22.420  22.040  16.150
 1132BOLB   C3C27163  22.000  22.090  16.060
 1132BOLB   C4C27164  21.540  21.980  15.900
 1132BOLB   C1D27165  22.840  21.100  16.360
 1132BOLB   C2D27166  22.550  20.890  16.570
 1132BOLB   C3D27167  22.540  20.400  16.760
 1132BOLB   C4D27168  22.530  20.110  16.730
 1133BOLB   NC127169  16.240  23.340   9.840
 1133BOLB   PO127170  16.330  22.980   9.530
 1133BOLB   GL127171  16.610  23.320   9.410
 1133BOLB   GL227172  16.690  23.580   9.660
 1133BOLB   C1A27173  16.880  23.400   9.120
 1133BOLB   C2A27174  17.160  23.270   8.730
 1133BOLB   C3A27175  17.350  23.320   8.430
 1133BOLB   C4A27176  17.530  23.640   8.340
 1133BOLB   C1B27177  16.940  23.820   9.330
 1133BOLB   C2B27178  17.230  24.110   9.200
 1133BOLB   C3B27179  17.480  24.470   8.960
 1133BOLB   C4B27180  17.620  24.870   8.940
 1133BOLB   NC227181  19.090  24.940   7.220
 1133BOLB   PO227182  19.560  24.710   7.340
 1133BOLB   GL327183  19.250  24.380   7.490
 1133BOLB   GL427184  18.980  24.530   7.560
 1133BOLB   C1C27185  18.980  24.030   7.590
 1133BOLB   C2C27186  18.510  23.910   7.520
 1133BOLB   C3C27187  18.140  23.950   7.810
 1133BOLB   C4C27188  17.820  23.810   8.030
 1133BOLB   C1D27189  18.800  24.370   7.950
 1133BOLB   C2D27190  18.520  24.600   8.360
 1133BOLB   C3D27191  18.140  24.800   8.460
 1133BOLB   C4D27192  18.110  25.250   8.230
 1134BOLB   NC127193  11.190  26.180  10.890
 1134BOLB   PO127194  11.410  25.920  10.570
 1134BOLB   GL127195  11.350  26.350  10.410
 1134BOLB   GL227196  11.570  26.460  10.630
 1134BOLB   C1A27197  11.290  26.670  10.020
 1134BOLB   C2A27198  11.200  26.960   9.730
 1134BOLB   C3A27199  10.790  27.310   9.720
 1134BOLB   C4A27200  10.910  27.680   9.630
 1134BOLB   C1B27201  11.710  26.730  10.400
 1134BOLB   C2B27202  11.560  27.150  10.110
 1134BOLB   C3B27203  11.520  27.320   9.740
 1134BOLB   C4B27204  11.450  27.780   9.660
 1134BOLB   NC227205  10.740  29.300   8.370
 1134BOLB   PO227206  10.810  29.540   8.760
 1134BOLB   GL327207  10.750  29.440   9.200
 1134BOLB   GL427208  10.460  29.370   9.120
 1134BOLB   C1C27209  10.680  29.290   9.610
 1134BOLB   C2C27210  10.500  28.860   9.760
 1134BOLB   C3C27211  10.560  28.500   9.870
 1134BOLB   C4C27212  10.700  28.050   9.860
 1134BOLB   C1D27213  10.610  28.970   9.090
 1134BOLB   C2D27214  10.750  28.650   9.350
 1134BOLB   C3D27215  11.050  28.330   9.560
 1134BOLB   C4D27216  11.200  28.150   9.850
 1135BOLB   NC127217  15.920  19.380   7.990
 1135BOLB   PO127218  15.800  19.770   7.950
 1135BOLB   GL127219  16.100  19.930   7.690
 1135BOLB   GL227220  15.870  20.090   7.430
 1135BOLB   C1A27221  16.390  19.680   7.380
 1135BOLB   C2A27222  16.490  19.290   7.220
 1135BOLB   C3A27223  16.590  19.180   6.860
 1135BOLB   C4A27224  16.520  19.040   6.450
 1135BOLB   C1B27225  15.970  20.280   7.070
 1135BOLB   C2B27226  16.320  20.400   6.870
 1135BOLB   C3B27227  16.560  20.760   6.850
 1135BOLB   C4B27228  16.860  20.980   6.780
 1135BOLB   NC227229  16.930  18.830   3.550
 1135BOLB   PO227230  16.760  18.940   3.980
 1135BOLB   GL327231  16.670  18.870   4.410
 1135BOLB   GL427232  16.940  18.790   4.480
 1135BOLB   C1C27233  16.690  19.160   4.790
 1135BOLB   C2C27234  16.760  19.100   5.260
 1135BOLB   C3C27235  16.640  19.020   5.670
 1135BOLB   C4C27236  16.680  19.120   6.000
 1135BOLB   C1D27237  16.950  18.500   4.820
 1135BOLB   C2D27238  16.900  18.480   5.190
 1135BOLB   C3D27239  16.660  18.510   5.550
 1135BOLB   C4D27240  16.530  18.630   5.990
 1136BOLB   NC127241   3.510  24.960  13.120
 1136BOLB   PO127242   3.440  24.510  13.100
 1136BOLB   GL127243   3.100  24.730  13.160
 1136BOLB   GL227244   3.030  24.840  12.890
 1136BOLB   C1A27245   2.730  24.860  13.290
 1136BOLB   C2A27246   2.370  25.170  13.280
 1136BOLB   C3A27247   2.180  25.270  12.920
 1136BOLB   C4A27248   2.130  25.510  12.660
 1136BOLB   C1B27249   2.570  25.000  12.760
 1136BOLB   C2B27250   2.010  24.940  12.540
 1136BOLB   C3B27251   1.760  24.960  12.130
 1136BOLB   C4B27252   1.640  24.920  11.650
 1136BOLB   NC227253   1.340  27.730  11.570
 1136BOLB   PO227254   1.130  27.280  11.550
 1136BOLB   GL327255   1.350  27.000  11.400
 1136BOLB   GL427256   1.670  27.020  11.240
 1136BOLB   C1C27257   1.580  26.630  11.600
 1136BOLB   C2C27258   1.650  26.320  11.910
 1136BOLB   C3C27259   1.860  25.910  12.060
 1136BOLB   C4C27260   1.880  25.670  12.420
 1136BOLB   C1D27261   2.060  26.670  11.420
 1136BOLB   C2D27262   2.540  26.600  11.410
 1136BOLB   C3D27263   2.850  26.270  11.400
 1136BOLB   C4D27264   3.240  26.330  11.520
 1137BOLB   NC127265  17.140  20.650   8.760
 1137BOLB   PO127266  17.380  20.290   8.630
 1137BOLB   GL127267  17.660  20.570   8.650
 1137BOLB   GL227268  17.930  20.470   8.760
 1137BOLB   C1A27269  17.720  20.960   8.480
 1137BOLB   C2A27270  17.900  21.380   8.240
 1137BOLB   C3A27271  17.960  21.850   7.970
 1137BOLB   C4A27272  18.270  22.220   7.750
 1137BOLB   C1B27273  18.000  20.510   8.310
 1137BOLB   C2B27274  18.000  20.690   7.920
 1137BOLB   C3B27275  17.650  20.890   7.710
 1137BOLB   C4B27276  17.520  20.900   7.240
 1137BOLB   NC227277  19.720  22.260   5.990
 1137BOLB   PO227278  19.400  22.350   6.130
 1137BOLB   GL327279  19.300  22.050   6.290
 1137BOLB   GL427280  19.240  21.750   6.240
 1137BOLB   C1C27281  19.310  21.980   6.740
 1137BOLB   C2C27282  19.310  22.110   7.170
 1137BOLB   C3C27283  18.990  22.170   7.480
 1137BOLB   C4C27284  18.700  22.420   7.690
 1137BOLB   C1D27285  18.840  22.000   6.290
 1137BOLB   C2D27286  18.350  22.070   6.370
 1137BOLB   C3D27287  18.130  21.920   6.670
 1137BOLB   C4D27288  17.750  21.990   6.960
 1138BOLB   NC127289   4.120  23.950  18.930
 1138BOLB   PO127290   3.730  24.180  19.010
 1138BOLB   GL127291   3.670  24.530  19.270
 1138BOLB   GL227292   3.760  24.440  19.590
 1138BOLB   C1A27293   3.290  24.650  19.440
 1138BOLB   C2A27294   3.130  24.870  19.770
 1138BOLB   C3A27295   2.950  25.100  20.180
 1138BOLB   C4A27296   2.830  25.480  20.330
 1138BOLB   C1B27297   3.520  24.500  19.920
 1138BOLB   C2B27298   3.390  24.800  20.210
 1138BOLB   C3B27299   3.350  25.030  20.560
 1138BOLB   C4B27300   3.060  25.160  20.940
 1138BOLB   NC227301   0.750  25.850  21.620
 1138BOLB   PO227302   1.050  25.890  21.870
 1138BOLB   GL327303   1.460  25.880  21.580
 1138BOLB   GL427304   1.610  26.140  21.350
 1138BOLB   C1C27305   1.680  25.630  21.180
 1138BOLB   C2C27306   2.100  25.520  21.140
 1138BOLB   C3C27307   2.410  25.750  20.960
 1138BOLB   C4C27308   2.850  25.610  20.730
 1138BOLB   C1D27309   1.990  26.010  21.080
 1138BOLB   C2D27310   2.160  26.140  20.690
 1138BOLB   C3D27311   2.240  26.340  20.360
 1138BOLB   C4D27312   2.560  26.460  20.030
 1139BOLB   NC127313  13.840  14.370   3.520
 1139BOLB   PO127314  13.510  14.530   3.370
 1139BOLB   GL127315  13.720  14.870   3.660
 1139BOLB   GL227316  14.040  14.720   3.780
 1139BOLB   C1A27317  13.740  15.220   3.970
 1139BOLB   C2A27318  13.680  15.370   4.370
 1139BOLB   C3A27319  13.760  15.210   4.840
 1139BOLB   C4A27320  14.110  14.920   4.920
 1139BOLB   C1B27321  14.210  14.900   4.060
 1139BOLB   C2B27322  14.300  14.620   4.300
 1139BOLB   C3B27323  14.540  14.690   4.740
 1139BOLB   C4B27324  14.580  15.090   4.930
 1139BOLB   NC227325  15.130  13.010   4.540
 1139BOLB   PO227326  14.720  13.150   4.340
 1139BOLB   GL327327  14.770  13.430   4.690
 1139BOLB   GL427328  14.910  13.210   4.940
 1139BOLB   C1C27329  14.700  13.830   4.930
 1139BOLB   C2C27330  14.900  14.180   5.340
 1139BOLB   C3C27331  14.600  14.510   5.650
 1139BOLB   C4C27332  14.300  14.700   5.280
 1139BOLB   C1D27333  15.210  13.560   4.970
 1139BOLB   C2D27334  15.640  13.820   5.050
 1139BOLB   C3D27335  16.100  14.100   5.060
 1139BOLB   C4D27336  16.470  14.200   5.120
 1140BOLB   NC127337   2.600  22.770  10.900
 1140BOLB   PO127338   2.850  23.070  11.160
 1140BOLB   GL127339   2.340  23.150  11.110
 1140BOLB   GL227340   2.090  22.940  11.080
 1140BOLB   C1A27341   2.100  23.520  11.030
 1140BOLB   C2A27342   1.610  23.640  11.100
 1140BOLB   C3A27343   1.100  23.630  11.130
 1140BOLB   C4A27344   0.910  23.260  11.140
 1140BOLB   C1B27345   1.880  22.950  10.700
 1140BOLB   C2B27346   1.730  23.020  10.320
 1140BOLB   C3B27347   1.770  22.810   9.930
 1140BOLB   C4B27348   1.600  22.300   9.890
 1140BOLB   NC227349  35.540  24.950  10.130
 1140BOLB   PO227350  35.660  25.070  10.580
 1140BOLB   GL327351  36.050  24.770  10.630
 1140BOLB   GL427352  36.150  24.920  10.930
 1140BOLB   C1C27353  36.240  24.340  10.880
 1140BOLB   C2C27354   0.280  24.150  10.780
 1140BOLB   C3C27355   0.520  23.670  10.730
 1140BOLB   C4C27356   0.550  23.310  10.950
 1140BOLB   C1D27357   0.120  24.780  11.110
 1140BOLB   C2D27358   0.470  24.470  11.210
 1140BOLB   C3D27359   0.630  24.080  11.310
 1140BOLB   C4D27360   0.630  23.660  11.370
 1141BOLB   NC127361  17.750  17.520  10.270
 1141BOLB   PO127362  18.070  17.170  10.070
 1141BOLB   GL127363  18.350  16.960   9.700
 1141BOLB   GL227364  18.020  16.890   9.590
 1141BOLB   C1A27365  18.750  16.910   9.330
 1141BOLB   C2A27366  18.990  16.780   8.840
 1141BOLB   C3A27367  19.090  16.790   8.420
 1141BOLB   C4A27368  19.090  16.580   8.050
 1141BOLB   C1B27369  18.250  16.650   9.330
 1141BOLB   C2B27370  18.550  16.530   9.070
 1141BOLB   C3B27371  18.710  16.280   8.810
 1141BOLB   C4B27372  18.900  16.330   8.480
 1141BOLB   NC227373  20.620  15.950   6.560
 1141BOLB   PO227374  20.300  15.830   6.330
 1141BOLB   GL327375  20.130  15.770   6.630
 1141BOLB   GL427376  19.970  15.540   6.900
 1141BOLB   C1C27377  19.950  16.080   6.930
 1141BOLB   C2C27378  19.590  16.250   7.230
 1141BOLB   C3C27379  19.100  16.160   7.430
 1141BOLB   C4C27380  18.990  16.220   7.790
 1141BOLB   C1D27381  20.030  15.720   7.260
 1141BOLB   C2D27382  19.940  15.750   7.740
 1141BOLB   C3D27383  19.780  15.900   8.160
 1141BOLB   C4D27384  19.340  16.170   8.230
 1142BOLB   NC127385  16.870  13.580  13.410
 1142BOLB   PO127386  17.200  13.380  13.600
 1142BOLB   GL127387  17.490  13.050  13.360
 1142BOLB   GL227388  17.320  12.850  13.220
 1142BOLB   C1A27389  17.860  12.900  13.220
 1142BOLB   C2A27390  18.110  12.620  13.100
 1142BOLB   C3A27391  18.280  12.230  13.370
 1142BOLB   C4A27392  18.660  12.050  13.460
 1142BOLB   C1B27393  17.650  12.490  13.270
 1142BOLB   C2B27394  17.850  12.090  13.180
 1142BOLB   C3B27395  18.060  11.730  13.300
 1142BOLB   C4B27396  18.470  11.510  13.330
 1142BOLB   NC227397  20.590  10.640  13.360
 1142BOLB   PO227398  21.040  10.820  13.220
 1142BOLB   GL327399  20.750  11.180  13.160
 1142BOLB   GL427400  20.650  11.350  12.940
 1142BOLB   C1C27401  20.290  11.330  13.260
 1142BOLB   C2C27402  19.940  11.650  13.270
 1142BOLB   C3C27403  19.580  11.710  13.330
 1142BOLB   C4C27404  19.130  11.940  13.460
 1142BOLB   C1D27405  20.440  11.400  12.600
 1142BOLB   C2D27406  20.050  11.360  12.400
 1142BOLB   C3D27407  19.630  11.460  12.330
 1142BOLB   C4D27408  19.260  11.630  12.420
 1143BOLB   NC127409  16.260  25.990  15.910
 1143BOLB   PO127410  16.130  26.020  16.300
 1143BOLB   GL127411  16.240  26.250  16.740
 1143BOLB   GL227412  16.470  25.950  16.790
 1143BOLB   C1A27413  16.450  26.540  16.950
 1143BOLB   C2A27414  16.820  26.850  17.010
 1143BOLB   C3A27415  17.040  27.200  17.050
 1143BOLB   C4A27416  17.240  27.610  17.170
 1143BOLB   C1B27417  16.720  26.300  16.560
 1143BOLB   C2B27418  16.860  26.690  16.520
 1143BOLB   C3B27419  17.030  27.100  16.220
 1143BOLB   C4B27420  17.180  27.430  15.890
 1143BOLB   NC227421  19.570  28.840  17.450
 1143BOLB   PO227422  19.530  28.750  16.990
 1143BOLB   GL327423  19.100  28.620  16.910
 1143BOLB   GL427424  18.930  28.640  16.610
 1143BOLB   C1C27425  18.790  28.390  17.060
 1143BOLB   C2C27426  18.420  28.230  17.340
 1143BOLB   C3C27427  18.050  28.090  17.380
 1143BOLB   C4C27428  17.640  27.690  17.390
 1143BOLB   C1D27429  18.770  28.480  16.230
 1143BOLB   C2D27430  18.470  28.240  16.000
 1143BOLB   C3D27431  18.210  27.830  15.850
 1143BOLB   C4D27432  17.980  27.460  16.070
 1144BOLB   NC127433   6.210  25.160  11.300
 1144BOLB   PO127434   6.540  25.050  11.080
 1144BOLB   GL127435   6.470  25.310  10.710
 1144BOLB   GL227436   6.610  25.540  10.690
 1144BOLB   C1A27437   6.100  25.430  10.540
 1144BOLB   C2A27438   6.100  25.710  10.200
 1144BOLB   C3A27439   6.300  26.030   9.960
 1144BOLB   C4A27440   6.350  26.450   9.750
 1144BOLB   C1B27441   6.590  25.620  10.370
 1144BOLB   C2B27442   6.720  26.010  10.120
 1144BOLB   C3B27443   6.720  26.400  10.050
 1144BOLB   C4B27444   7.070  26.720   9.990
 1144BOLB   NC227445   6.320  27.300   7.440
 1144BOLB   PO227446   6.480  27.750   7.750
 1144BOLB   GL327447   6.670  27.650   8.080
 1144BOLB   GL427448   6.990  27.650   8.060
 1144BOLB   C1C27449   6.510  27.550   8.450
 1144BOLB   C2C27450   6.480  27.190   8.650
 1144BOLB   C3C27451   6.380  26.700   8.910
 1144BOLB   C4C27452   6.470  26.720   9.390
 1144BOLB   C1D27453   6.860  27.220   8.220
 1144BOLB   C2D27454   7.010  27.130   8.630
 1144BOLB   C3D27455   7.260  27.200   8.990
 1144BOLB   C4D27456   7.440  27.350   9.330
 1145BOLB   NC127457   7.980  21.290   8.060
 1145BOLB   PO127458   7.780  20.900   7.950
 1145BOLB   GL127459   7.540  21.200   7.660
 1145BOLB   GL227460   7.790  21.410   7.540
 1145BOLB   C1A27461   7.330  21.430   7.240
 1145BOLB   C2A27462   7.130  21.750   6.860
 1145BOLB   C3A27463   6.870  21.790   6.570
 1145BOLB   C4A27464   6.740  22.070   6.380
 1145BOLB   C1B27465   7.740  21.630   7.240
 1145BOLB   C2B27466   7.660  21.530   6.840
 1145BOLB   C3B27467   7.740  21.450   6.490
 1145BOLB   C4B27468   7.950  21.490   6.050
 1145BOLB   NC227469   5.880  22.340   4.050
 1145BOLB   PO227470   5.750  22.660   4.370
 1145BOLB   GL327471   5.780  22.830   4.730
 1145BOLB   GL427472   6.120  22.890   4.710
 1145BOLB   C1C27473   5.840  22.750   5.150
 1145BOLB   C2C27474   6.150  22.640   5.390
 1145BOLB   C3C27475   6.190  22.480   5.850
 1145BOLB   C4C27476   6.490  22.330   6.260
 1145BOLB   C1D27477   6.250  22.410   4.910
 1145BOLB   C2D27478   6.480  22.210   5.190
 1145BOLB   C3D27479   6.510  21.800   5.470
 1145BOLB   C4D27480   6.740  21.700   5.850
 1146BOLB   NC127481  15.810  16.570   8.450
 1146BOLB   PO127482  15.690  16.220   8.220
 1146BOLB   GL127483  16.040  16.310   7.880
 1146BOLB   GL227484  16.340  16.140   7.870
 1146BOLB   C1A27485  16.100  16.330   7.410
 1146BOLB   C2A27486  16.240  16.500   6.960
 1146BOLB   C3A27487  16.500  16.760   6.840
 1146BOLB   C4A27488  16.860  16.870   6.630
 1146BOLB   C1B27489  16.570  16.020   7.550
 1146BOLB   C2B27490  16.810  15.780   7.290
 1146BOLB   C3B27491  17.330  15.710   7.360
 1146BOLB   C4B27492  17.550  15.300   7.400
 1146BOLB   NC227493  18.110  16.890   4.950
 1146BOLB   PO227494  17.970  17.330   4.620
 1146BOLB   GL327495  17.720  17.260   5.030
 1146BOLB   GL427496  17.470  17.340   5.070
 1146BOLB   C1C27497  17.650  16.990   5.350
 1146BOLB   C2C27498  17.320  16.790   5.650
 1146BOLB   C3C27499  17.350  16.860   6.010
 1146BOLB   C4C27500  17.240  16.810   6.480
 1146BOLB   C1D27501  17.180  17.340   5.380
 1146BOLB   C2D27502  16.970  17.200   5.750
 1146BOLB   C3D27503  16.720  17.150   6.210
 1146BOLB   C4D27504  16.380  16.970   6.380
 1147BOLB   NC127505   7.570  23.890   9.290
 1147BOLB   PO127506   8.010  23.940   9.100
 1147BOLB   GL127507   8.110  24.140   8.730
 1147BOLB   GL227508   8.160  23.820   8.490
 1147BOLB   C1A27509   8.140  24.350   8.340
 1147BOLB   C2A27510   7.990  24.430   7.870
 1147BOLB   C3A27511   7.900  24.330   7.460
 1147BOLB   C4A27512   7.970  24.330   7.020
 1147BOLB   C1B27513   8.260  23.920   8.050
 1147BOLB   C2B27514   8.430  24.250   7.760
 1147BOLB   C3B27515   8.740  24.500   7.480
 1147BOLB   C4B27516   8.790  24.870   7.270
 1147BOLB   NC227517   7.400  25.580   4.930
 1147BOLB   PO227518   7.570  25.180   4.910
 1147BOLB   GL327519   7.910  25.210   5.260
 1147BOLB   GL427520   7.810  25.340   5.580
 1147BOLB   C1C27521   8.040  24.880   5.570
 1147BOLB   C2C27522   8.280  24.630   5.830
 1147BOLB   C3C27523   8.190  24.360   6.060
 1147BOLB   C4C27524   8.130  24.270   6.550
 1147BOLB   C1D27525   7.710  25.110   5.890
 1147BOLB   C2D27526   7.830  24.700   6.100
 1147BOLB   C3D27527   7.670  24.290   6.220
 1147BOLB   C4D27528   7.290  24.030   6.120
 1148BOLB   NC127529  17.000  13.220  11.630
 1148BOLB   PO127530  17.110  13.270  12.030
 1148BOLB   GL127531  17.400  13.060  11.880
 1148BOLB   GL227532  17.340  12.770  11.930
 1148BOLB   C1A27533  17.830  12.790  11.650
 1148BOLB   C2A27534  17.860  12.330  11.570
 1148BOLB   C3A27535  18.070  11.940  11.560
 1148BOLB   C4A27536  18.250  11.630  11.350
 1148BOLB   C1B27537  17.500  12.340  11.920
 1148BOLB   C2B27538  17.700  12.000  11.940
 1148BOLB   C3B27539  18.070  11.900  12.150
 1148BOLB   C4B27540  18.390  11.750  12.050
 1148BOLB   NC227541  18.900   9.970  10.530
 1148BOLB   PO227542  19.170  10.260  10.350
 1148BOLB   GL327543  18.710  10.360  10.230
 1148BOLB   GL427544  18.800  10.610  10.030
 1148BOLB   C1C27545  18.390  10.600  10.370
 1148BOLB   C2C27546  18.380  10.930  10.640
 1148BOLB   C3C27547  18.390  11.350  10.640
 1148BOLB   C4C27548  18.250  11.540  10.970
 1148BOLB   C1D27549  19.160  10.890  10.030
 1148BOLB   C2D27550  19.150  11.380  10.040
 1148BOLB   C3D27551  19.320  11.810   9.840
 1148BOLB   C4D27552  19.620  12.040  10.080
 1149BOLB   NC127553  15.310  24.220  10.160
 1149BOLB   PO127554  15.530  24.380   9.820
 1149BOLB   GL127555  15.820  24.720   9.820
 1149BOLB   GL227556  16.040  24.800   9.930
 1149BOLB   C1A27557  15.890  24.970   9.490
 1149BOLB   C2A27558  16.080  25.120   9.080
 1149BOLB   C3A27559  16.370  25.320   8.730
 1149BOLB   C4A27560  16.760  25.380   8.360
 1149BOLB   C1B27561  16.350  24.950   9.820
 1149BOLB   C2B27562  16.390  25.220   9.460
 1149BOLB   C3B27563  16.740  25.330   9.080
 1149BOLB   C4B27564  16.960  25.530   8.780
 1149BOLB   NC227565  17.230  26.370   6.930
 1149BOLB   PO227566  17.570  26.170   6.750
 1149BOLB   GL327567  17.520  25.730   6.780
 1149BOLB   GL427568  17.660  25.540   6.950
 1149BOLB   C1C27569  17.290  25.740   7.260
 1149BOLB   C2C27570  17.110  26.010   7.510
 1149BOLB   C3C27571  16.890  25.950   7.850
 1149BOLB   C4C27572  16.650  25.570   8.010
 1149BOLB   C1D27573  17.980  25.290   7.170
 1149BOLB   C2D27574  17.970  25.250   7.630
 1149BOLB   C3D27575  18.290  25.470   7.800
 1149BOLB   C4D27576  18.630  25.450   7.920
 1150BOLB   NC127577  15.430  22.110   8.340
 1150BOLB   PO127578  15.110  22.420   8.260
 1150BOLB   GL127579  15.310  22.630   7.890
 1150BOLB   GL227580  15.520  22.970   7.860
 1150BOLB   C1A27581  15.620  22.620   7.560
 1150BOLB   C2A27582  15.800  22.920   7.310
 1150BOLB   C3A27583  16.130  22.940   7.040
 1150BOLB   C4A27584  16.450  23.110   6.740
 1150BOLB   C1B27585  15.350  23.130   7.400
 1150BOLB   C2B27586  15.450  23.100   6.960
 1150BOLB   C3B27587  15.310  23.540   6.740
 1150BOLB   C4B27588  15.430  23.890   6.360
 1150BOLB   NC227589  17.350  23.500   4.410
 1150BOLB   PO227590  17.480  23.150   4.590
 1150BOLB   GL327591  17.290  22.930   4.970
 1150BOLB   GL427592  17.130  23.230   5.270
 1150BOLB   C1C27593  16.990  22.640   5.140
 1150BOLB   C2C27594  16.740  22.470   5.500
 1150BOLB   C3C27595  16.670  22.640   5.940
 1150BOLB   C4C27596  16.690  22.890   6.330
 1150BOLB   C1D27597  16.760  23.130   5.160
 1150BOLB   C2D27598  16.500  22.860   5.220
 1150BOLB   C3D27599  16.270  22.670   5.570
 1150BOLB   C4D27600  16.110  22.500   5.940
 1151BOLB   NC127601  13.350  26.230  12.350
 1151BOLB   PO127602  13.260  26.540  12.690
 1151BOLB   GL127603  13.450  26.790  12.410
 1151BOLB   GL227604  13.430  27.120  12.450
 1151BOLB   C1A27605  13.590  27.040  11.910
 1151BOLB   C2A27606  13.560  27.440  11.690
 1151BOLB   C3A27607  13.820  27.680  11.440
 1151BOLB   C4A27608  13.760  27.980  11.120
 1151BOLB   C1B27609  13.610  27.400  12.260
 1151BOLB   C2B27610  13.550  27.780  12.040
 1151BOLB   C3B27611  13.850  28.070  11.860
 1151BOLB   C4B27612  14.160  28.080  11.560
 1151BOLB   NC227613  14.710  30.480  10.940
 1151BOLB   PO227614  14.480  30.300  10.710
 1151BOLB   GL327615  14.290  29.960  10.770
 1151BOLB   GL427616  13.950  29.920  10.720
 1151BOLB   C1C27617  14.290  29.510  10.750
 1151BOLB   C2C27618  14.380  29.080  10.890
 1151BOLB   C3C27619  14.440  28.620  10.950
 1151BOLB   C4C27620  14.190  28.270  10.990
 1151BOLB   C1D27621  13.800  29.750  11.110
 1151BOLB   C2D27622  13.730  29.330  11.480
 1151BOLB   C3D27623  13.680  28.910  11.590
 1151BOLB   C4D27624  13.660  28.440  11.490
 1152BOLB   NC127625  11.340  23.720   8.990
 1152BOLB   PO127626  11.430  24.230   8.820
 1152BOLB   GL127627  11.740  24.380   8.470
 1152BOLB   GL227628  11.850  24.800   8.570
 1152BOLB   C1A27629  12.010  24.590   8.100
 1152BOLB   C2A27630  12.160  24.920   7.820
 1152BOLB   C3A27631  12.100  25.370   7.670
 1152BOLB   C4A27632  11.890  25.770   7.730
 1152BOLB   C1B27633  11.880  25.050   8.250
 1152BOLB   C2B27634  11.670  25.400   8.000
 1152BOLB   C3B27635  11.420  25.770   7.950
 1152BOLB   C4B27636  11.580  26.130   7.790
 1152BOLB   NC227637  11.320  26.730   5.710
 1152BOLB   PO227638  11.710  27.010   5.770
 1152BOLB   GL327639  11.680  26.710   6.070
 1152BOLB   GL427640  12.000  26.850   6.160
 1152BOLB   C1C27641  11.590  26.400   6.370
 1152BOLB   C2C27642  11.930  26.140   6.590
 1152BOLB   C3C27643  12.110  26.210   6.920
 1152BOLB   C4C27644  11.970  25.980   7.310
 1152BOLB   C1D27645  12.000  26.620   6.490
 1152BOLB   C2D27646  12.260  26.790   6.810
 1152BOLB   C3D27647  12.540  26.560   7.080
 1152BOLB   C4D27648  12.950  26.470   7.250
 1153BOLB   NC127649  15.240  24.160   9.390
 1153BOLB   PO127650  15.070  24.520   9.670
 1153BOLB   GL127651  14.870  24.400   9.210
 1153BOLB   GL227652  15.030  24.300   8.900
 1153BOLB   C1A27653  14.690  24.680   8.970
 1153BOLB   C2A27654  14.680  25.060   8.770
 1153BOLB   C3A27655  14.890  25.410   8.480
 1153BOLB   C4A27656  15.170  25.790   8.580
 1153BOLB   C1B27657  15.170  24.660   8.680
 1153BOLB   C2B27658  15.180  24.930   8.350
 1153BOLB   C3B27659  15.490  25.220   8.270
 1153BOLB   C4B27660  15.510  25.510   8.000
 1153BOLB   NC227661  16.750  27.260   6.910
 1153BOLB   PO227662  16.350  27.120   6.820
 1153BOLB   GL327663  16.000  26.920   7.130
 1153BOLB   GL427664  15.650  26.800   7.010
 1153BOLB   C1C27665  15.880  26.750   7.500
 1153BOLB   C2C27666  15.840  26.720   7.900
 1153BOLB   C3C27667  15.560  26.520   8.210
 1153BOLB   C4C27668  15.370  26.230   8.500
 1153BOLB   C1D27669  15.590  26.410   7.350
 1153BOLB   C2D27670  15.230  26.120   7.470
 1153BOLB   C3D27671  15.100  25.700   7.830
 1153BOLB   C4D27672  15.010  25.250   8.010
 1154BOLB   NC127673  12.390  25.570   9.920
 1154BOLB   PO127674  12.100  25.640  10.190
 1154BOLB   GL127675  12.350  26.030  10.000
 1154BOLB   GL227676  12.630  26.140   9.810
 1154BOLB   C1A27677  12.310  26.430   9.950
 1154BOLB   C2A27678  12.330  26.800   9.680
 1154BOLB   C3A27679  12.390  27.010   9.320
 1154BOLB   C4A27680  12.440  27.150   8.950
 1154BOLB   C1B27681  12.580  26.370   9.500
 1154BOLB   C2B27682  12.690  26.610   9.280
 1154BOLB   C3B27683  12.710  26.800   8.870
 1154BOLB   C4B27684  12.500  26.980   8.460
 1154BOLB   NC227685  11.650  29.630   8.100
 1154BOLB   PO227686  11.810  29.280   8.360
 1154BOLB   GL327687  11.990  29.010   8.580
 1154BOLB   GL427688  11.910  29.070   8.880
 1154BOLB   C1C27689  12.100  28.600   8.660
 1154BOLB   C2C27690  12.190  28.210   8.610
 1154BOLB   C3C27691  12.140  27.750   8.670
 1154BOLB   C4C27692  12.160  27.290   8.630
 1154BOLB   C1D27693  11.840  28.800   9.170
 1154BOLB   C2D27694  11.990  28.390   9.530
 1154BOLB   C3D27695  11.940  28.090   9.840
 1154BOLB   C4D27696  11.630  27.990  10.110
 1155BOLB   NC127697   5.630  16.460   8.780
 1155BOLB   PO127698   5.330  16.300   8.990
 1155BOLB   GL127699   5.110  16.230   8.690
 1155BOLB   GL227700   4.890  15.990   8.830
 1155BOLB   C1A27701   4.830  16.380   8.320
 1155BOLB   C2A27702   4.440  16.310   8.130
 1155BOLB   C3A27703   3.980  16.010   8.010
 1155BOLB   C4A27704   3.460  16.070   7.870
 1155BOLB   C1B27705   4.950  15.830   8.350
 1155BOLB   C2B27706   4.940  16.010   7.990
 1155BOLB   C3B27707   4.790  15.910   7.610
 1155BOLB   C4B27708   4.850  15.740   7.250
 1155BOLB   NC227709   1.750  16.780   6.740
 1155BOLB   PO227710   1.520  16.870   7.140
 1155BOLB   GL327711   1.650  17.110   7.490
 1155BOLB   GL427712   1.530  17.130   7.740
 1155BOLB   C1C27713   2.140  17.140   7.630
 1155BOLB   C2C27714   2.540  16.930   7.550
 1155BOLB   C3C27715   3.020  16.730   7.480
 1155BOLB   C4C27716   3.230  16.390   7.710
 1155BOLB   C1D27717   1.700  16.830   8.070
 1155BOLB   C2D27718   1.860  16.780   8.330
 1155BOLB   C3D27719   2.180  17.040   8.460
 1155BOLB   C4D27720   2.100  17.350   8.460
 1156BOLB   NC127721  14.540  19.760   7.110
 1156BOLB   PO127722  14.950  19.560   7.260
 1156BOLB   GL127723  14.980  19.770   6.880
 1156BOLB   GL227724  15.190  20.010   7.090
 1156BOLB   C1A27725  15.090  20.000   6.510
 1156BOLB   C2A27726  14.910  20.330   6.250
 1156BOLB   C3A27727  15.140  20.680   6.180
 1156BOLB   C4A27728  15.460  20.770   5.870
 1156BOLB   C1B27729  15.090  20.380   6.930
 1156BOLB   C2B27730  15.280  20.730   6.740
 1156BOLB   C3B27731  15.350  21.050   6.390
 1156BOLB   C4B27732  15.440  21.360   6.360
 1156BOLB   NC227733  16.600  21.370   3.720
 1156BOLB   PO227734  16.620  20.970   3.910
 1156BOLB   GL327735  16.630  21.140   4.280
 1156BOLB   GL427736  16.900  20.990   4.500
 1156BOLB   C1C27737  16.240  21.080   4.550
 1156BOLB   C2C27738  16.030  20.880   4.870
 1156BOLB   C3C27739  15.950  20.700   5.250
 1156BOLB   C4C27740  15.870  20.880   5.650
 1156BOLB   C1D27741  16.670  21.180   4.820
 1156BOLB   C2D27742  16.360  21.290   5.140
 1156BOLB   C3D27743  16.010  21.320   5.440
 1156BOLB   C4D27744  15.670  21.600   5.580
 1157BOLB   NC127745  13.750  23.840   8.500
 1157BOLB   PO127746  13.930  24.120   8.760
 1157BOLB   GL127747  14.070  24.530   8.720
 1157BOLB   GL227748  14.190  24.720   9.000
 1157BOLB   C1A27749  14.160  25.010   8.480
 1157BOLB   C2A27750  14.420  25.320   8.330
 1157BOLB   C3A27751  14.580  25.660   8.150
 1157BOLB   C4A27752  14.480  26.050   8.100
 1157BOLB   C1B27753  14.110  25.140   8.980
 1157BOLB   C2B27754  14.220  25.540   8.800
 1157BOLB   C3B27755  14.600  25.860   8.600
 1157BOLB   C4B27756  14.700  26.210   8.560
 1157BOLB   NC227757  14.670  28.580   7.760
 1157BOLB   PO227758  14.500  28.160   7.670
 1157BOLB   GL327759  14.290  27.910   7.830
 1157BOLB   GL427760  13.960  28.020   7.660
 1157BOLB   C1C27761  13.990  27.580   7.950
 1157BOLB   C2C27762  13.910  27.220   8.100
 1157BOLB   C3C27763  14.060  26.840   8.030
 1157BOLB   C4C27764  14.410  26.530   7.980
 1157BOLB   C1D27765  13.820  28.010   8.130
 1157BOLB   C2D27766  13.590  27.630   8.300
 1157BOLB   C3D27767  13.160  27.500   8.530
 1157BOLB   C4D27768  12.660  27.450   8.560
 1158BOLB   NC127769  15.040  25.720  18.520
 1158BOLB   PO127770  15.470  25.930  18.340
 1158BOLB   GL127771  15.380  26.280  18.590
 1158BOLB   GL227772  15.740  26.460  18.780
 1158BOLB   C1A27773  15.270  26.600  18.970
 1158BOLB   C2A27774  15.340  26.890  19.310
 1158BOLB   C3A27775  15.210  26.870  19.720
 1158BOLB   C4A27776  15.150  27.290  19.900
 1158BOLB   C1B27777  15.750  26.720  19.120
 1158BOLB   C2B27778  15.880  26.970  19.450
 1158BOLB   C3B27779  15.630  27.060  19.750
 1158BOLB   C4B27780  15.550  27.040  20.090
 1158BOLB   NC227781  15.280  29.690  20.830
 1158BOLB   PO227782  15.510  29.360  21.070
 1158BOLB   GL327783  15.360  29.030  20.710
 1158BOLB   GL427784  15.130  28.720  20.860
 1158BOLB   C1C27785  15.300  28.720  20.310
 1158BOLB   C2C27786  15.320  28.410  20.020
 1158BOLB   C3C27787  15.290  28.150  19.850
 1158BOLB   C4C27788  15.240  27.790  19.880
 1158BOLB   C1D27789  15.100  28.360  20.740
 1158BOLB   C2D27790  14.860  28.080  20.660
 1158BOLB   C3D27791  14.490  27.840  20.550
 1158BOLB   C4D27792  14.320  27.490  20.670
 1159BOLB   NC127793   8.070  27.010  12.810
 1159BOLB   PO127794   8.490  27.000  13.050
 1159BOLB   GL127795   8.510  27.180  12.690
 1159BOLB   GL227796   8.500  27.180  12.390
 1159BOLB   C1A27797   8.340  27.650  12.630
 1159BOLB   C2A27798   8.520  27.990  12.470
 1159BOLB   C3A27799   8.410  28.240  12.160
 1159BOLB   C4A27800   8.170  28.450  11.840
 1159BOLB   C1B27801   8.850  27.580  12.470
 1159BOLB   C2B27802   8.990  28.010  12.280
 1159BOLB   C3B27803   9.020  28.440  12.050
 1159BOLB   C4B27804   9.060  28.810  11.740
 1159BOLB   NC227805   8.000  30.370  10.600
 1159BOLB   PO227806   7.600  30.200  10.810
 1159BOLB   GL327807   7.750  29.800  10.760
 1159BOLB   GL427808   8.000  29.790  10.650
 1159BOLB   C1C27809   7.840  29.770  11.170
 1159BOLB   C2C27810   7.860  29.450  11.510
 1159BOLB   C3C27811   7.840  29.030  11.600
 1159BOLB   C4C27812   7.920  28.600  11.560
 1159BOLB   C1D27813   8.170  29.470  10.880
 1159BOLB   C2D27814   8.080  29.190  11.120
 1159BOLB   C3D27815   8.170  28.850  11.220
 1159BOLB   C4D27816   8.450  28.410  11.310
 1160BOLB   NC127817  12.290  15.220   7.450
 1160BOLB   PO127818  12.480  14.950   7.450
 1160BOLB   GL127819  12.530  14.740   7.140
 1160BOLB   GL227820  12.460  14.400   7.190
 1160BOLB   C1A27821  12.380  14.640   6.750
 1160BOLB   C2A27822  12.100  14.640   6.320
 1160BOLB   C3A27823  12.190  14.780   5.910
 1160BOLB   C4A27824  12.300  14.800   5.480
 1160BOLB   C1B27825  12.440  14.140   6.890
 1160BOLB   C2B27826  12.590  13.840   6.550
 1160BOLB   C3B27827  12.720  13.460   6.370
 1160BOLB   C4B27828  12.590  13.040   6.680
 1160BOLB   NC227829  12.390  15.530   2.740
 1160BOLB   PO227830  12.020  15.190   2.890
 1160BOLB   GL327831  12.020  15.250   3.290
 1160BOLB   GL427832  11.670  15.300   3.250
 1160BOLB   C1C27833  12.310  15.140   3.640
 1160BOLB   C2C27834  12.320  15.100   4.080
 1160BOLB   C3C27835  12.400  15.100   4.590
 1160BOLB   C4C27836  12.410  14.910   5.040
 1160BOLB   C1D27837  11.810  15.630   3.510
 1160BOLB   C2D27838  11.930  16.010   3.800
 1160BOLB   C3D27839  12.110  16.030   4.070
 1160BOLB   C4D27840  12.470  16.260   4.230
 1161BOLB   NC127841  11.400  15.140   8.020
 1161BOLB   PO127842  11.340  15.560   7.890
 1161BOLB   GL127843  11.260  15.300   7.450
 1161BOLB   GL227844  11.250  15.000   7.460
 1161BOLB   C1A27845  11.200  15.330   7.040
 1161BOLB   C2A27846  11.040  15.060   6.710
 1161BOLB   C3A27847  11.020  14.770   6.480
 1161BOLB   C4A27848  10.930  14.440   6.100
 1161BOLB   C1B27849  11.150  14.790   7.170
 1161BOLB   C2B27850  11.340  14.520   6.860
 1161BOLB   C3B27851  11.090  14.270   6.560
 1161BOLB   C4B27852  11.010  13.970   6.210
 1161BOLB   NC227853  10.990  12.450   4.470
 1161BOLB   PO227854  11.440  12.590   4.440
 1161BOLB   GL327855  11.330  12.660   4.810
 1161BOLB   GL427856  11.220  12.490   5.040
 1161BOLB   C1C27857  11.130  12.990   5.020
 1161BOLB   C2C27858  11.050  13.330   5.180
 1161BOLB   C3C27859  10.940  13.750   5.510
 1161BOLB   C4C27860  10.850  14.150   5.780
 1161BOLB   C1D27861  11.080  12.550   5.440
 1161BOLB   C2D27862  10.990  12.990   5.560
 1161BOLB   C3D27863  10.720  13.330   5.690
 1161BOLB   C4D27864  10.630  13.690   6.010
 1162BOLB   NC127865  12.870  27.100  16.240
 1162BOLB   PO127866  12.700  27.490  16.230
 1162BOLB   GL127867  12.800  27.920  15.990
 1162BOLB   GL227868  12.580  28.150  15.930
 1162BOLB   C1A27869  13.010  28.320  16.150
 1162BOLB   C2A27870  12.960  28.660  16.290
 1162BOLB   C3A27871  13.010  28.920  16.510
 1162BOLB   C4A27872  13.140  29.270  16.660
 1162BOLB   C1B27873  12.520  28.530  16.220
 1162BOLB   C2B27874  12.320  28.950  16.110
 1162BOLB   C3B27875  12.250  29.280  16.430
 1162BOLB   C4B27876  12.400  29.530  16.690
 1162BOLB   NC227877  14.450  31.090  16.650
 1162BOLB   PO227878  14.380  31.410  16.930
 1162BOLB   GL327879  14.110  30.890  16.970
 1162BOLB   GL427880  13.910  30.900  17.250
 1162BOLB   C1C27881  13.860  30.520  16.910
 1162BOLB   C2C27882  13.650  30.250  17.030
 1162BOLB   C3C27883  13.380  30.000  17.060
 1162BOLB   C4C27884  13.240  29.590  16.910
 1162BOLB   C1D27885  13.410  30.690  17.180
 1162BOLB   C2D27886  13.040  30.380  17.180
 1162BOLB   C3D27887  12.660  30.360  17.100
 1162BOLB   C4D27888  12.390  29.930  17.000
 1163BOLB   NC127889   8.200  27.680  14.300
 1163BOLB   PO127890   8.570  27.630  14.370
 1163BOLB   GL127891   8.720  27.890  14.020
 1163BOLB   GL227892   8.520  28.190  14.100
 1163BOLB   C1A27893   8.910  28.280  13.770
 1163BOLB   C2A27894   9.030  28.660  13.510
 1163BOLB   C3A27895   8.760  29.000  13.320
 1163BOLB   C4A27896   8.660  29.280  13.330
 1163BOLB   C1B27897   8.260  28.440  14.040
 1163BOLB   C2B27898   7.890  28.620  13.970
 1163BOLB   C3B27899   7.340  28.660  13.930
 1163BOLB   C4B27900   7.120  28.900  13.660
 1163BOLB   NC227901   8.030  31.960  13.520
 1163BOLB   PO227902   8.310  31.560  13.450
 1163BOLB   GL327903   8.380  31.120  13.500
 1163BOLB   GL427904   8.180  31.000  13.410
 1163BOLB   C1C27905   8.700  30.930  13.480
 1163BOLB   C2C27906   8.830  30.490  13.400
 1163BOLB   C3C27907   8.760  30.030  13.130
 1163BOLB   C4C27908   8.710  29.570  13.070
 1163BOLB   C1D27909   8.150  30.570  13.470
 1163BOLB   C2D27910   8.260  30.050  13.420
 1163BOLB   C3D27911   8.300  29.850  12.950
 1163BOLB   C4D27912   8.060  29.870  12.590
 1164BOLB   NC127913   7.550  19.550   8.100
 1164BOLB   PO127914   7.200  19.670   7.810
 1164BOLB   GL127915   7.010  19.710   7.400
 1164BOLB   GL227916   7.050  19.990   7.130
 1164BOLB   C1A27917   6.800  19.640   6.920
 1164BOLB   C2A27918   6.870  19.560   6.500
 1164BOLB   C3A27919   7.060  19.530   6.180
 1164BOLB   C4A27920   7.220  19.510   5.790
 1164BOLB   C1B27921   6.790  20.310   6.870
 1164BOLB   C2B27922   6.490  20.540   6.480
 1164BOLB   C3B27923   6.320  20.350   6.140
 1164BOLB   C4B27924   6.110  19.940   5.940
 1164BOLB   NC227925   6.310  19.530   3.140
 1164BOLB   PO227926   6.400  19.790   3.490
 1164BOLB   GL327927   6.360  19.550   3.860
 1164BOLB   GL427928   6.150  19.590   4.090
 1164BOLB   C1C27929   6.730  19.580   4.090
 1164BOLB   C2C27930   7.070  19.560   4.440
 1164BOLB   C3C27931   7.090  19.660   4.850
 1164BOLB   C4C27932   7.250  19.740   5.350
 1164BOLB   C1D27933   6.270  19.750   4.460
 1164BOLB   C2D27934   6.200  20.050   4.740
 1164BOLB   C3D27935   6.320  20.090   5.140
 1164BOLB   C4D27936   6.120  20.300   5.550
 1165BOLB   NC127937   8.880  16.410   7.480
 1165BOLB   PO127938   9.040  15.990   7.550
 1165BOLB   GL127939   8.950  15.890   7.080
 1165BOLB   GL227940   8.990  16.230   6.880
 1165BOLB   C1A27941   8.590  15.680   6.950
 1165BOLB   C2A27942   8.330  15.580   6.650
 1165BOLB   C3A27943   8.120  15.390   6.300
 1165BOLB   C4A27944   7.700  15.290   6.140
 1165BOLB   C1B27945   8.620  16.010   6.560
 1165BOLB   C2B27946   8.540  15.760   6.170
 1165BOLB   C3B27947   8.420  15.670   5.730
 1165BOLB   C4B27948   8.340  15.850   5.300
 1165BOLB   NC227949   6.420  13.750   5.010
 1165BOLB   PO227950   6.630  13.430   4.980
 1165BOLB   GL327951   6.760  13.510   5.450
 1165BOLB   GL427952   6.990  13.690   5.290
 1165BOLB   C1C27953   6.780  13.810   5.720
 1165BOLB   C2C27954   6.940  14.200   5.880
 1165BOLB   C3C27955   7.040  14.740   5.990
 1165BOLB   C4C27956   7.330  15.100   6.050
 1165BOLB   C1D27957   7.340  13.810   5.560
 1165BOLB   C2D27958   7.690  14.010   5.730
 1165BOLB   C3D27959   7.970  14.260   6.060
 1165BOLB   C4D27960   7.900  14.420   6.490
 1166BOLB   NC127961  13.420  17.850   6.800
 1166BOLB   PO127962  13.790  17.490   6.820
 1166BOLB   GL127963  14.070  17.360   6.530
 1166BOLB   GL227964  14.460  17.530   6.540
 1166BOLB   C1A27965  14.420  17.130   6.230
 1166BOLB   C2A27966  14.710  17.060   5.830
 1166BOLB   C3A27967  14.940  17.130   5.460
 1166BOLB   C4A27968  15.230  17.230   5.170
 1166BOLB   C1B27969  14.740  17.650   6.340
 1166BOLB   C2B27970  15.090  17.570   6.120
 1166BOLB   C3B27971  15.300  17.480   5.720
 1166BOLB   C4B27972  15.570  17.250   5.560
 1166BOLB   NC227973  16.850  16.100   3.740
 1166BOLB   PO227974  16.690  16.040   4.210
 1166BOLB   GL327975  16.340  16.270   4.390
 1166BOLB   GL427976  16.170  16.380   4.130
 1166BOLB   C1C27977  16.360  16.640   4.540
 1166BOLB   C2C27978  16.280  17.090   4.520
 1166BOLB   C3C27979  15.800  17.180   4.510
 1166BOLB   C4C27980  15.410  17.230   4.790
 1166BOLB   C1D27981  15.940  16.670   4.370
 1166BOLB   C2D27982  16.000  16.870   4.810
 1166BOLB   C3D27983  15.740  16.940   5.130
 1166BOLB   C4D27984  15.700  16.780   5.520
 1167BOLB   NC127985   5.920  27.170  15.860
 1167BOLB   PO127986   5.720  27.020  16.260
 1167BOLB   GL127987   5.480  27.440  16.310
 1167BOLB   GL227988   5.090  27.480  16.160
 1167BOLB   C1A27989   5.450  27.780  16.590
 1167BOLB   C2A27990   5.440  28.100  16.910
 1167BOLB   C3A27991   5.180  28.440  17.070
 1167BOLB   C4A27992   5.020  28.800  17.010
 1167BOLB   C1B27993   4.910  27.700  16.450
 1167BOLB   C2B27994   5.110  27.590  16.860
 1167BOLB   C3B27995   5.150  27.530  17.310
 1167BOLB   C4B27996   5.190  27.410  17.810
 1167BOLB   NC227997   3.070  29.940  17.890
 1167BOLB   PO227998   3.080  29.910  17.540
 1167BOLB   GL327999   3.230  29.570  17.510
 1167BOLB   GL428000   3.320  29.440  17.750
 1167BOLB   C1C28001   3.450  29.190  17.340
 1167BOLB   C2C28002   3.860  29.130  17.090
 1167BOLB   C3C28003   4.160  28.900  16.820
 1167BOLB   C4C28004   4.620  28.730  16.780
 1167BOLB   C1D28005   3.700  29.110  17.720
 1167BOLB   C2D28006   4.030  28.840  17.540
 1167BOLB   C3D28007   4.170  28.600  17.260
 1167BOLB   C4D28008   4.370  28.340  16.990
 1168BOLB   NC128009  15.780  26.360  16.370
 1168BOLB   PO128010  15.760  26.250  15.900
 1168BOLB   GL128011  16.090  26.570  15.730
 1168BOLB   GL228012  16.230  26.540  16.110
 1168BOLB   C1A28013  16.090  26.900  15.500
 1168BOLB   C2A28014  16.280  27.280  15.510
 1168BOLB   C3A28015  16.320  27.650  15.560
 1168BOLB   C4A28016  16.280  28.080  15.550
 1168BOLB   C1B28017  16.480  26.880  16.140
 1168BOLB   C2B28018  16.610  27.320  16.090
 1168BOLB   C3B28019  16.730  27.700  15.800
 1168BOLB   C4B28020  16.810  28.050  15.490
 1168BOLB   NC228021  16.880  30.340  15.480
 1168BOLB   PO228022  16.660  30.360  15.110
 1168BOLB   GL328023  16.450  30.040  15.260
 1168BOLB   GL428024  16.160  30.090  15.200
 1168BOLB   C1C28025  16.490  29.700  15.500
 1168BOLB   C2C28026  16.330  29.390  15.650
 1168BOLB   C3C28027  16.220  28.940  15.580
 1168BOLB   C4C28028  16.410  28.420  15.520
 1168BOLB   C1D28029  16.020  29.720  15.460
 1168BOLB   C2D28030  16.010  29.350  15.320
 1168BOLB   C3D28031  15.920  28.900  15.160
 1168BOLB   C4D28032  15.630  28.760  14.850
 1169BOLB   NC128033  18.410  20.860   9.580
 1169BOLB   PO128034  17.940  20.940   9.430
 1169BOLB   GL128035  17.960  21.120   9.050
 1169BOLB   GL228036  17.780  21.440   9.100
 1169BOLB   C1A28037  18.330  21.430   9.080
 1169BOLB   C2A28038  18.610  21.740   8.910
 1169BOLB   C3A28039  18.820  21.690   8.540
 1169BOLB   C4A28040  18.910  21.600   8.110
 1169BOLB   C1B28041  18.010  21.460   8.730
 1169BOLB   C2B28042  18.350  21.480   8.430
 1169BOLB   C3B28043  18.440  21.630   7.930
 1169BOLB   C4B28044  18.660  21.900   7.720
 1169BOLB   NC228045  20.540  22.490   6.720
 1169BOLB   PO228046  20.800  22.360   7.070
 1169BOLB   GL328047  20.710  22.300   7.440
 1169BOLB   GL428048  20.540  22.480   7.730
 1169BOLB   C1C28049  20.350  22.000   7.600
 1169BOLB   C2C28050  19.990  21.920   7.820
 1169BOLB   C3C28051  19.590  21.910   7.940
 1169BOLB   C4C28052  19.180  21.700   7.860
 1169BOLB   C1D28053  20.380  22.300   8.100
 1169BOLB   C2D28054  20.170  22.220   8.560
 1169BOLB   C3D28055  19.800  22.390   8.880
 1169BOLB   C4D28056  19.430  22.240   8.980
 1170BOLB   NC128057  16.800  14.480  10.580
 1170BOLB   PO128058  17.100  14.110  10.510
 1170BOLB   GL128059  17.160  13.820  10.150
 1170BOLB   GL228060  16.980  13.550  10.080
 1170BOLB   C1A28061  17.440  13.660   9.930
 1170BOLB   C2A28062  17.790  13.450   9.880
 1170BOLB   C3A28063  18.110  13.170   9.640
 1170BOLB   C4A28064  18.430  12.990   9.430
 1170BOLB   C1B28065  17.000  13.530   9.650
 1170BOLB   C2B28066  16.820  13.410   9.300
 1170BOLB   C3B28067  16.800  13.520   8.900
 1170BOLB   C4B28068  16.540  13.730   8.660
 1170BOLB   NC228069  20.380  12.480   8.920
 1170BOLB   PO228070  20.210  12.290   8.540
 1170BOLB   GL328071  19.910  12.380   8.770
 1170BOLB   GL428072  19.990  12.740   8.800
 1170BOLB   C1C28073  19.530  12.490   8.940
 1170BOLB   C2C28074  19.130  12.530   8.990
 1170BOLB   C3C28075  19.020  12.700   9.400
 1170BOLB   C4C28076  18.690  12.790   9.580
 1170BOLB   C1D28077  19.550  13.020   8.750
 1170BOLB   C2D28078  19.270  13.450   8.800
 1170BOLB   C3D28079  18.740  13.630   8.900
 1170BOLB   C4D28080  18.540  13.870   9.140
 1171BOLB   NC128081   4.840  21.880   9.090
 1171BOLB   PO128082   4.700  21.480   9.180
 1171BOLB   GL128083   4.660  21.310   8.730
 1171BOLB   GL228084   4.500  21.070   8.530
 1171BOLB   C1A28085   4.760  21.540   8.320
 1171BOLB   C2A28086   4.960  21.690   7.940
 1171BOLB   C3A28087   4.930  21.570   7.490
 1171BOLB   C4A28088   4.860  21.670   7.070
 1171BOLB   C1B28089   4.170  21.080   8.180
 1171BOLB   C2B28090   3.850  21.140   7.830
 1171BOLB   C3B28091   3.540  21.430   7.680
 1171BOLB   C4B28092   3.140  21.450   7.490
 1171BOLB   NC228093   4.700  21.910   4.790
 1171BOLB   PO228094   4.690  21.490   4.680
 1171BOLB   GL328095   4.860  21.550   5.060
 1171BOLB   GL428096   5.120  21.740   4.980
 1171BOLB   C1C28097   4.810  21.630   5.460
 1171BOLB   C2C28098   4.550  21.830   5.730
 1171BOLB   C3C28099   4.550  21.950   6.240
 1171BOLB   C4C28100   4.760  21.790   6.650
 1171BOLB   C1D28101   5.310  22.040   5.340
 1171BOLB   C2D28102   5.610  21.820   5.780
 1171BOLB   C3D28103   5.950  21.740   5.870
 1171BOLB   C4D28104   6.320  21.490   5.860
 1172BOLB   NC128105  12.610  19.520   6.470
 1172BOLB   PO128106  12.500  19.840   6.660
 1172BOLB   GL128107  12.890  19.940   6.370
 1172BOLB   GL228108  12.950  20.230   6.320
 1172BOLB   C1A28109  13.070  19.690   6.000
 1172BOLB   C2A28110  13.420  19.620   5.700
 1172BOLB   C3A28111  13.790  19.880   5.340
 1172BOLB   C4A28112  13.670  19.830   4.960
 1172BOLB   C1B28113  12.840  20.370   5.910
 1172BOLB   C2B28114  13.080  20.550   5.500
 1172BOLB   C3B28115  13.550  20.500   5.350
 1172BOLB   C4B28116  13.860  20.400   5.070
 1172BOLB   NC228117  12.830  20.720   2.930
 1172BOLB   PO228118  12.520  20.390   2.940
 1172BOLB   GL328119  12.910  20.170   3.050
 1172BOLB   GL428120  12.900  20.390   3.360
 1172BOLB   C1C28121  13.340  20.190   3.410
 1172BOLB   C2C28122  13.340  20.090   3.860
 1172BOLB   C3C28123  13.350  20.280   4.150
 1172BOLB   C4C28124  13.510  19.990   4.560
 1172BOLB   C1D28125  12.880  20.010   3.620
 1172BOLB   C2D28126  12.910  19.970   4.020
 1172BOLB   C3D28127  13.120  19.720   4.380
 1172BOLB   C4D28128  13.250  19.520   4.660
 1173BOLB   NC128129   5.660  24.800  11.970
 1173BOLB   PO128130   5.320  25.020  11.760
 1173BOLB   GL128131   5.390  25.360  11.650
 1173BOLB   GL228132   5.430  25.320  11.280
 1173BOLB   C1A28133   5.160  25.750  11.530
 1173BOLB   C2A28134   5.010  25.990  11.280
 1173BOLB   C3A28135   5.130  26.290  10.920
 1173BOLB   C4A28136   4.890  26.660  10.780
 1173BOLB   C1B28137   5.260  25.710  10.990
 1173BOLB   C2B28138   5.550  26.100  10.900
 1173BOLB   C3B28139   5.540  26.460  10.840
 1173BOLB   C4B28140   5.350  26.790  10.470
 1173BOLB   NC228141   2.620  27.380   9.790
 1173BOLB   PO228142   2.700  27.730   9.960
 1173BOLB   GL328143   2.910  27.450  10.290
 1173BOLB   GL428144   2.760  27.460  10.620
 1173BOLB   C1C28145   3.290  27.310  10.440
 1173BOLB   C2C28146   3.700  27.060  10.450
 1173BOLB   C3C28147   4.150  26.960  10.640
 1173BOLB   C4C28148   4.570  26.860  10.680
 1173BOLB   C1D28149   3.000  27.210  10.860
 1173BOLB   C2D28150   3.240  27.250  11.290
 1173BOLB   C3D28151   3.650  27.260  11.350
 1173BOLB   C4D28152   4.050  27.290  11.010
 1174BOLB   NC128153  14.490  26.530  16.280
 1174BOLB   PO128154  14.790  26.860  16.420
 1174BOLB   GL128155  14.980  27.250  16.500
 1174BOLB   GL228156  14.670  27.420  16.440
 1174BOLB   C1A28157  15.300  27.660  16.550
 1174BOLB   C2A28158  15.400  27.980  16.870
 1174BOLB   C3A28159  15.350  28.390  17.080
 1174BOLB   C4A28160  15.420  28.700  17.370
 1174BOLB   C1B28161  14.610  27.730  16.910
 1174BOLB   C2B28162  14.940  28.010  17.090
 1174BOLB   C3B28163  15.080  28.180  17.440
 1174BOLB   C4B28164  15.020  28.110  17.910
 1174BOLB   NC228165  15.670  30.480  18.520
 1174BOLB   PO228166  16.000  30.370  18.790
 1174BOLB   GL328167  15.880  30.000  18.900
 1174BOLB   GL428168  15.770  29.840  19.140
 1174BOLB   C1C28169  15.770  29.640  18.650
 1174BOLB   C2C28170  15.610  29.460  18.330
 1174BOLB   C3C28171  15.520  29.180  18.140
 1174BOLB   C4C28172  15.510  28.960  17.810
 1174BOLB   C1D28173  15.430  29.600  19.090
 1174BOLB   C2D28174  15.150  29.340  18.970
 1174BOLB   C3D28175  14.830  29.000  18.720
 1174BOLB   C4D28176  14.610  28.770  18.370
 1175BOLB   NC128177  13.870  10.550  15.670
 1175BOLB   PO128178  13.530  10.570  15.290
 1175BOLB   GL128179  13.660  10.410  14.960
 1175BOLB   GL228180  13.400  10.400  14.740
 1175BOLB   C1A28181  13.960  10.050  14.850
 1175BOLB   C2A28182  14.170   9.880  14.580
 1175BOLB   C3A28183  14.560   9.590  14.380
 1175BOLB   C4A28184  14.960   9.540  14.290
 1175BOLB   C1B28185  13.300  10.100  14.570
 1175BOLB   C2B28186  13.260   9.780  14.400
 1175BOLB   C3B28187  13.120   9.620  13.990
 1175BOLB   C4B28188  13.330   9.340  13.640
 1175BOLB   NC228189  15.980   7.200  14.750
 1175BOLB   PO228190  16.130   7.540  14.510
 1175BOLB   GL328191  15.860   7.930  14.280
 1175BOLB   GL428192  15.560   7.900  14.370
 1175BOLB   C1C28193  15.850   8.410  14.310
 1175BOLB   C2C28194  15.680   8.630  14.430
 1175BOLB   C3C28195  15.550   9.070  14.420
 1175BOLB   C4C28196  15.450   9.490  14.330
 1175BOLB   C1D28197  15.460   8.140  14.020
 1175BOLB   C2D28198  15.210   8.540  14.040
 1175BOLB   C3D28199  14.870   8.600  14.230
 1175BOLB   C4D28200  14.620   8.640  14.660
 1176BOLB   NC128201  14.690  25.000  10.360
 1176BOLB   PO128202  14.520  25.350  10.510
 1176BOLB   GL128203  14.870  25.540  10.290
 1176BOLB   GL228204  15.030  25.410  10.090
 1176BOLB   C1A28205  15.030  26.010  10.340
 1176BOLB   C2A28206  15.030  26.400  10.370
 1176BOLB   C3A28207  14.920  26.710  10.120
 1176BOLB   C4A28208  14.990  27.000   9.850
 1176BOLB   C1B28209  15.290  25.470   9.780
 1176BOLB   C2B28210  15.710  25.500   9.590
 1176BOLB   C3B28211  16.150  25.650   9.540
 1176BOLB   C4B28212  16.580  25.820   9.640
 1176BOLB   NC228213  15.060  29.410   9.430
 1176BOLB   PO228214  15.510  29.360   9.640
 1176BOLB   GL328215  15.370  28.990   9.590
 1176BOLB   GL428216  15.410  28.690   9.270
 1176BOLB   C1C28217  15.090  28.610   9.690
 1176BOLB   C2C28218  15.160  28.310   9.840
 1176BOLB   C3C28219  15.150  27.860   9.810
 1176BOLB   C4C28220  15.110  27.410   9.900
 1176BOLB   C1D28221  15.640  28.410   9.570
 1176BOLB   C2D28222  16.020  28.300   9.830
 1176BOLB   C3D28223  16.210  28.560  10.250
 1176BOLB   C4D28224  16.310  28.670  10.660
 1177BOLB   NC128225  12.740  12.100  18.260
 1177BOLB   PO128226  12.810  12.120  18.760
 1177BOLB   GL128227  12.690  11.750  19.060
 1177BOLB   GL228228  12.320  11.690  19.280
 1177BOLB   C1A28229  12.870  11.400  19.230
 1177BOLB   C2A28230  13.180  11.300  19.540
 1177BOLB   C3A28231  13.550  11.140  19.550
 1177BOLB   C4A28232  13.940  10.810  19.610
 1177BOLB   C1B28233  12.430  11.330  19.490
 1177BOLB   C2B28234  12.440  10.890  19.620
 1177BOLB   C3B28235  12.350  10.570  19.860
 1177BOLB   C4B28236  12.130  10.330  20.020
 1177BOLB   NC228237  15.140   8.050  20.360
 1177BOLB   PO228238  14.930   8.200  20.040
 1177BOLB   GL328239  14.720   8.690  20.020
 1177BOLB   GL428240  14.380   8.700  20.140
 1177BOLB   C1C28241  14.490   9.160  19.950
 1177BOLB   C2C28242  14.320   9.560  19.950
 1177BOLB   C3C28243  14.220   9.980  19.970
 1177BOLB   C4C28244  14.150  10.340  19.720
 1177BOLB   C1D28245  14.090   8.810  19.880
 1177BOLB   C2D28246  14.080   9.240  19.690
 1177BOLB   C3D28247  14.090   9.400  19.460
 1177BOLB   C4D28248  13.980   9.650  19.130
 1178BOLB   NC128249   2.300  18.190  12.000
 1178BOLB   PO128250   2.110  17.910  12.230
 1178BOLB   GL128251   1.820  17.850  12.030
 1178BOLB   GL228252   1.950  17.970  11.690
 1178BOLB   C1A28253   1.440  17.960  11.840
 1178BOLB   C2A28254   1.190  18.020  11.610
 1178BOLB   C3A28255   0.810  17.970  11.310
 1178BOLB   C4A28256   0.610  17.770  11.030
 1178BOLB   C1B28257   1.650  17.900  11.380
 1178BOLB   C2B28258   1.320  17.780  11.150
 1178BOLB   C3B28259   0.970  17.490  11.080
 1178BOLB   C4B28260   0.800  17.350  10.700
 1178BOLB   NC228261  35.250  17.650  10.170
 1178BOLB   PO228262  34.990  17.360  10.390
 1178BOLB   GL328263  35.460  17.440  10.630
 1178BOLB   GL428264  35.650  17.660  10.460
 1178BOLB   C1C28265  35.720  17.460  11.020
 1178BOLB   C2C28266  36.100  17.320  11.220
 1178BOLB   C3C28267   0.120  17.210  11.340
 1178BOLB   C4C28268   0.540  17.370  11.310
 1178BOLB   C1D28269  36.060  17.660  10.670
 1178BOLB   C2D28270   0.050  17.420  10.840
 1178BOLB   C3D28271   0.360  17.070  10.890
 1178BOLB   C4D28272   0.690  16.940  11.040
 1179BOLB   NC128273  14.250  23.700   9.670
 1179BOLB   PO128274  14.330  23.800   9.160
 1179BOLB   GL128275  14.510  24.170   8.860
 1179BOLB   GL228276  14.420  23.870   8.620
 1179BOLB   C1A28277  14.690  24.470   8.530
 1179BOLB   C2A28278  14.610  24.850   8.340
 1179BOLB   C3A28279  14.600  24.910   7.920
 1179BOLB   C4A28280  14.550  24.940   7.440
 1179BOLB   C1B28281  14.600  24.070   8.220
 1179BOLB   C2B28282  14.950  24.250   8.180
 1179BOLB   C3B28283  14.950  24.580   8.040
 1179BOLB   C4B28284  15.000  24.880   7.630
 1179BOLB   NC228285  13.710  26.080   5.350
 1179BOLB   PO228286  14.140  25.880   5.310
 1179BOLB   GL328287  14.390  25.640   5.630
 1179BOLB   GL428288  14.670  25.540   5.630
 1179BOLB   C1C28289  14.320  25.500   6.070
 1179BOLB   C2C28290  14.410  25.380   6.280
 1179BOLB   C3C28291  14.460  25.260   6.660
 1179BOLB   C4C28292  14.380  25.180   7.050
 1179BOLB   C1D28293  14.700  25.230   5.760
 1179BOLB   C2D28294  14.540  24.940   6.100
 1179BOLB   C3D28295  14.230  24.850   6.260
 1179BOLB   C4D28296  14.040  24.520   6.280
 1180BOLB   NC128297  15.520  14.770   8.790
 1180BOLB   PO128298  15.270  14.830   8.450
 1180BOLB   GL128299  15.630  14.610   8.250
 1180BOLB   GL228300  15.930  14.880   8.040
 1180BOLB   C1A28301  15.730  14.210   8.020
 1180BOLB   C2A28302  15.950  13.820   7.800
 1180BOLB   C3A28303  16.230  13.560   7.890
 1180BOLB   C4A28304  16.420  13.260   7.590
 1180BOLB   C1B28305  16.230  14.910   7.620
 1180BOLB   C2B28306  16.190  14.620   7.210
 1180BOLB   C3B28307  16.280  14.340   6.980
 1180BOLB   C4B28308  16.210  13.930   7.010
 1180BOLB   NC228309  15.830  11.600   5.680
 1180BOLB   PO228310  15.940  11.520   6.110
 1180BOLB   GL328311  15.930  11.850   6.340
 1180BOLB   GL428312  15.680  11.870   6.550
 1180BOLB   C1C28313  16.230  11.960   6.630
 1180BOLB   C2C28314  16.300  12.210   7.040
 1180BOLB   C3C28315  16.200  12.590   7.140
 1180BOLB   C4C28316  16.430  12.950   7.280
 1180BOLB   C1D28317  15.790  12.180   6.900
 1180BOLB   C2D28318  15.560  12.310   7.270
 1180BOLB   C3D28319  15.190  12.490   7.470
 1180BOLB   C4D28320  14.880  12.490   7.690
 1181BOLB   NC128321   8.680  23.770   9.660
 1181BOLB   PO128322   8.960  23.910   9.350
 1181BOLB   GL128323   8.840  24.220   8.930
 1181BOLB   GL228324   8.980  24.080   8.680
 1181BOLB   C1A28325   8.580  24.630   8.690
 1181BOLB   C2A28326   8.460  25.010   8.500
 1181BOLB   C3A28327   8.330  25.370   8.330
 1181BOLB   C4A28328   8.090  25.730   8.140
 1181BOLB   C1B28329   9.020  24.420   8.490
 1181BOLB   C2B28330   9.050  24.920   8.360
 1181BOLB   C3B28331   9.160  25.220   8.070
 1181BOLB   C4B28332   8.920  25.210   7.650
 1181BOLB   NC228333   7.350  26.850   6.380
 1181BOLB   PO228334   7.010  26.670   6.140
 1181BOLB   GL328335   6.950  26.530   6.670
 1181BOLB   GL428336   6.620  26.540   6.840
 1181BOLB   C1C28337   7.220  26.250   6.880
 1181BOLB   C2C28338   7.660  26.110   7.020
 1181BOLB   C3C28339   8.100  25.910   7.250
 1181BOLB   C4C28340   8.160  25.810   7.690
 1181BOLB   C1D28341   6.740  26.090   7.040
 1181BOLB   C2D28342   6.690  25.980   7.380
 1181BOLB   C3D28343   6.850  25.580   7.530
 1181BOLB   C4D28344   6.950  25.220   7.780
 1182BOLB   NC128345  13.100  15.970   7.040
 1182BOLB   PO128346  13.490  15.980   7.240
 1182BOLB   GL128347  13.500  15.950   6.780
 1182BOLB   GL228348  13.870  15.860   6.470
 1182BOLB   C1A28349  13.470  16.070   6.360
 1182BOLB   C2A28350  13.440  16.010   6.010
 1182BOLB   C3A28351  13.230  15.650   5.770
 1182BOLB   C4A28352  13.140  15.550   5.320
 1182BOLB   C1B28353  14.030  16.160   6.190
 1182BOLB   C2B28354  14.100  16.370   5.780
 1182BOLB   C3B28355  14.150  16.670   5.390
 1182BOLB   C4B28356  14.150  16.840   4.990
 1182BOLB   NC228357  12.370  14.360   3.460
 1182BOLB   PO228358  12.700  13.980   3.560
 1182BOLB   GL328359  12.630  14.220   3.890
 1182BOLB   GL428360  12.400  14.210   4.260
 1182BOLB   C1C28361  12.790  14.580   4.050
 1182BOLB   C2C28362  12.840  14.860   4.430
 1182BOLB   C3C28363  12.840  15.090   4.820
 1182BOLB   C4C28364  13.210  15.210   5.060
 1182BOLB   C1D28365  12.290  14.120   4.680
 1182BOLB   C2D28366  12.140  13.950   4.940
 1182BOLB   C3D28367  12.100  13.590   5.310
 1182BOLB   C4D28368  11.750  13.550   5.570
 1183BOLB   NC128369  11.570  11.970  10.040
 1183BOLB   PO128370  11.200  12.090  10.190
 1183BOLB   GL128371  11.110  11.670  10.050
 1183BOLB   GL228372  11.010  11.740   9.680
 1183BOLB   C1A28373  11.120  11.170   9.860
 1183BOLB   C2A28374  11.000  10.730   9.830
 1183BOLB   C3A28375  11.160  10.340   9.650
 1183BOLB   C4A28376  11.290   9.880   9.820
 1183BOLB   C1B28377  10.890  11.470   9.360
 1183BOLB   C2B28378  10.920  11.030   9.380
 1183BOLB   C3B28379  10.980  10.590   9.310
 1183BOLB   C4B28380  10.730  10.320   9.380
 1183BOLB   NC228381  11.800   7.680  10.370
 1183BOLB   PO228382  12.270   7.720  10.260
 1183BOLB   GL328383  12.210   8.160  10.230
 1183BOLB   GL428384  12.460   8.100   9.980
 1183BOLB   C1C28385  12.160   8.520  10.400
 1183BOLB   C2C28386  11.850   8.930  10.530
 1183BOLB   C3C28387  11.550   9.310  10.360
 1183BOLB   C4C28388  11.360   9.700  10.180
 1183BOLB   C1D28389  12.640   8.450  10.240
 1183BOLB   C2D28390  12.710   8.700  10.610
 1183BOLB   C3D28391  12.770   9.060  10.780
 1183BOLB   C4D28392  12.610   9.180  11.180
 1184BOLB   NC128393  11.770  27.290  13.980
 1184BOLB   PO128394  12.160  27.420  14.100
 1184BOLB   GL128395  12.060  27.810  13.980
 1184BOLB   GL228396  12.030  28.100  14.220
 1184BOLB   C1A28397  12.080  28.090  13.700
 1184BOLB   C2A28398  12.190  28.530  13.480
 1184BOLB   C3A28399  12.360  28.640  13.030
 1184BOLB   C4A28400  12.270  28.800  12.560
 1184BOLB   C1B28401  12.300  28.510  14.010
 1184BOLB   C2B28402  12.310  28.920  13.810
 1184BOLB   C3B28403  12.380  29.300  13.870
 1184BOLB   C4B28404  12.720  29.630  13.770
 1184BOLB   NC228405  12.260  31.440  12.220
 1184BOLB   PO228406  12.230  31.100  12.600
 1184BOLB   GL328407  12.520  30.660  12.620
 1184BOLB   GL428408  12.240  30.680  12.910
 1184BOLB   C1C28409  12.530  30.220  12.460
 1184BOLB   C2C28410  12.710  29.890  12.140
 1184BOLB   C3C28411  12.620  29.460  12.100
 1184BOLB   C4C28412  12.470  29.080  12.190
 1184BOLB   C1D28413  12.380  30.380  13.220
 1184BOLB   C2D28414  12.610  30.020  13.340
 1184BOLB   C3D28415  12.930  29.720  13.300
 1184BOLB   C4D28416  12.800  29.450  13.040
 1185BOLB   NC128417   9.420  24.070   9.490
 1185BOLB   PO128418   9.690  24.340   9.560
 1185BOLB   GL128419   9.640  24.420   9.190
 1185BOLB   GL228420   9.340  24.350   8.990
 1185BOLB   C1A28421   9.590  24.820   8.910
 1185BOLB   C2A28422   9.440  25.100   8.620
 1185BOLB   C3A28423   9.290  25.440   8.470
 1185BOLB   C4A28424   9.110  25.750   8.190
 1185BOLB   C1B28425   9.140  24.710   8.860
 1185BOLB   C2B28426   8.830  25.030   8.810
 1185BOLB   C3B28427   8.820  25.430   8.560
 1185BOLB   C4B28428   8.560  25.780   8.420
 1185BOLB   NC228429   8.090  27.190   6.780
 1185BOLB   PO228430   7.800  26.930   6.630
 1185BOLB   GL328431   8.040  26.470   6.680
 1185BOLB   GL428432   7.770  26.410   6.420
 1185BOLB   C1C28433   8.290  26.170   6.890
 1185BOLB   C2C28434   8.590  25.960   7.130
 1185BOLB   C3C28435   8.770  25.720   7.470
 1185BOLB   C4C28436   8.790  25.730   7.930
 1185BOLB   C1D28437   7.970  25.970   6.490
 1185BOLB   C2D28438   8.200  25.660   6.810
 1185BOLB   C3D28439   8.600  25.510   6.940
 1185BOLB   C4D28440   8.940  25.140   6.880
 1186BOLB   NC128441   7.610  26.830  17.400
 1186BOLB   PO128442   7.360  26.900  17.070
 1186BOLB   GL128443   7.300  27.230  17.420
 1186BOLB   GL228444   7.600  27.300  17.550
 1186BOLB   C1A28445   7.330  27.570  17.150
 1186BOLB   C2A28446   7.490  27.880  16.880
 1186BOLB   C3A28447   7.710  28.240  16.850
 1186BOLB   C4A28448   7.800  28.630  16.970
 1186BOLB   C1B28449   7.610  27.670  17.590
 1186BOLB   C2B28450   7.640  28.080  17.520
 1186BOLB   C3B28451   7.730  28.580  17.440
 1186BOLB   C4B28452   7.570  28.900  17.690
 1186BOLB   NC228453   8.140  30.700  17.710
 1186BOLB   PO228454   7.840  30.860  17.510
 1186BOLB   GL328455   7.660  30.590  17.100
 1186BOLB   GL428456   8.000  30.660  16.880
 1186BOLB   C1C28457   7.770  30.190  16.980
 1186BOLB   C2C28458   8.110  29.890  17.000
 1186BOLB   C3C28459   8.090  29.360  16.870
 1186BOLB   C4C28460   8.080  29.000  16.920
 1186BOLB   C1D28461   8.300  30.340  16.850
 1186BOLB   C2D28462   8.460  29.990  16.660
 1186BOLB   C3D28463   8.630  29.570  16.840
 1186BOLB   C4D28464   8.570  29.120  17.080
 1187BOLB   NC128465   1.460  19.650  13.930
 1187BOLB   PO128466   1.550  19.280  14.230
 1187BOLB   GL128467   1.150  19.370  14.210
 1187BOLB   GL228468   1.060  19.410  13.890
 1187BOLB   C1A28469   0.680  19.520  14.360
 1187BOLB   C2A28470   0.330  19.610  14.630
 1187BOLB   C3A28471  36.350  19.520  14.840
 1187BOLB   C4A28472  36.140  19.300  15.170
 1187BOLB   C1B28473   0.710  19.510  13.800
 1187BOLB   C2B28474   0.410  19.890  13.620
 1187BOLB   C3B28475   0.170  19.980  13.210
 1187BOLB   C4B28476   0.000  20.250  13.030
 1187BOLB   NC228477  33.620  18.920  15.170
 1187BOLB   PO228478  33.950  18.990  15.520
 1187BOLB   GL328479  34.410  18.920  15.480
 1187BOLB   GL428480  34.570  19.110  15.240
 1187BOLB   C1C28481  34.820  18.710  15.520
 1187BOLB   C2C28482  35.120  18.630  15.210
 1187BOLB   C3C28483  35.430  18.750  15.220
 1187BOLB   C4C28484  35.830  19.010  15.200
 1187BOLB   C1D28485  35.090  19.100  15.390
 1187BOLB   C2D28486  35.430  19.270  15.160
 1187BOLB   C3D28487  35.670  19.490  14.970
 1187BOLB   C4D28488  35.950  19.770  15.030
 1188BOLB   NC128489  11.950  27.650  14.460
 1188BOLB   PO128490  11.550  27.690  14.280
 1188BOLB   GL128491  11.530  28.020  14.180
 1188BOLB   GL228492  11.440  28.040  13.880
 1188BOLB   C1A28493  11.620  28.490  14.240
 1188BOLB   C2A28494  11.670  28.860  14.480
 1188BOLB   C3A28495  11.680  29.220  14.620
 1188BOLB   C4A28496  11.500  29.560  14.580
 1188BOLB   C1B28497  11.680  28.400  13.770
 1188BOLB   C2B28498  11.750  28.780  13.450
 1188BOLB   C3B28499  11.950  29.170  13.580
 1188BOLB   C4B28500  12.340  29.180  13.370
 1188BOLB   NC228501  11.860  31.760  14.390
 1188BOLB   PO228502  12.180  31.560  14.650
 1188BOLB   GL328503  12.120  31.150  14.770
 1188BOLB   GL428504  12.070  31.220  15.090
 1188BOLB   C1C28505  12.310  30.760  14.700
 1188BOLB   C2C28506  12.350  30.370  14.560
 1188BOLB   C3C28507  12.010  30.070  14.500
 1188BOLB   C4C28508  11.610  29.900  14.600
 1188BOLB   C1D28509  12.280  30.880  15.380
 1188BOLB   C2D28510  12.130  30.420  15.570
 1188BOLB   C3D28511  11.650  30.400  15.650
 1188BOLB   C4D28512  11.400  30.120  15.530
 1189BOLB   NC128513  10.060  14.190   8.250
 1189BOLB   PO128514  10.070  13.850   8.440
 1189BOLB   GL128515  10.020  13.600   8.100
 1189BOLB   GL228516  10.240  13.290   8.120
 1189BOLB   C1A28517   9.740  13.290   7.890
 1189BOLB   C2A28518   9.400  13.120   7.760
 1189BOLB   C3A28519   9.250  12.840   7.430
 1189BOLB   C4A28520   9.490  12.660   7.120
 1189BOLB   C1B28521  10.110  12.980   7.650
 1189BOLB   C2B28522  10.300  12.640   7.410
 1189BOLB   C3B28523  10.650  12.370   7.640
 1189BOLB   C4B28524  11.040  12.140   7.600
 1189BOLB   NC228525   8.830  11.890   5.030
 1189BOLB   PO228526   9.210  11.620   5.090
 1189BOLB   GL328527   9.250  11.930   5.390
 1189BOLB   GL428528   9.190  12.170   5.310
 1189BOLB   C1C28529   9.150  11.930   5.810
 1189BOLB   C2C28530   9.440  12.130   6.170
 1189BOLB   C3C28531   9.590  12.240   6.450
 1189BOLB   C4C28532   9.490  12.400   6.810
 1189BOLB   C1D28533   9.100  12.410   5.600
 1189BOLB   C2D28534   9.050  12.870   5.500
 1189BOLB   C3D28535   8.850  13.230   5.290
 1189BOLB   C4D28536   8.880  13.740   5.050
 1190BOLB   NC128537  17.340  24.570  15.990
 1190BOLB   PO128538  17.380  25.020  16.160
 1190BOLB   GL128539  17.660  25.350  16.090
 1190BOLB   GL228540  17.490  25.380  15.730
 1190BOLB   C1A28541  17.970  25.730  16.030
 1190BOLB   C2A28542  18.170  26.160  15.900
 1190BOLB   C3A28543  18.450  26.490  15.570
 1190BOLB   C4A28544  18.830  26.540  15.500
 1190BOLB   C1B28545  17.660  25.790  15.610
 1190BOLB   C2B28546  17.880  26.110  15.450
 1190BOLB   C3B28547  17.990  26.600  15.280
 1190BOLB   C4B28548  17.840  27.020  15.470
 1190BOLB   NC228549  21.040  27.660  16.090
 1190BOLB   PO228550  20.840  27.720  15.730
 1190BOLB   GL328551  20.550  27.440  15.640
 1190BOLB   GL428552  20.240  27.460  15.810
 1190BOLB   C1C28553  20.190  27.110  15.520
 1190BOLB   C2C28554  19.840  27.060  15.490
 1190BOLB   C3C28555  19.670  26.640  15.320
 1190BOLB   C4C28556  19.260  26.430  15.420
 1190BOLB   C1D28557  20.010  27.090  16.060
 1190BOLB   C2D28558  19.780  26.780  16.220
 1190BOLB   C3D28559  19.550  26.400  16.170
 1190BOLB   C4D28560  19.410  26.060  15.970
 1191BOLB   NC128561  13.630  15.520   7.110
 1191BOLB   PO128562  13.800  15.470   6.840
 1191BOLB   GL128563  13.840  15.350   6.420
 1191BOLB   GL228564  14.190  15.340   6.300
 1191BOLB   C1A28565  13.820  15.050   6.190
 1191BOLB   C2A28566  13.670  14.720   5.960
 1191BOLB   C3A28567  13.330  14.500   5.760
 1191BOLB   C4A28568  13.200  14.480   5.340
 1191BOLB   C1B28569  13.900  15.650   6.070
 1191BOLB   C2B28570  13.830  15.940   5.720
 1191BOLB   C3B28571  14.020  16.120   5.350
 1191BOLB   C4B28572  14.210  15.940   5.010
 1191BOLB   NC228573  12.910  14.850   3.120
 1191BOLB   PO228574  12.670  15.240   3.010
 1191BOLB   GL328575  12.940  15.290   3.360
 1191BOLB   GL428576  12.970  15.570   3.440
 1191BOLB   C1C28577  13.150  15.150   3.750
 1191BOLB   C2C28578  13.260  14.880   4.100
 1191BOLB   C3C28579  13.220  14.530   4.450
 1191BOLB   C4C28580  13.070  14.600   4.880
 1191BOLB   C1D28581  12.770  15.460   3.820
 1191BOLB   C2D28582  12.840  15.270   4.160
 1191BOLB   C3D28583  12.990  15.410   4.510
 1191BOLB   C4D28584  12.890  15.610   4.900
 1192BOLB   NC128585   8.560  15.140   7.920
 1192BOLB   PO128586   8.900  15.090   8.170
 1192BOLB   GL128587   8.920  14.830   7.770
 1192BOLB   GL228588   9.070  15.130   7.660
 1192BOLB   C1A28589   8.880  14.610   7.380
 1192BOLB   C2A28590   9.180  14.400   7.080
 1192BOLB   C3A28591   9.110  14.280   6.560
 1192BOLB   C4A28592   9.240  13.990   6.230
 1192BOLB   C1B28593   8.880  15.100   7.200
 1192BOLB   C2B28594   8.700  15.230   6.790
 1192BOLB   C3B28595   8.620  15.240   6.320
 1192BOLB   C4B28596   8.820  14.970   6.170
 1192BOLB   NC228597   9.130  13.680   3.980
 1192BOLB   PO228598   8.920  13.800   4.370
 1192BOLB   GL328599   9.240  14.050   4.320
 1192BOLB   GL428600   9.490  14.150   4.170
 1192BOLB   C1C28601   9.350  14.320   4.610
 1192BOLB   C2C28602   9.570  14.140   4.980
 1192BOLB   C3C28603   9.280  14.080   5.290
 1192BOLB   C4C28604   9.430  13.850   5.770
 1192BOLB   C1D28605   9.570  14.650   4.280
 1192BOLB   C2D28606   9.450  15.010   4.510
 1192BOLB   C3D28607   9.110  15.290   4.740
 1192BOLB   C4D28608   9.030  15.710   4.550
 1193BOLB   NC128609  10.880  23.140   8.830
 1193BOLB   PO128610  10.920  23.520   8.700
 1193BOLB   GL128611  10.750  23.800   8.390
 1193BOLB   GL228612  10.490  23.990   8.520
 1193BOLB   C1A28613  10.460  23.900   8.020
 1193BOLB   C2A28614  10.190  24.300   7.880
 1193BOLB   C3A28615  10.090  24.590   7.610
 1193BOLB   C4A28616  10.160  24.930   7.320
 1193BOLB   C1B28617  10.670  24.290   8.240
 1193BOLB   C2B28618  10.630  24.620   7.970
 1193BOLB   C3B28619  10.570  24.740   7.540
 1193BOLB   C4B28620  10.960  24.770   7.300
 1193BOLB   NC228621   9.220  26.350   5.560
 1193BOLB   PO228622   9.080  26.470   5.900
 1193BOLB   GL328623   9.180  26.350   6.310
 1193BOLB   GL428624   8.920  26.150   6.340
 1193BOLB   C1C28625   9.480  26.170   6.430
 1193BOLB   C2C28626   9.900  25.970   6.480
 1193BOLB   C3C28627  10.080  25.600   6.720
 1193BOLB   C4C28628  10.330  25.250   6.940
 1193BOLB   C1D28629   9.050  25.990   6.710
 1193BOLB   C2D28630   9.090  25.740   7.020
 1193BOLB   C3D28631   9.450  25.630   7.220
 1193BOLB   C4D28632   9.350  25.590   7.740
 1194BOLB   NC128633  11.540  26.690  13.000
 1194BOLB   PO128634  11.680  27.000  12.720
 1194BOLB   GL128635  11.600  27.360  12.540
 1194BOLB   GL228636  11.470  27.580  12.750
 1194BOLB   C1A28637  11.800  27.570  12.170
 1194BOLB   C2A28638  12.000  27.610  11.830
 1194BOLB   C3A28639  12.010  27.570  11.410
 1194BOLB   C4A28640  12.070  27.580  10.940
 1194BOLB   C1B28641  11.250  28.030  12.880
 1194BOLB   C2B28642  11.140  28.440  12.740
 1194BOLB   C3B28643  11.010  28.880  12.700
 1194BOLB   C4B28644  10.970  29.140  12.360
 1194BOLB   NC228645  12.240  29.440   8.640
 1194BOLB   PO228646  12.160  29.670   9.080
 1194BOLB   GL328647  12.230  29.240   9.320
 1194BOLB   GL428648  12.530  29.110   9.330
 1194BOLB   C1C28649  12.150  28.860   9.640
 1194BOLB   C2C28650  12.010  28.540   9.990
 1194BOLB   C3C28651  12.100  28.200  10.300
 1194BOLB   C4C28652  12.100  27.910  10.620
 1194BOLB   C1D28653  12.360  28.730   9.130
 1194BOLB   C2D28654  12.170  28.320   9.100
 1194BOLB   C3D28655  12.120  27.990   9.300
 1194BOLB   C4D28656  11.970  27.670   9.630
 1195BOLB   NC128657  13.120  24.670   9.340
 1195BOLB   PO128658  12.670  24.790   9.440
 1195BOLB   GL128659  12.550  25.140   9.160
 1195BOLB   GL228660  12.210  25.440   9.030
 1195BOLB   C1A28661  12.670  25.460   8.830
 1195BOLB   C2A28662  12.790  25.460   8.400
 1195BOLB   C3A28663  12.870  25.600   7.990
 1195BOLB   C4A28664  13.180  25.620   7.650
 1195BOLB   C1B28665  12.090  25.860   8.880
 1195BOLB   C2B28666  11.880  26.120   8.600
 1195BOLB   C3B28667  11.730  26.390   8.180
 1195BOLB   C4B28668  11.870  26.700   7.880
 1195BOLB   NC228669  14.490  27.180   5.690
 1195BOLB   PO228670  14.310  27.170   6.060
 1195BOLB   GL328671  14.160  26.770   6.250
 1195BOLB   GL428672  14.090  26.580   6.120
 1195BOLB   C1C28673  14.170  26.350   6.550
 1195BOLB   C2C28674  13.880  26.090   6.780
 1195BOLB   C3C28675  13.750  25.890   7.130
 1195BOLB   C4C28676  13.450  25.900   7.520
 1195BOLB   C1D28677  13.730  26.270   6.310
 1195BOLB   C2D28678  13.470  25.930   6.530
 1195BOLB   C3D28679  13.530  25.580   6.800
 1195BOLB   C4D28680  13.860  25.290   7.030
 1196BOLB   NC128681  12.820  22.080   7.340
 1196BOLB   PO128682  12.460  22.260   7.440
 1196BOLB   GL128683  12.540  22.250   7.000
 1196BOLB   GL228684  12.380  21.970   6.930
 1196BOLB   C1A28685  12.640  22.540   6.650
 1196BOLB   C2A28686  12.410  22.910   6.570
 1196BOLB   C3A28687  12.300  23.070   6.210
 1196BOLB   C4A28688  12.160  23.460   6.020
 1196BOLB   C1B28689  12.320  22.180   6.540
 1196BOLB   C2B28690  12.480  22.450   6.210
 1196BOLB   C3B28691  12.670  22.750   6.080
 1196BOLB   C4B28692  12.660  23.210   5.890
 1196BOLB   NC228693  12.430  24.820   3.680
 1196BOLB   PO228694  12.290  24.470   4.030
 1196BOLB   GL328695  12.000  24.310   4.450
 1196BOLB   GL428696  11.680  24.430   4.300
 1196BOLB   C1C28697  12.080  24.390   4.780
 1196BOLB   C2C28698  12.240  24.130   5.010
 1196BOLB   C3C28699  12.240  24.040   5.470
 1196BOLB   C4C28700  12.250  23.830   5.830
 1196BOLB   C1D28701  11.510  24.090   4.500
 1196BOLB   C2D28702  11.430  23.670   4.730
 1196BOLB   C3D28703  11.480  23.460   5.120
 1196BOLB   C4D28704  11.180  23.210   5.350
 1197BOLB   NC128705  14.080  11.580  11.920
 1197BOLB   PO128706  13.780  11.620  12.260
 1197BOLB   GL128707  13.830  11.230  12.140
 1197BOLB   GL228708  14.130  11.160  12.210
 1197BOLB   C1A28709  13.950  10.920  11.850
 1197BOLB   C2A28710  14.340  10.620  11.760
 1197BOLB   C3A28711  14.770  10.500  11.530
 1197BOLB   C4A28712  14.880  10.480  11.030
 1197BOLB   C1B28713  14.510  10.920  12.220
 1197BOLB   C2B28714  14.900  10.710  11.990
 1197BOLB   C3B28715  15.120  10.310  11.950
 1197BOLB   C4B28716  15.200   9.880  12.110
 1197BOLB   NC228717  14.570   8.720   9.080
 1197BOLB   PO228718  14.950   8.680   9.360
 1197BOLB   GL328719  15.030   9.070   9.640
 1197BOLB   GL428720  14.960   9.010  10.040
 1197BOLB   C1C28721  14.980   9.450   9.820
 1197BOLB   C2C28722  14.890   9.750  10.100
 1197BOLB   C3C28723  14.760  10.070  10.500
 1197BOLB   C4C28724  14.700  10.220  10.800
 1197BOLB   C1D28725  15.100   9.280  10.380
 1197BOLB   C2D28726  14.900   9.570  10.680
 1197BOLB   C3D28727  15.050   9.950  10.960
 1197BOLB   C4D28728  15.360  10.200  10.990
 1198BOLB   NC128729  11.480  26.400  12.610
 1198BOLB   PO128730  11.450  26.710  12.320
 1198BOLB   GL128731  11.470  27.130  12.130
 1198BOLB   GL228732  11.680  27.170  11.880
 1198BOLB   C1A28733  11.310  27.580  12.170
 1198BOLB   C2A28734  11.110  27.870  12.140
 1198BOLB   C3A28735  10.820  28.130  11.980
 1198BOLB   C4A28736  10.610  28.530  11.840
 1198BOLB   C1B28737  11.560  27.580  11.690
 1198BOLB   C2B28738  11.460  27.780  11.290
 1198BOLB   C3B28739  11.260  28.210  11.140
 1198BOLB   C4B28740  10.950  28.400  10.900
 1198BOLB   NC228741   9.880  30.750  11.080
 1198BOLB   PO228742  10.050  30.770  10.690
 1198BOLB   GL328743  10.030  30.250  10.760
 1198BOLB   GL428744  10.020  30.080  10.490
 1198BOLB   C1C28745  10.150  29.860  10.980
 1198BOLB   C2C28746  10.290  29.380  11.190
 1198BOLB   C3C28747  10.210  28.950  11.150
 1198BOLB   C4C28748  10.380  28.740  11.540
 1198BOLB   C1D28749   9.760  29.800  10.660
 1198BOLB   C2D28750   9.540  29.470  10.880
 1198BOLB   C3D28751   9.290  29.380  11.160
 1198BOLB   C4D28752   8.950  29.270  11.490
 1199BOLB   NC128753   3.900  21.260   9.540
 1199BOLB   PO128754   3.960  20.920   9.330
 1199BOLB   GL128755   3.920  20.930   8.920
 1199BOLB   GL228756   3.940  20.700   8.630
 1199BOLB   C1A28757   3.850  21.260   8.610
 1199BOLB   C2A28758   3.780  21.410   8.240
 1199BOLB   C3A28759   4.020  21.610   7.980
 1199BOLB   C4A28760   4.110  21.650   7.590
 1199BOLB   C1B28761   3.740  20.830   8.260
 1199BOLB   C2B28762   3.490  21.070   8.130
 1199BOLB   C3B28763   3.150  21.020   7.880
 1199BOLB   C4B28764   2.970  20.620   7.910
 1199BOLB   NC228765   2.440  21.260   5.920
 1199BOLB   PO228766   2.520  21.040   5.530
 1199BOLB   GL328767   2.930  21.090   5.850
 1199BOLB   GL428768   3.080  20.770   6.100
 1199BOLB   C1C28769   3.420  21.080   6.050
 1199BOLB   C2C28770   3.680  21.320   6.450
 1199BOLB   C3C28771   3.910  21.340   6.780
 1199BOLB   C4C28772   3.990  21.700   7.170
 1199BOLB   C1D28773   3.300  20.580   6.320
 1199BOLB   C2D28774   3.730  20.360   6.330
 1199BOLB   C3D28775   4.040  20.410   6.040
 1199BOLB   C4D28776   4.430  20.050   5.930
 1200BOLB   NC128777  16.430  21.890   9.650
 1200BOLB   PO128778  16.500  22.210   9.320
 1200BOLB   GL128779  16.640  22.620   9.270
 1200BOLB   GL228780  16.520  22.950   9.090
 1200BOLB   C1A28781  17.000  22.880   9.040
 1200BOLB   C2A28782  17.380  23.090   9.140
 1200BOLB   C3A28783  17.660  23.320   8.950
 1200BOLB   C4A28784  17.820  23.660   8.780
 1200BOLB   C1B28785  16.680  23.130   8.700
 1200BOLB   C2B28786  16.870  23.500   8.390
 1200BOLB   C3B28787  17.050  23.990   8.380
 1200BOLB   C4B28788  17.050  24.500   8.360
 1200BOLB   NC228789  19.900  24.780   7.760
 1200BOLB   PO228790  20.120  24.520   8.010
 1200BOLB   GL328791  19.760  24.300   7.920
 1200BOLB   GL428792  19.680  24.230   8.300
 1200BOLB   C1C28793  19.310  24.190   8.030
 1200BOLB   C2C28794  18.940  24.120   8.390
 1200BOLB   C3C28795  18.490  24.070   8.610
 1200BOLB   C4C28796  18.220  23.820   8.840
 1200BOLB   C1D28797  19.810  23.830   8.360
 1200BOLB   C2D28798  19.680  23.610   8.680
 1200BOLB   C3D28799  19.920  23.230   8.740
 1200BOLB   C4D28800  19.880  22.790   8.650
 1201BOLB   NC128801   6.800  21.690   8.270
 1201BOLB   PO128802   6.940  21.320   8.180
 1201BOLB   GL128803   6.820  21.560   7.820
 1201BOLB   GL228804   7.070  21.460   7.650
 1201BOLB   C1A28805   6.470  21.760   7.520
 1201BOLB   C2A28806   6.130  21.910   7.160
 1201BOLB   C3A28807   5.890  21.910   6.700
 1201BOLB   C4A28808   5.730  21.730   6.320
 1201BOLB   C1B28809   6.940  21.750   7.300
 1201BOLB   C2B28810   6.620  21.820   7.010
 1201BOLB   C3B28811   6.360  22.080   6.700
 1201BOLB   C4B28812   6.220  22.570   6.700
 1201BOLB   NC228813   4.730  20.600   4.400
 1201BOLB   PO228814   4.400  20.610   4.630
 1201BOLB   GL328815   4.690  20.850   4.880
 1201BOLB   GL428816   4.560  21.080   5.060
 1201BOLB   C1C28817   5.140  21.050   5.090
 1201BOLB   C2C28818   5.330  21.360   5.260
 1201BOLB   C3C28819   5.390  21.330   5.740
 1201BOLB   C4C28820   5.450  21.480   6.180
 1201BOLB   C1D28821   4.790  20.770   5.390
 1201BOLB   C2D28822   4.860  20.410   5.620
 1201BOLB   C3D28823   4.940  20.370   6.040
 1201BOLB   C4D28824   5.400  20.490   6.340
 1202BOLB   NC128825  11.140  16.410   7.500
 1202BOLB   PO128826  10.780  16.170   7.290
 1202BOLB   GL128827  10.650  16.240   6.800
 1202BOLB   GL228828  10.990  16.140   6.600
 1202BOLB   C1A28829  10.590  16.280   6.310
 1202BOLB   C2A28830  10.560  16.270   5.970
 1202BOLB   C3A28831  10.310  16.240   5.600
 1202BOLB   C4A28832  10.380  16.200   5.240
 1202BOLB   C1B28833  11.040  16.010   6.200
 1202BOLB   C2B28834  11.010  15.710   5.820
 1202BOLB   C3B28835  11.310  15.440   5.610
 1202BOLB   C4B28836  11.300  15.610   5.110
 1202BOLB   NC228837   8.610  15.370   3.130
 1202BOLB   PO228838   8.790  15.250   3.580
 1202BOLB   GL328839   8.960  15.430   3.960
 1202BOLB   GL428840   8.760  15.550   4.190
 1202BOLB   C1C28841   9.350  15.440   4.240
 1202BOLB   C2C28842   9.590  15.520   4.660
 1202BOLB   C3C28843   9.800  15.950   4.910
 1202BOLB   C4C28844  10.000  16.150   5.080
 1202BOLB   C1D28845   8.900  15.090   4.290
 1202BOLB   C2D28846   9.060  14.780   4.630
 1202BOLB   C3D28847   9.290  14.710   4.960
 1202BOLB   C4D28848   9.510  14.650   5.360
 1203BOLB   NC128849  17.900  23.780  18.180
 1203BOLB   PO128850  17.750  23.630  18.500
 1203BOLB   GL128851  18.040  23.810  18.720
 1203BOLB   GL228852  18.250  23.800  18.580
 1203BOLB   C1A28853  18.140  24.090  19.070
 1203BOLB   C2A28854  18.460  23.830  19.330
 1203BOLB   C3A28855  18.830  23.790  19.200
 1203BOLB   C4A28856  19.320  23.690  19.170
 1203BOLB   C1B28857  18.500  23.990  18.760
 1203BOLB   C2B28858  18.830  24.310  18.890
 1203BOLB   C3B28859  19.080  24.310  18.480
 1203BOLB   C4B28860  19.480  24.410  18.340
 1203BOLB   NC228861  20.750  24.380  20.880
 1203BOLB   PO228862  21.030  24.180  20.530
 1203BOLB   GL328863  20.890  24.010  20.240
 1203BOLB   GL428864  20.720  23.730  20.230
 1203BOLB   C1C28865  20.780  23.910  19.780
 1203BOLB   C2C28866  20.450  23.770  19.470
 1203BOLB   C3C28867  20.080  23.720  19.220
 1203BOLB   C4C28868  19.620  23.740  19.070
 1203BOLB   C1D28869  20.330  23.780  20.000
 1203BOLB   C2D28870  19.990  24.010  19.720
 1203BOLB   C3D28871  19.750  24.140  19.410
 1203BOLB   C4D28872  19.320  24.230  19.160
 1204BOLB   NC128873  15.800  25.850  16.630
 1204BOLB   PO128874  15.530  26.210  16.810
 1204BOLB   GL128875  15.880  26.610  16.760
 1204BOLB   GL228876  16.120  26.760  16.500
 1204BOLB   C1A28877  15.860  27.060  16.830
 1204BOLB   C2A28878  16.130  27.360  17.000
 1204BOLB   C3A28879  16.410  27.630  16.690
 1204BOLB   C4A28880  16.780  27.840  16.700
 1204BOLB   C1B28881  16.400  26.970  16.660
 1204BOLB   C2B28882  16.740  27.270  16.640
 1204BOLB   C3B28883  16.970  27.640  16.310
 1204BOLB   C4B28884  17.320  27.960  16.430
 1204BOLB   NC228885  18.390  29.400  17.930
 1204BOLB   PO228886  18.200  29.700  17.650
 1204BOLB   GL328887  17.750  29.640  17.270
 1204BOLB   GL428888  17.540  29.580  17.510
 1204BOLB   C1C28889  17.560  29.240  17.130
 1204BOLB   C2C28890  17.640  28.950  16.920
 1204BOLB   C3C28891  17.400  28.490  16.870
 1204BOLB   C4C28892  17.110  28.080  16.930
 1204BOLB   C1D28893  17.190  29.360  17.370
 1204BOLB   C2D28894  17.030  29.010  17.170
 1204BOLB   C3D28895  16.660  28.830  17.130
 1204BOLB   C4D28896  16.360  28.480  17.060
 1205BOLB   NC128897   6.280  22.030   8.770
 1205BOLB   PO128898   6.010  22.170   9.060
 1205BOLB   GL128899   5.880  22.350   8.690
 1205BOLB   GL228900   5.550  22.440   8.780
 1205BOLB   C1A28901   6.010  22.730   8.420
 1205BOLB   C2A28902   5.910  23.030   8.250
 1205BOLB   C3A28903   5.630  23.320   7.970
 1205BOLB   C4A28904   5.420  23.780   7.850
 1205BOLB   C1B28905   5.430  22.720   8.460
 1205BOLB   C2B28906   5.360  22.890   8.130
 1205BOLB   C3B28907   5.020  22.770   7.860
 1205BOLB   C4B28908   4.840  22.540   7.500
 1205BOLB   NC228909   6.310  25.420   5.590
 1205BOLB   PO228910   6.210  25.380   5.950
 1205BOLB   GL328911   6.470  24.970   6.090
 1205BOLB   GL428912   6.710  24.940   6.030
 1205BOLB   C1C28913   6.270  24.570   6.280
 1205BOLB   C2C28914   5.990  24.320   6.650
 1205BOLB   C3C28915   5.810  24.180   7.040
 1205BOLB   C4C28916   5.520  24.080   7.480
 1205BOLB   C1D28917   6.820  24.920   6.390
 1205BOLB   C2D28918   6.970  25.220   6.710
 1205BOLB   C3D28919   7.430  25.200   6.980
 1205BOLB   C4D28920   7.560  25.080   7.360
 1206BOLB   NC128921   6.310  18.970   8.400
 1206BOLB   PO128922   6.480  19.400   8.290
 1206BOLB   GL128923   6.210  19.540   7.910
 1206BOLB   GL228924   6.000  19.740   7.940
 1206BOLB   C1A28925   6.130  19.660   7.420
 1206BOLB   C2A28926   5.810  19.670   7.040
 1206BOLB   C3A28927   5.380  19.480   6.850
 1206BOLB   C4A28928   5.120  19.220   6.620
 1206BOLB   C1B28929   5.830  20.060   7.650
 1206BOLB   C2B28930   5.530  20.100   7.230
 1206BOLB   C3B28931   5.180  19.850   7.190
 1206BOLB   C4B28932   4.780  19.990   6.950
 1206BOLB   NC228933   3.910  18.840   4.440
 1206BOLB   PO228934   3.700  18.710   4.720
 1206BOLB   GL328935   3.720  19.000   5.020
 1206BOLB   GL428936   3.480  19.020   5.350
 1206BOLB   C1C28937   3.980  19.320   5.270
 1206BOLB   C2C28938   4.250  19.450   5.670
 1206BOLB   C3C28939   4.480  19.480   6.010
 1206BOLB   C4C28940   4.870  19.380   6.200
 1206BOLB   C1D28941   3.810  18.900   5.570
 1206BOLB   C2D28942   4.030  18.960   6.060
 1206BOLB   C3D28943   4.340  19.090   6.300
 1206BOLB   C4D28944   4.550  19.330   6.590
 1207BOLB   NC128945   2.200  17.160  16.950
 1207BOLB   PO128946   2.090  16.960  16.480
 1207BOLB   GL128947   1.630  17.180  16.580
 1207BOLB   GL228948   1.600  17.160  16.880
 1207BOLB   C1A28949   1.150  17.120  16.700
 1207BOLB   C2A28950   0.880  17.060  17.030
 1207BOLB   C3A28951   0.510  16.950  16.810
 1207BOLB   C4A28952   0.150  16.640  16.870
 1207BOLB   C1B28953   1.390  16.920  17.190
 1207BOLB   C2B28954   1.070  16.780  17.450
 1207BOLB   C3B28955   0.790  16.550  17.740
 1207BOLB   C4B28956   0.360  16.670  17.910
 1207BOLB   NC228957  34.230  16.180  16.500
 1207BOLB   PO228958  34.180  16.470  16.140
 1207BOLB   GL328959  34.670  16.390  16.250
 1207BOLB   GL428960  34.780  16.240  16.520
 1207BOLB   C1C28961  35.050  16.590  16.090
 1207BOLB   C2C28962  35.510  16.740  16.220
 1207BOLB   C3C28963  35.770  16.820  16.610
 1207BOLB   C4C28964  36.120  16.630  16.810
 1207BOLB   C1D28965  35.070  16.070  16.160
 1207BOLB   C2D28966  35.060  15.970  15.760
 1207BOLB   C3D28967  35.360  15.890  15.510
 1207BOLB   C4D28968  35.620  16.230  15.360
 1208BOLB   NC128969   6.020  19.530   8.430
 1208BOLB   PO128970   5.600  19.700   8.400
 1208BOLB   GL128971   5.520  19.720   8.030
 1208BOLB   GL228972   5.190  19.740   7.910
 1208BOLB   C1A28973   5.460  19.610   7.570
 1208BOLB   C2A28974   5.240  19.250   7.260
 1208BOLB   C3A28975   5.350  18.960   6.990
 1208BOLB   C4A28976   5.320  18.670   6.660
 1208BOLB   C1B28977   4.980  19.620   7.620
 1208BOLB   C2B28978   4.640  19.730   7.340
 1208BOLB   C3B28979   4.250  19.790   7.180
 1208BOLB   C4B28980   3.790  19.910   7.190
 1208BOLB   NC228981   5.560  17.540   3.880
 1208BOLB   PO228982   5.570  17.960   4.160
 1208BOLB   GL328983   5.500  18.060   4.550
 1208BOLB   GL428984   5.470  18.430   4.580
 1208BOLB   C1C28985   5.400  18.170   5.030
 1208BOLB   C2C28986   5.420  18.090   5.490
 1208BOLB   C3C28987   5.440  18.280   5.900
 1208BOLB   C4C28988   5.330  18.380   6.410
 1208BOLB   C1D28989   5.690  18.600   4.960
 1208BOLB   C2D28990   5.600  18.550   5.410
 1208BOLB   C3D28991   5.440  18.780   5.700
 1208BOLB   C4D28992   5.680  19.210   5.860
 1209BOLB   NC128993   1.290  21.250  15.620
 1209BOLB   PO128994   1.250  20.880  15.710
 1209BOLB   GL128995   0.870  20.820  15.710
 1209BOLB   GL228996   0.830  20.640  15.470
 1209BOLB   C1A28997   0.460  20.910  15.880
 1209BOLB   C2A28998   0.140  21.260  16.010
 1209BOLB   C3A28999  36.210  21.590  16.110
 1209BOLB   C4A29000  35.740  21.550  16.170
 1209BOLB   C1B29001   0.450  20.690  15.400
 1209BOLB   C2B29002   0.120  20.690  15.540
 1209BOLB   C3B29003  36.160  20.370  15.770
 1209BOLB   C4B29004  35.880  20.300  16.140
 1209BOLB   NC229005  34.070  20.060  17.220
 1209BOLB   PO229006  34.200  20.450  17.310
 1209BOLB   GL329007  34.470  20.620  17.400
 1209BOLB   GL429008  34.850  20.440  17.500
 1209BOLB   C1C29009  34.790  20.900  17.200
 1209BOLB   C2C29010  34.830  21.350  16.900
 1209BOLB   C3C29011  35.120  21.290  16.460
 1209BOLB   C4C29012  35.340  21.550  16.220
 1209BOLB   C1D29013  35.350  20.370  17.380
 1209BOLB   C2D29014  35.560  20.190  17.140
 1209BOLB   C3D29015  35.680  19.830  16.910
 1209BOLB   C4D29016  35.720  19.540  16.680
 1210BOLB   NC129017  15.090  26.600  13.160
 1210BOLB   PO129018  15.280  26.210  13.150
 1210BOLB   GL129019  15.510  26.650  12.850
 1210BOLB   GL229020  15.170  26.800  12.720
 1210BOLB   C1A29021  15.770  26.870  12.560
 1210BOLB   C2A29022  15.880  27.160  12.310
 1210BOLB   C3A29023  15.990  27.600  12.290
 1210BOLB   C4A29024  15.990  27.970  12.380
 1210BOLB   C1B29025  15.350  27.050  12.360
 1210BOLB   C2B29026  15.500  27.440  12.120
 1210BOLB   C3B29027  15.540  27.880  12.160
 1210BOLB   C4B29028  15.720  28.310  12.180
 1210BOLB   NC229029  17.930  29.730  11.760
 1210BOLB   PO229030  18.090  29.280  11.900
 1210BOLB   GL329031  17.770  28.920  11.880
 1210BOLB   GL429032  18.020  28.690  11.960
 1210BOLB   C1C29033  17.450  28.650  12.070
 1210BOLB   C2C29034  17.050  28.630  12.390
 1210BOLB   C3C29035  16.660  28.420  12.380
 1210BOLB   C4C29036  16.200  28.450  12.520
 1210BOLB   C1D29037  17.720  28.280  11.880
 1210BOLB   C2D29038  17.440  28.080  12.200
 1210BOLB   C3D29039  17.280  28.180  12.530
 1210BOLB   C4D29040  16.910  27.970  12.650
 1211BOLB   NC129041   7.500  22.030   8.810
 1211BOLB   PO129042   7.140  22.030   8.590
 1211BOLB   GL129043   7.090  22.320   8.230
 1211BOLB   GL229044   7.300  22.300   7.970
 1211BOLB   C1A29045   6.880  22.610   7.990
 1211BOLB   C2A29046   6.640  22.770   7.620
 1211BOLB   C3A29047   6.750  22.950   7.150
 1211BOLB   C4A29048   7.040  22.830   6.700
 1211BOLB   C1B29049   7.180  22.450   7.570
 1211BOLB   C2B29050   7.140  22.570   7.130
 1211BOLB   C3B29051   7.430  22.440   6.760
 1211BOLB   C4B29052   7.660  22.020   6.670
 1211BOLB   NC229053   6.480  22.940   4.350
 1211BOLB   PO229054   6.940  22.790   4.380
 1211BOLB   GL329055   6.730  22.700   4.710
 1211BOLB   GL429056   6.730  22.310   4.740
 1211BOLB   C1C29057   6.660  22.690   5.100
 1211BOLB   C2C29058   6.650  22.540   5.520
 1211BOLB   C3C29059   6.890  22.660   5.940
 1211BOLB   C4C29060   7.040  22.550   6.340
 1211BOLB   C1D29061   6.990  22.300   5.210
 1211BOLB   C2D29062   6.950  22.060   5.570
 1211BOLB   C3D29063   7.080  22.140   6.050
 1211BOLB   C4D29064   7.220  22.110   6.500
 1212BOLB   NC129065  18.980  15.770  14.840
 1212BOLB   PO129066  19.050  15.690  15.340
 1212BOLB   GL129067  19.460  15.610  15.540
 1212BOLB   GL229068  19.420  15.220  15.580
 1212BOLB   C1A29069  19.760  15.390  15.880
 1212BOLB   C2A29070  20.160  15.170  15.730
 1212BOLB   C3A29071  20.590  15.240  15.890
 1212BOLB   C4A29072  20.880  15.180  16.250
 1212BOLB   C1B29073  19.460  14.770  15.530
 1212BOLB   C2B29074  19.720  14.410  15.610
 1212BOLB   C3B29075  19.770  14.030  15.710
 1212BOLB   C4B29076  19.910  13.760  16.070
 1212BOLB   NC229077  23.050  14.650  16.930
 1212BOLB   PO229078  22.880  14.660  17.280
 1212BOLB   GL329079  22.480  14.940  17.250
 1212BOLB   GL429080  22.270  14.860  17.190
 1212BOLB   C1C29081  22.200  15.360  17.250
 1212BOLB   C2C29082  21.840  15.280  16.970
 1212BOLB   C3C29083  21.460  15.330  16.940
 1212BOLB   C4C29084  21.130  15.190  16.640
 1212BOLB   C1D29085  21.920  14.770  16.980
 1212BOLB   C2D29086  21.700  14.900  16.690
 1212BOLB   C3D29087  21.300  14.710  16.500
 1212BOLB   C4D29088  21.000  14.510  16.610
 1213BOLB   NC129089   8.330  16.250   7.970
 1213BOLB   PO129090   8.420  16.660   7.670
 1213BOLB   GL129091   8.140  16.840   7.330
 1213BOLB   GL229092   8.140  17.190   7.200
 1213BOLB   C1A29093   8.040  16.790   6.890
 1213BOLB   C2A29094   7.850  16.570   6.540
 1213BOLB   C3A29095   7.780  16.280   6.350
 1213BOLB   C4A29096   7.530  16.070   5.970
 1213BOLB   C1B29097   7.950  17.260   6.740
 1213BOLB   C2B29098   8.060  17.060   6.440
 1213BOLB   C3B29099   8.040  16.830   6.040
 1213BOLB   C4B29100   8.180  16.690   5.620
 1213BOLB   NC229101   5.390  15.590   4.620
 1213BOLB   PO229102   5.680  15.190   4.670
 1213BOLB   GL329103   6.030  15.160   4.910
 1213BOLB   GL429104   5.970  15.230   5.150
 1213BOLB   C1C29105   6.350  15.540   5.110
 1213BOLB   C2C29106   6.670  15.730   5.310
 1213BOLB   C3C29107   6.860  15.840   5.520
 1213BOLB   C4C29108   7.280  16.070   5.630
 1213BOLB   C1D29109   6.020  15.420   5.450
 1213BOLB   C2D29110   6.030  15.360   5.880
 1213BOLB   C3D29111   6.210  15.330   6.250
 1213BOLB   C4D29112   6.600  15.490   6.380
 1214BOLB   NC129113  14.040  13.360  10.310
 1214BOLB   PO129114  14.050  12.900  10.160
 1214BOLB   GL129115  14.010  12.460  10.070
 1214BOLB   GL229116  14.190  12.520   9.770
 1214BOLB   C1A29117  13.890  12.010   9.970
 1214BOLB   C2A29118  14.030  11.600  10.040
 1214BOLB   C3A29119  14.030  11.140   9.870
 1214BOLB   C4A29120  14.250  10.660   9.830
 1214BOLB   C1B29121  14.300  12.190   9.580
 1214BOLB   C2B29122  14.470  11.920   9.300
 1214BOLB   C3B29123  14.720  11.660   9.200
 1214BOLB   C4B29124  15.040  11.350   9.110
 1214BOLB   NC229125  15.920   8.940   8.590
 1214BOLB   PO229126  15.500   9.050   8.840
 1214BOLB   GL329127  15.450   9.390   9.080
 1214BOLB   GL429128  15.750   9.520   9.190
 1214BOLB   C1C29129  15.290   9.640   9.410
 1214BOLB   C2C29130  15.220   9.920   9.810
 1214BOLB   C3C29131  14.800  10.190   9.960
 1214BOLB   C4C29132  14.470  10.440  10.020
 1214BOLB   C1D29133  15.680   9.910   8.930
 1214BOLB   C2D29134  15.740  10.300   8.970
 1214BOLB   C3D29135  15.640  10.660   8.920
 1214BOLB   C4D29136  15.330  10.880   8.980
 1215BOLB   NC129137  16.260  20.780  20.190
 1215BOLB   PO129138  16.460  20.680  20.610
 1215BOLB   GL129139  16.860  20.750  20.750
 1215BOLB   GL229140  16.710  20.640  21.060
 1215BOLB   C1A29141  17.300  20.670  20.460
 1215BOLB   C2A29142  17.670  20.570  20.640
 1215BOLB   C3A29143  18.000  20.500  20.910
 1215BOLB   C4A29144  18.270  20.460  21.130
 1215BOLB   C1B29145  17.070  20.820  21.230
 1215BOLB   C2B29146  17.430  20.830  21.440
 1215BOLB   C3B29147  17.730  21.040  21.700
 1215BOLB   C4B29148  18.070  20.980  21.940
 1215BOLB   NC229149  19.740  21.760  22.770
 1215BOLB   PO229150  19.910  21.460  22.410
 1215BOLB   GL329151  19.490  21.370  22.510
 1215BOLB   GL429152  19.530  21.060  22.650
 1215BOLB   C1C29153  19.010  21.480  22.500
 1215BOLB   C2C29154  18.740  21.310  22.180
 1215BOLB   C3C29155  18.600  20.930  21.860
 1215BOLB   C4C29156  18.440  20.640  21.500
 1215BOLB   C1D29157  19.160  21.000  22.420
 1215BOLB   C2D29158  19.070  20.840  21.990
 1215BOLB   C3D29159  18.950  20.560  21.720
 1215BOLB   C4D29160  18.870  20.270  21.370
 1216BOLB   NC129161  15.840  19.340   8.830
 1216BOLB   PO129162  16.210  19.310   8.500
 1216BOLB   GL129163  16.400  19.170   8.100
 1216BOLB   GL229164  16.350  19.530   7.900
 1216BOLB   C1A29165  16.470  18.980   7.620
 1216BOLB   C2A29166  16.910  19.020   7.340
 1216BOLB   C3A29167  17.340  19.170   7.050
 1216BOLB   C4A29168  17.630  18.990   6.740
 1216BOLB   C1B29169  16.720  19.380   7.680
 1216BOLB   C2B29170  16.950  19.530   7.280
 1216BOLB   C3B29171  16.960  19.480   6.860
 1216BOLB   C4B29172  16.800  19.470   6.400
 1216BOLB   NC229173  18.530  18.430   4.080
 1216BOLB   PO229174  18.680  18.650   4.520
 1216BOLB   GL329175  18.500  18.730   4.930
 1216BOLB   GL429176  18.250  18.570   5.040
 1216BOLB   C1C29177  18.550  18.810   5.320
 1216BOLB   C2C29178  18.450  18.850   5.730
 1216BOLB   C3C29179  18.210  18.920   6.070
 1216BOLB   C4C29180  17.880  18.830   6.440
 1216BOLB   C1D29181  17.790  18.590   4.940
 1216BOLB   C2D29182  17.500  18.310   4.990
 1216BOLB   C3D29183  17.140  18.020   5.010
 1216BOLB   C4D29184  16.990  17.970   4.620
 1217BOLB   NC129185  13.360  13.440  19.050
 1217BOLB   PO129186  13.450  13.350  19.570
 1217BOLB   GL129187  13.730  12.950  19.730
 1217BOLB   GL229188  13.500  12.950  19.990
 1217BOLB   C1A29189  13.820  12.500  19.630
 1217BOLB   C2A29190  13.940  12.020  19.690
 1217BOLB   C3A29191  14.150  11.740  19.570
 1217BOLB   C4A29192  14.160  11.280  19.640
 1217BOLB   C1B29193  13.490  12.750  20.380
 1217BOLB   C2B29194  13.490  12.420  20.540
 1217BOLB   C3B29195  13.790  12.060  20.720
 1217BOLB   C4B29196  13.950  11.760  20.740
 1217BOLB   NC229197  14.280   9.330  21.240
 1217BOLB   PO229198  14.520   9.080  20.950
 1217BOLB   GL329199  14.560   9.560  20.780
 1217BOLB   GL429200  14.830   9.830  20.990
 1217BOLB   C1C29201  14.500  10.070  20.690
 1217BOLB   C2C29202  14.250  10.350  20.420
 1217BOLB   C3C29203  14.050  10.610  20.160
 1217BOLB   C4C29204  14.210  11.030  20.020
 1217BOLB   C1D29205  14.900  10.300  20.850
 1217BOLB   C2D29206  14.870  10.670  21.140
 1217BOLB   C3D29207  14.640  11.040  20.970
 1217BOLB   C4D29208  14.320  11.360  21.030
 1218BOLB   NC129209   9.880  26.020  11.480
 1218BOLB   PO129210   9.930  25.860  11.020
 1218BOLB   GL129211   9.980  26.350  10.860
 1218BOLB   GL229212  10.260  26.360  10.660
 1218BOLB   C1A29213   9.910  26.830  10.810
 1218BOLB   C2A29214   9.630  27.240  10.690
 1218BOLB   C3A29215   9.520  27.680  10.650
 1218BOLB   C4A29216   9.340  28.020  10.780
 1218BOLB   C1B29217  10.350  26.440  10.330
 1218BOLB   C2B29218  10.210  26.790  10.060
 1218BOLB   C3B29219  10.340  27.090   9.950
 1218BOLB   C4B29220  10.330  27.480   9.870
 1218BOLB   NC229221   7.830  29.420   8.960
 1218BOLB   PO229222   8.330  29.690   9.040
 1218BOLB   GL329223   8.230  29.280   9.360
 1218BOLB   GL429224   8.010  29.120   9.280
 1218BOLB   C1C29225   8.380  28.980   9.690
 1218BOLB   C2C29226   8.740  28.570   9.860
 1218BOLB   C3C29227   8.950  28.400  10.190
 1218BOLB   C4C29228   8.970  28.120  10.500
 1218BOLB   C1D29229   8.180  28.730   9.090
 1218BOLB   C2D29230   8.180  28.320   9.410
 1218BOLB   C3D29231   8.350  27.920   9.630
 1218BOLB   C4D29232   8.160  27.580   9.800
 1219BOLB   NC129233   2.930  22.570  17.060
 1219BOLB   PO129234   2.710  22.900  17.310
 1219BOLB   GL129235   2.330  23.130  17.170
 1219BOLB   GL229236   2.210  23.480  17.330
 1219BOLB   C1A29237   1.810  23.100  17.290
 1219BOLB   C2A29238   1.460  23.340  17.430
 1219BOLB   C3A29239   1.040  23.270  17.500
 1219BOLB   C4A29240   0.570  23.000  17.500
 1219BOLB   C1B29241   1.890  23.500  17.630
 1219BOLB   C2B29242   1.570  23.840  17.680
 1219BOLB   C3B29243   1.290  24.190  17.610
 1219BOLB   C4B29244   0.890  24.180  17.780
 1219BOLB   NC229245  35.270  22.870  19.390
 1219BOLB   PO229246  35.030  22.810  19.010
 1219BOLB   GL329247  35.370  22.910  18.770
 1219BOLB   GL429248  35.670  23.110  18.990
 1219BOLB   C1C29249  35.580  22.760  18.410
 1219BOLB   C2C29250  35.900  22.950  18.120
 1219BOLB   C3C29251  36.250  22.740  17.980
 1219BOLB   C4C29252   0.250  22.760  17.760
 1219BOLB   C1D29253  35.980  22.880  18.650
 1219BOLB   C2D29254  35.990  22.480  18.360
 1219BOLB   C3D29255  35.710  22.480  18.050
 1219BOLB   C4D29256  35.360  22.840  17.950
 1220BOLB   NC129257  15.560  22.510   9.270
 1220BOLB   PO129258  15.850  22.690   8.880
 1220BOLB   GL129259  16.300  22.550   8.680
 1220BOLB   GL229260  16.490  22.470   8.850
 1220BOLB   C1A29261  16.550  22.770   8.390
 1220BOLB   C2A29262  16.770  23.040   8.160
 1220BOLB   C3A29263  17.060  23.380   7.980
 1220BOLB   C4A29264  17.270  23.810   7.870
 1220BOLB   C1B29265  16.810  22.350   8.550
 1220BOLB   C2B29266  16.980  22.550   8.220
 1220BOLB   C3B29267  17.160  22.840   7.860
 1220BOLB   C4B29268  17.390  22.800   7.460
 1220BOLB   NC229269  18.880  25.580   6.640
 1220BOLB   PO229270  18.500  25.290   6.410
 1220BOLB   GL329271  18.310  24.900   6.590
 1220BOLB   GL429272  18.480  24.690   6.790
 1220BOLB   C1C29273  17.930  24.830   6.820
 1220BOLB   C2C29274  17.830  24.510   7.080
 1220BOLB   C3C29275  17.690  24.060   7.300
 1220BOLB   C4C29276  17.580  23.820   7.600
 1220BOLB   C1D29277  18.560  24.520   7.280
 1220BOLB   C2D29278  18.450  24.540   7.580
 1220BOLB   C3D29279  18.300  24.460   7.910
 1220BOLB   C4D29280  18.010  24.340   8.240
 1221BOLB   NC129281  17.580  17.650   9.060
 1221BOLB   PO129282  17.900  17.740   9.330
 1221BOLB   GL129283  18.140  17.490   9.140
 1221BOLB   GL229284  18.280  17.260   9.300
 1221BOLB   C1A29285  18.060  17.330   8.710
 1221BOLB   C2A29286  18.160  17.230   8.300
 1221BOLB   C3A29287  18.190  17.200   7.860
 1221BOLB   C4A29288  18.280  17.190   7.450
 1221BOLB   C1B29289  18.440  17.060   8.860
 1221BOLB   C2B29290  18.580  16.920   8.460
 1221BOLB   C3B29291  18.560  16.810   8.000
 1221BOLB   C4B29292  18.760  16.740   7.590
 1221BOLB   NC229293  19.450  17.170   5.710
 1221BOLB   PO229294  19.350  17.530   5.480
 1221BOLB   GL329295  19.000  17.480   5.670
 1221BOLB   GL429296  18.990  17.270   5.890
 1221BOLB   C1C29297  18.620  17.600   5.940
 1221BOLB   C2C29298  18.370  17.610   6.230
 1221BOLB   C3C29299  18.320  17.510   6.630
 1221BOLB   C4C29300  18.210  17.230   6.990
 1221BOLB   C1D29301  18.750  17.250   6.280
 1221BOLB   C2D29302  18.820  17.540   6.510
 1221BOLB   C3D29303  19.030  17.470   6.940
 1221BOLB   C4D29304  19.430  17.260   7.020
 1222BOLB   NC129305  16.420  12.390  16.000
 1222BOLB   PO129306  16.060  12.370  16.270
 1222BOLB   GL129307  16.080  11.860  16.420
 1222BOLB   GL229308  15.730  11.720  16.540
 1222BOLB   C1A29309  16.470  11.570  16.510
 1222BOLB   C2A29310  16.900  11.490  16.700
 1222BOLB   C3A29311  17.230  11.200  16.770
 1222BOLB   C4A29312  17.530  11.100  16.480
 1222BOLB   C1B29313  16.060  11.480  16.750
 1222BOLB   C2B29314  16.370  11.240  16.970
 1222BOLB   C3B29315  16.370  10.940  17.190
 1222BOLB   C4B29316  16.500  10.610  17.320
 1222BOLB   NC229317  19.150   9.190  16.800
 1222BOLB   PO229318  19.430   9.340  16.890
 1222BOLB   GL329319  19.270   9.690  16.930
 1222BOLB   GL429320  19.570   9.930  16.900
 1222BOLB   C1C29321  18.930   9.920  16.710
 1222BOLB   C2C29322  18.590  10.220  16.740
 1222BOLB   C3C29323  18.290  10.550  16.690
 1222BOLB   C4C29324  17.990  10.870  16.530
 1222BOLB   C1D29325  19.400  10.280  17.020
 1222BOLB   C2D29326  19.020  10.410  16.700
 1222BOLB   C3D29327  18.760  10.670  16.570
 1222BOLB   C4D29328  18.980  11.120  16.730
 1223BOLB   NC129329   5.980  12.690   5.540
 1223BOLB   PO129330   5.770  13.000   5.190
 1223BOLB   GL129331   5.950  13.180   5.650
 1223BOLB   GL229332   5.810  13.190   5.930
 1223BOLB   C1A29333   6.340  13.260   5.870
 1223BOLB   C2A29334   6.750  13.380   6.040
 1223BOLB   C3A29335   6.880  13.480   6.380
 1223BOLB   C4A29336   6.940  13.420   6.780
 1223BOLB   C1B29337   5.930  13.650   5.860
 1223BOLB   C2B29338   6.260  13.840   5.850
 1223BOLB   C3B29339   6.610  13.920   6.180
 1223BOLB   C4B29340   6.970  14.020   6.560
 1223BOLB   NC229341   6.450  11.060   6.520
 1223BOLB   PO229342   6.070  11.410   6.500
 1223BOLB   GL329343   6.220  11.830   6.500
 1223BOLB   GL429344   6.420  11.910   6.700
 1223BOLB   C1C29345   6.230  12.330   6.590
 1223BOLB   C2C29346   6.520  12.390   6.930
 1223BOLB   C3C29347   6.770  12.690   7.080
 1223BOLB   C4C29348   6.870  13.050   7.030
 1223BOLB   C1D29349   6.460  11.770   7.090
 1223BOLB   C2D29350   6.650  11.500   7.290
 1223BOLB   C3D29351   6.900  11.090   7.210
 1223BOLB   C4D29352   7.150  10.890   7.490
 1224BOLB   NC129353  18.370  15.300  12.300
 1224BOLB   PO129354  18.720  15.460  12.150
 1224BOLB   GL129355  18.860  15.220  11.870
 1224BOLB   GL229356  19.040  15.380  11.760
 1224BOLB   C1A29357  19.110  14.730  12.080
 1224BOLB   C2A29358  19.230  14.250  12.010
 1224BOLB   C3A29359  19.500  13.930  12.250
 1224BOLB   C4A29360  19.930  13.810  12.380
 1224BOLB   C1B29361  19.430  15.520  11.620
 1224BOLB   C2B29362  19.910  15.500  11.690
 1224BOLB   C3B29363  20.300  15.500  11.530
 1224BOLB   C4B29364  20.510  15.500  11.110
 1224BOLB   NC229365  21.570  12.250  11.910
 1224BOLB   PO229366  21.900  12.560  11.950
 1224BOLB   GL329367  21.670  12.920  11.950
 1224BOLB   GL429368  21.710  13.130  11.650
 1224BOLB   C1C29369  21.360  13.100  12.210
 1224BOLB   C2C29370  21.200  13.560  12.280
 1224BOLB   C3C29371  20.860  13.590  12.340
 1224BOLB   C4C29372  20.380  13.670  12.310
 1224BOLB   C1D29373  21.420  13.490  11.740
 1224BOLB   C2D29374  21.300  13.900  11.840
 1224BOLB   C3D29375  21.270  14.090  12.240
 1224BOLB   C4D29376  21.080  14.210  12.610
 1225BOLB   NC129377   9.460  24.760  10.240
 1225BOLB   PO129378   9.860  25.020  10.070
 1225BOLB   GL129379   9.980  25.190   9.670
 1225BOLB   GL229380   9.710  25.310   9.560
 1225BOLB   C1A29381  10.190  25.370   9.370
 1225BOLB   C2A29382  10.300  25.550   9.000
 1225BOLB   C3A29383  10.230  25.600   8.630
 1225BOLB   C4A29384  10.170  25.920   8.250
 1225BOLB   C1B29385   9.910  25.740   9.400
 1225BOLB   C2B29386   9.990  25.940   9.020
 1225BOLB   C3B29387   9.970  26.340   8.910
 1225BOLB   C4B29388  10.170  26.760   8.920
 1225BOLB   NC229389   9.440  28.080   6.520
 1225BOLB   PO229390   9.630  27.740   6.650
 1225BOLB   GL329391   9.610  27.480   7.090
 1225BOLB   GL429392   9.710  27.550   7.410
 1225BOLB   C1C29393   9.750  27.100   7.310
 1225BOLB   C2C29394   9.910  26.900   7.600
 1225BOLB   C3C29395   9.880  26.570   7.850
 1225BOLB   C4C29396  10.020  26.230   8.040
 1225BOLB   C1D29397   9.630  27.260   7.810
 1225BOLB   C2D29398   9.470  26.880   7.800
 1225BOLB   C3D29399   9.080  26.590   7.940
 1225BOLB   C4D29400   8.980  26.210   8.180
 1226BOLB   NC129401   6.300  18.120   8.160
 1226BOLB   PO129402   6.600  18.030   7.850
 1226BOLB   GL129403   6.600  17.750   7.460
 1226BOLB   GL229404   6.710  17.970   7.210
 1226BOLB   C1A29405   6.310  17.420   7.230
 1226BOLB   C2A29406   5.960  17.520   7.340
 1226BOLB   C3A29407   5.590  17.320   7.400
 1226BOLB   C4A29408   5.190  17.120   7.360
 1226BOLB   C1B29409   6.670  18.150   6.770
 1226BOLB   C2B29410   6.670  18.060   6.320
 1226BOLB   C3B29411   6.350  18.050   6.040
 1226BOLB   C4B29412   6.440  18.050   5.640
 1226BOLB   NC229413   3.270  17.900   5.180
 1226BOLB   PO229414   3.430  17.530   5.150
 1226BOLB   GL329415   3.650  17.490   5.630
 1226BOLB   GL429416   3.500  17.380   5.770
 1226BOLB   C1C29417   4.010  17.510   5.950
 1226BOLB   C2C29418   4.340  17.370   6.370
 1226BOLB   C3C29419   4.510  17.230   6.750
 1226BOLB   C4C29420   4.790  16.950   7.030
 1226BOLB   C1D29421   3.590  17.270   6.080
 1226BOLB   C2D29422   3.740  17.080   6.390
 1226BOLB   C3D29423   3.820  16.800   6.880
 1226BOLB   C4D29424   4.230  17.040   7.110
 1227BOLB   NC129425  12.820  26.290  12.550
 1227BOLB   PO129426  13.040  26.570  12.210
 1227BOLB   GL129427  13.270  26.670  11.970
 1227BOLB   GL229428  13.260  26.500  11.640
 1227BOLB   C1A29429  13.210  27.020  11.570
 1227BOLB   C2A29430  13.140  27.440  11.350
 1227BOLB   C3A29431  13.340  27.860  11.510
 1227BOLB   C4A29432  13.170  28.380  11.600
 1227BOLB   C1B29433  13.430  26.640  11.270
 1227BOLB   C2B29434  13.430  27.090  11.050
 1227BOLB   C3B29435  13.540  27.580  10.820
 1227BOLB   C4B29436  13.640  27.940  10.650
 1227BOLB   NC229437  12.500  30.340   9.880
 1227BOLB   PO229438  12.300  29.900   9.910
 1227BOLB   GL329439  12.470  29.600  10.060
 1227BOLB   GL429440  12.460  29.280   9.840
 1227BOLB   C1C29441  12.590  29.590  10.580
 1227BOLB   C2C29442  12.790  29.340  10.880
 1227BOLB   C3C29443  12.760  28.920  11.080
 1227BOLB   C4C29444  12.910  28.620  11.370
 1227BOLB   C1D29445  12.300  28.940  10.110
 1227BOLB   C2D29446  12.170  28.670  10.460
 1227BOLB   C3D29447  12.010  28.520  10.840
 1227BOLB   C4D29448  11.830  28.140  11.100
 1228BOLB   NC129449   3.860  25.550  14.530
 1228BOLB   PO129450   4.140  25.570  14.920
 1228BOLB   GL129451   3.750  25.860  14.950
 1228BOLB   GL229452   3.790  26.210  14.880
 1228BOLB   C1A29453   3.260  26.060  14.770
 1228BOLB   C2A29454   2.990  26.390  14.600
 1228BOLB   C3A29455   2.860  26.830  14.730
 1228BOLB   C4A29456   2.740  27.020  15.130
 1228BOLB   C1B29457   3.570  26.510  14.670
 1228BOLB   C2B29458   3.340  26.920  14.630
 1228BOLB   C3B29459   3.530  27.160  14.410
 1228BOLB   C4B29460   3.890  27.290  14.360
 1228BOLB   NC229461   0.310  28.320  16.050
 1228BOLB   PO229462   0.680  28.140  15.970
 1228BOLB   GL329463   1.070  28.030  15.990
 1228BOLB   GL429464   1.290  28.270  15.780
 1228BOLB   C1C29465   1.380  27.770  15.820
 1228BOLB   C2C29466   1.770  27.580  15.670
 1228BOLB   C3C29467   2.160  27.320  15.690
 1228BOLB   C4C29468   2.440  27.070  15.390
 1228BOLB   C1D29469   1.590  28.210  15.330
 1228BOLB   C2D29470   1.900  27.860  15.210
 1228BOLB   C3D29471   2.140  27.800  14.880
 1228BOLB   C4D29472   2.520  27.760  14.510
 1229BOLB   NC129473   6.680  27.210  15.230
 1229BOLB   PO129474   6.210  27.270  15.350
 1229BOLB   GL129475   6.110  27.630  15.620
 1229BOLB   GL229476   5.800  27.620  15.900
 1229BOLB   C1A29477   5.870  28.010  15.630
 1229BOLB   C2A29478   5.460  28.300  15.680
 1229BOLB   C3A29479   5.080  28.330  15.640
 1229BOLB   C4A29480   4.840  28.730  15.530
 1229BOLB   C1B29481   5.690  27.990  16.170
 1229BOLB   C2B29482   5.680  28.450  16.100
 1229BOLB   C3B29483   5.580  28.870  16.280
 1229BOLB   C4B29484   5.280  29.250  16.330
 1229BOLB   NC229485   3.490  30.450  14.830
 1229BOLB   PO229486   3.420  30.260  15.180
 1229BOLB   GL329487   3.520  29.970  15.050
 1229BOLB   GL429488   3.790  29.780  15.260
 1229BOLB   C1C29489   3.910  29.680  14.760
 1229BOLB   C2C29490   4.010  29.370  14.970
 1229BOLB   C3C29491   4.360  29.140  15.060
 1229BOLB   C4C29492   4.580  28.890  15.300
 1229BOLB   C1D29493   3.690  29.320  15.300
 1229BOLB   C2D29494   3.790  28.890  15.200
 1229BOLB   C3D29495   4.100  28.710  15.080
 1229BOLB   C4D29496   4.350  28.370  14.920
 1230BOLB   NC129497   6.600  20.390   8.600
 1230BOLB   PO129498   6.290  20.450   8.290
 1230BOLB   GL129499   6.420  20.620   7.920
 1230BOLB   GL229500   6.540  20.510   7.870
 1230BOLB   C1A29501   6.340  20.800   7.470
 1230BOLB   C2A29502   6.130  20.730   7.000
 1230BOLB   C3A29503   5.920  20.840   6.710
 1230BOLB   C4A29504   5.820  20.810   6.310
 1230BOLB   C1B29505   6.320  20.280   7.590
 1230BOLB   C2B29506   6.130  20.290   7.220
 1230BOLB   C3B29507   5.900  20.260   6.810
 1230BOLB   C4B29508   6.110  19.870   6.640
 1230BOLB   NC229509   5.130  21.480   4.450
 1230BOLB   PO229510   5.010  21.940   4.400
 1230BOLB   GL329511   5.480  21.850   4.620
 1230BOLB   GL429512   5.830  22.000   4.480
 1230BOLB   C1C29513   5.640  21.740   5.050
 1230BOLB   C2C29514   5.920  21.670   5.390
 1230BOLB   C3C29515   5.860  21.330   5.510
 1230BOLB   C4C29516   5.750  21.130   6.020
 1230BOLB   C1D29517   6.060  21.890   4.900
 1230BOLB   C2D29518   6.540  21.770   5.000
 1230BOLB   C3D29519   6.950  21.810   5.060
 1230BOLB   C4D29520   7.370  21.920   5.170
 1231BOLB   NC129521  10.750  11.560  10.530
 1231BOLB   PO129522  10.940  11.390  10.840
 1231BOLB   GL129523  10.960  11.070  10.520
 1231BOLB   GL229524  11.240  10.840  10.370
 1231BOLB   C1A29525  10.680  10.990  10.170
 1231BOLB   C2A29526  10.480  10.810   9.760
 1231BOLB   C3A29527  10.290  10.390   9.630
 1231BOLB   C4A29528  10.200  10.310   9.210
 1231BOLB   C1B29529  10.870  10.560  10.280
 1231BOLB   C2B29530  10.710  10.310   9.890
 1231BOLB   C3B29531  10.470  10.050   9.960
 1231BOLB   C4B29532  10.030   9.970   9.870
 1231BOLB   NC229533  10.680   8.500   8.230
 1231BOLB   PO229534  10.880   8.770   7.880
 1231BOLB   GL329535  10.600   9.000   8.030
 1231BOLB   GL429536  10.690   9.030   8.270
 1231BOLB   C1C29537  10.550   9.460   8.090
 1231BOLB   C2C29538  10.650   9.950   8.200
 1231BOLB   C3C29539  10.520  10.230   8.530
 1231BOLB   C4C29540  10.400  10.310   8.840
 1231BOLB   C1D29541  11.190   9.290   8.310
 1231BOLB   C2D29542  11.260   9.720   8.430
 1231BOLB   C3D29543  11.290  10.050   8.840
 1231BOLB   C4D29544  11.300  10.200   9.220
 1232BOLB   NC129545  13.230  18.770   6.640
 1232BOLB   PO129546  13.700  18.780   6.700
 1232BOLB   GL129547  13.610  18.910   6.310
 1232BOLB   GL229548  13.610  19.230   6.240
 1232BOLB   C1A29549  13.530  18.820   5.850
 1232BOLB   C2A29550  13.880  18.790   5.640
 1232BOLB   C3A29551  14.150  18.900   5.370
 1232BOLB   C4A29552  14.640  19.000   5.400
 1232BOLB   C1B29553  13.790  19.280   5.880
 1232BOLB   C2B29554  13.820  19.270   5.460
 1232BOLB   C3B29555  13.480  19.400   5.170
 1232BOLB   C4B29556  13.030  19.520   5.190
 1232BOLB   NC229557  16.140  18.300   3.320
 1232BOLB   PO229558  16.380  18.710   3.450
 1232BOLB   GL329559  16.310  18.860   3.920
 1232BOLB   GL429560  16.260  19.170   4.070
 1232BOLB   C1C29561  15.880  18.850   4.200
 1232BOLB   C2C29562  15.590  18.740   4.550
 1232BOLB   C3C29563  15.280  18.900   4.980
 1232BOLB   C4C29564  15.080  18.990   5.290
 1232BOLB   C1D29565  16.140  19.180   4.480
 1232BOLB   C2D29566  16.140  19.340   4.890
 1232BOLB   C3D29567  15.850  19.270   5.270
 1232BOLB   C4D29568  15.470  19.270   5.480
 1233BOLB   NC129569   1.900  20.430  17.160
 1233BOLB   PO129570   1.670  20.100  17.120
 1233BOLB   GL129571   1.270  20.030  17.360
 1233BOLB   GL229572   1.120  20.230  17.470
 1233BOLB   C1A29573   0.820  20.000  17.200
 1233BOLB   C2A29574   0.420  20.020  17.000
 1233BOLB   C3A29575   0.390  19.850  16.620
 1233BOLB   C4A29576   0.100  19.660  16.380
 1233BOLB   C1B29577   1.000  20.320  17.850
 1233BOLB   C2B29578   0.930  20.720  18.070
 1233BOLB   C3B29579   0.910  21.080  17.840
 1233BOLB   C4B29580   1.040  21.400  17.980
 1233BOLB   NC229581  33.930  19.950  16.090
 1233BOLB   PO229582  33.940  19.570  16.250
 1233BOLB   GL329583  34.320  19.600  16.170
 1233BOLB   GL429584  34.490  19.660  15.860
 1233BOLB   C1C29585  34.780  19.500  16.290
 1233BOLB   C2C29586  35.230  19.480  16.220
 1233BOLB   C3C29587  35.690  19.350  16.120
 1233BOLB   C4C29588  36.090  19.370  16.430
 1233BOLB   C1D29589  34.800  19.470  15.610
 1233BOLB   C2D29590  35.030  19.170  15.900
 1233BOLB   C3D29591  35.310  18.940  16.230
 1233BOLB   C4D29592  35.230  19.190  16.590
 1234BOLB   NC129593   3.350  23.900  12.200
 1234BOLB   PO129594   3.130  24.130  12.570
 1234BOLB   GL129595   2.920  24.520  12.520
 1234BOLB   GL229596   3.090  24.680  12.380
 1234BOLB   C1A29597   2.550  24.810  12.330
 1234BOLB   C2A29598   2.320  24.890  11.980
 1234BOLB   C3A29599   2.110  24.830  11.520
 1234BOLB   C4A29600   1.930  25.010  11.010
 1234BOLB   C1B29601   3.040  25.050  12.190
 1234BOLB   C2B29602   2.900  25.330  12.060
 1234BOLB   C3B29603   2.660  25.650  12.110
 1234BOLB   C4B29604   2.400  25.830  12.280
 1234BOLB   NC229605   1.540  26.960   9.630
 1234BOLB   PO229606   1.170  27.120   9.820
 1234BOLB   GL329607   1.500  26.720  10.090
 1234BOLB   GL429608   1.650  26.810  10.290
 1234BOLB   C1C29609   1.490  26.310  10.320
 1234BOLB   C2C29610   1.770  25.960  10.310
 1234BOLB   C3C29611   1.930  25.610  10.570
 1234BOLB   C4C29612   2.120  25.310  10.780
 1234BOLB   C1D29613   1.910  26.520  10.490
 1234BOLB   C2D29614   2.090  26.040  10.710
 1234BOLB   C3D29615   2.270  25.710  11.100
 1234BOLB   C4D29616   2.280  25.240  11.250
 1235BOLB   NC129617  13.880  21.010   7.220
 1235BOLB   PO129618  13.500  20.870   7.130
 1235BOLB   GL129619  13.680  20.960   6.730
 1235BOLB   GL229620  13.420  20.770   6.560
 1235BOLB   C1A29621  13.820  21.330   6.540
 1235BOLB   C2A29622  13.930  21.520   6.140
 1235BOLB   C3A29623  13.840  21.920   5.980
 1235BOLB   C4A29624  13.490  21.990   5.840
 1235BOLB   C1B29625  13.210  20.870   6.220
 1235BOLB   C2B29626  13.030  21.170   5.950
 1235BOLB   C3B29627  13.110  21.450   5.660
 1235BOLB   C4B29628  13.170  21.460   5.090
 1235BOLB   NC229629  14.250  21.890   3.610
 1235BOLB   PO229630  13.820  22.070   3.480
 1235BOLB   GL329631  13.820  22.080   3.900
 1235BOLB   GL429632  14.080  22.160   3.990
 1235BOLB   C1C29633  13.670  22.160   4.340
 1235BOLB   C2C29634  13.330  22.150   4.610
 1235BOLB   C3C29635  13.380  22.360   5.080
 1235BOLB   C4C29636  13.390  22.240   5.510
 1235BOLB   C1D29637  13.930  21.780   4.290
 1235BOLB   C2D29638  13.840  21.930   4.700
 1235BOLB   C3D29639  13.490  21.920   5.070
 1235BOLB   C4D29640  13.430  21.780   5.410
 1236BOLB   NC129641   2.540  24.050  13.650
 1236BOLB   PO129642   2.180  24.160  13.860
 1236BOLB   GL129643   1.860  24.360  13.620
 1236BOLB   GL229644   1.590  24.310  13.860
 1236BOLB   C1A29645   1.920  24.680  13.470
 1236BOLB   C2A29646   1.690  24.990  13.540
 1236BOLB   C3A29647   1.360  25.390  13.560
 1236BOLB   C4A29648   1.420  25.750  13.220
 1236BOLB   C1B29649   1.520  24.730  13.900
 1236BOLB   C2B29650   1.230  25.180  13.960
 1236BOLB   C3B29651   0.900  25.390  14.140
 1236BOLB   C4B29652   0.480  25.490  14.310
 1236BOLB   NC229653   0.090  27.150  12.860
 1236BOLB   PO229654   0.490  27.200  12.980
 1236BOLB   GL329655   0.250  27.040  13.410
 1236BOLB   GL429656   0.170  26.810  13.540
 1236BOLB   C1C29657   0.670  27.030  13.630
 1236BOLB   C2C29658   1.000  26.770  13.590
 1236BOLB   C3C29659   1.340  26.540  13.500
 1236BOLB   C4C29660   1.510  26.160  13.300
 1236BOLB   C1D29661   0.550  26.620  13.370
 1236BOLB   C2D29662   0.580  26.300  13.040
 1236BOLB   C3D29663   0.290  25.980  12.900
 1236BOLB   C4D29664  36.340  25.620  12.700
 1237BOLB   NC129665  17.680  18.070  20.030
 1237BOLB   PO129666  17.860  18.480  19.990
 1237BOLB   GL129667  18.300  18.600  20.050
 1237BOLB   GL229668  18.630  18.610  19.850
 1237BOLB   C1A29669  18.720  18.600  20.340
 1237BOLB   C2A29670  19.180  18.630  20.330
 1237BOLB   C3A29671  19.610  18.510  20.370
 1237BOLB   C4A29672  19.780  18.220  20.630
 1237BOLB   C1B29673  18.990  18.530  19.720
 1237BOLB   C2B29674  19.370  18.410  19.880
 1237BOLB   C3B29675  19.810  18.330  19.960
 1237BOLB   C4B29676  20.290  18.440  20.030
 1237BOLB   NC229677  20.890  16.220  22.140
 1237BOLB   PO229678  20.800  16.280  21.710
 1237BOLB   GL329679  20.790  16.470  21.400
 1237BOLB   GL429680  20.690  16.350  21.210
 1237BOLB   C1C29681  20.680  16.810  21.100
 1237BOLB   C2C29682  20.520  17.290  20.980
 1237BOLB   C3C29683  20.360  17.710  21.060
 1237BOLB   C4C29684  20.030  17.970  20.910
 1237BOLB   C1D29685  20.510  16.050  20.880
 1237BOLB   C2D29686  20.580  16.000  20.510
 1237BOLB   C3D29687  20.320  16.200  20.210
 1237BOLB   C4D29688  20.120  16.010  19.810
 1238BOLB   NC129689  15.570  17.420   7.700
 1238BOLB   PO129690  15.280  17.550   7.420
 1238BOLB   GL129691  15.560  17.670   7.160
 1238BOLB   GL229692  15.870  17.650   7.350
 1238BOLB   C1A29693  15.850  17.370   6.940
 1238BOLB   C2A29694  16.030  17.500   6.560
 1238BOLB   C3A29695  16.310  17.500   6.220
 1238BOLB   C4A29696  16.420  17.330   5.820
 1238BOLB   C1B29697  16.220  17.680   6.990
 1238BOLB   C2B29698  16.350  17.870   6.660
 1238BOLB   C3B29699  16.530  18.130   6.310
 1238BOLB   C4B29700  16.830  18.250   5.920
 1238BOLB   NC229701  17.140  15.830   4.070
 1238BOLB   PO229702  17.040  15.620   4.510
 1238BOLB   GL329703  16.880  15.900   4.620
 1238BOLB   GL429704  16.540  15.740   4.590
 1238BOLB   C1C29705  16.600  16.230   4.810
 1238BOLB   C2C29706  16.590  16.280   5.330
 1238BOLB   C3C29707  16.460  16.580   5.670
 1238BOLB   C4C29708  16.500  16.950   5.800
 1238BOLB   C1D29709  16.230  15.900   4.850
 1238BOLB   C2D29710  15.880  16.040   4.850
 1238BOLB   C3D29711  15.390  15.990   4.770
 1238BOLB   C4D29712  15.080  16.310   4.870
 1239BOLB   NC129713   7.210  25.500  20.160
 1239BOLB   PO129714   7.330  25.850  19.980
 1239BOLB   GL129715   7.410  26.130  20.270
 1239BOLB   GL229716   7.140  26.360  20.130
 1239BOLB   C1A29717   7.270  26.280  20.640
 1239BOLB   C2A29718   7.110  26.700  20.870
 1239BOLB   C3A29719   7.060  27.100  20.930
 1239BOLB   C4A29720   6.810  27.440  20.750
 1239BOLB   C1B29721   7.200  26.690  20.330
 1239BOLB   C2B29722   7.350  27.160  20.500
 1239BOLB   C3B29723   7.640  27.510  20.410
 1239BOLB   C4B29724   7.630  27.920  20.520
 1239BOLB   NC229725   4.680  29.110  21.150
 1239BOLB   PO229726   4.910  29.290  20.770
 1239BOLB   GL329727   5.330  29.120  20.620
 1239BOLB   GL429728   5.620  29.400  20.450
 1239BOLB   C1C29729   5.640  28.800  20.570
 1239BOLB   C2C29730   5.990  28.640  20.790
 1239BOLB   C3C29731   6.250  28.200  20.760
 1239BOLB   C4C29732   6.640  27.890  20.600
 1239BOLB   C1D29733   6.070  29.160  20.290
 1239BOLB   C2D29734   6.480  28.930  20.370
 1239BOLB   C3D29735   6.710  28.590  20.300
 1239BOLB   C4D29736   6.440  28.170  20.190
 1240BOLB   NC129737  13.530  22.600   7.660
 1240BOLB   PO129738  13.280  22.840   7.970
 1240BOLB   GL129739  13.250  22.950   7.490
 1240BOLB   GL229740  13.260  23.230   7.550
 1240BOLB   C1A29741  13.260  23.030   7.090
 1240BOLB   C2A29742  13.340  23.290   6.610
 1240BOLB   C3A29743  13.660  23.540   6.460
 1240BOLB   C4A29744  14.130  23.720   6.390
 1240BOLB   C1B29745  13.380  23.500   7.260
 1240BOLB   C2B29746  13.340  23.840   7.030
 1240BOLB   C3B29747  13.500  24.090   6.640
 1240BOLB   C4B29748  13.530  24.460   6.440
 1240BOLB   NC229749  15.250  25.150   4.410
 1240BOLB   PO229750  15.380  24.880   4.740
 1240BOLB   GL329751  15.240  24.960   5.250
 1240BOLB   GL429752  15.060  25.310   5.340
 1240BOLB   C1C29753  14.990  24.870   5.600
 1240BOLB   C2C29754  14.830  24.590   5.920
 1240BOLB   C3C29755  14.630  24.440   6.270
 1240BOLB   C4C29756  14.280  24.110   6.390
 1240BOLB   C1D29757  15.190  25.430   5.730
 1240BOLB   C2D29758  14.940  25.190   6.210
 1240BOLB   C3D29759  15.200  24.780   6.230
 1240BOLB   C4D29760  15.530  24.540   6.120
 1241BOLB   NC129761   9.480  26.350  12.130
 1241BOLB   PO129762   9.460  26.120  11.820
 1241BOLB   GL129763   9.480  26.560  11.660
 1241BOLB   GL229764   9.880  26.590  11.790
 1241BOLB   C1A29765   9.500  27.130  11.620
 1241BOLB   C2A29766   9.370  27.560  11.570
 1241BOLB   C3A29767   9.450  28.010  11.330
 1241BOLB   C4A29768   9.310  28.360  11.150
 1241BOLB   C1B29769   9.840  26.620  11.300
 1241BOLB   C2B29770   9.600  26.960  11.140
 1241BOLB   C3B29771   9.560  27.380  11.160
 1241BOLB   C4B29772   9.130  27.610  11.150
 1241BOLB   NC229773  10.500  29.820   9.920
 1241BOLB   PO229774  10.380  30.100  10.150
 1241BOLB   GL329775  10.630  29.720  10.360
 1241BOLB   GL429776  10.510  29.850  10.620
 1241BOLB   C1C29777  10.370  29.340  10.480
 1241BOLB   C2C29778  10.020  29.230  10.760
 1241BOLB   C3C29779   9.700  29.070  11.170
 1241BOLB   C4C29780   9.440  28.760  11.170
 1241BOLB   C1D29781  10.940  29.770  10.800
 1241BOLB   C2D29782  11.240  29.500  10.950
 1241BOLB   C3D29783  11.150  29.080  11.120
 1241BOLB   C4D29784  11.260  28.700  11.170
 1242BOLB   NC129785   6.430  21.660   9.020
 1242BOLB   PO129786   6.430  21.580   8.580
 1242BOLB   GL129787   6.210  21.770   8.330
 1242BOLB   GL229788   5.910  21.890   8.320
 1242BOLB   C1A29789   6.170  21.880   7.900
 1242BOLB   C2A29790   6.000  22.050   7.610
 1242BOLB   C3A29791   5.660  22.370   7.610
 1242BOLB   C4A29792   5.300  22.490   7.500
 1242BOLB   C1B29793   5.580  21.860   7.900
 1242BOLB   C2B29794   5.390  21.890   7.560
 1242BOLB   C3B29795   5.000  22.120   7.290
 1242BOLB   C4B29796   4.730  22.330   7.070
 1242BOLB   NC229797   3.920  23.890   5.670
 1242BOLB   PO229798   4.080  23.540   5.370
 1242BOLB   GL329799   4.230  23.420   5.790
 1242BOLB   GL429800   4.510  23.380   5.710
 1242BOLB   C1C29801   4.330  23.240   6.130
 1242BOLB   C2C29802   4.590  23.030   6.510
 1242BOLB   C3C29803   4.790  22.800   6.800
 1242BOLB   C4C29804   5.120  22.640   7.050
 1242BOLB   C1D29805   4.850  23.410   6.000
 1242BOLB   C2D29806   5.070  23.230   6.280
 1242BOLB   C3D29807   5.430  23.050   6.530
 1242BOLB   C4D29808   5.760  23.280   6.830
 1243BOLB   NC129809   7.430  23.020   9.100
 1243BOLB   PO129810   7.110  22.980   8.830
 1243BOLB   GL129811   7.100  23.280   8.660
 1243BOLB   GL229812   7.300  23.420   8.280
 1243BOLB   C1A29813   6.790  23.430   8.450
 1243BOLB   C2A29814   6.600  23.760   8.290
 1243BOLB   C3A29815   6.270  23.940   7.940
 1243BOLB   C4A29816   5.940  23.790   7.670
 1243BOLB   C1B29817   6.970  23.560   7.960
 1243BOLB   C2B29818   6.850  23.960   7.780
 1243BOLB   C3B29819   6.560  24.240   7.620
 1243BOLB   C4B29820   6.320  24.500   7.880
 1243BOLB   NC229821   5.030  24.880   5.360
 1243BOLB   PO229822   5.430  24.570   5.690
 1243BOLB   GL329823   5.350  24.080   5.810
 1243BOLB   GL429824   5.580  24.040   5.910
 1243BOLB   C1C29825   5.220  23.800   6.200
 1243BOLB   C2C29826   5.440  23.550   6.510
 1243BOLB   C3C29827   5.540  23.690   6.990
 1243BOLB   C4C29828   5.810  23.710   7.220
 1243BOLB   C1D29829   5.870  23.780   6.080
 1243BOLB   C2D29830   5.920  23.410   6.240
 1243BOLB   C3D29831   6.130  23.010   6.420
 1243BOLB   C4D29832   6.210  23.090   6.820
 1244BOLB   NC129833  12.320  12.410   9.560
 1244BOLB   PO129834  12.510  12.730   9.630
 1244BOLB   GL129835  12.590  12.540   9.150
 1244BOLB   GL229836  12.730  12.130   9.250
 1244BOLB   C1A29837  12.570  12.330   8.760
 1244BOLB   C2A29838  12.490  12.390   8.370
 1244BOLB   C3A29839  12.500  12.230   8.070
 1244BOLB   C4A29840  12.580  11.910   7.830
 1244BOLB   C1B29841  12.570  11.910   9.030
 1244BOLB   C2B29842  12.540  11.780   8.720
 1244BOLB   C3B29843  12.420  11.460   8.620
 1244BOLB   C4B29844  12.400  11.030   8.610
 1244BOLB   NC229845  13.420  10.550   5.890
 1244BOLB   PO229846  13.410  10.880   5.570
 1244BOLB   GL329847  13.180  10.980   5.950
 1244BOLB   GL429848  12.980  10.770   6.160
 1244BOLB   C1C29849  13.280  11.150   6.220
 1244BOLB   C2C29850  13.200  11.480   6.610
 1244BOLB   C3C29851  13.010  11.610   7.050
 1244BOLB   C4C29852  12.660  11.770   7.390
 1244BOLB   C1D29853  12.800  11.070   6.390
 1244BOLB   C2D29854  12.530  11.250   6.660
 1244BOLB   C3D29855  12.500  11.440   7.020
 1244BOLB   C4D29856  12.320  11.380   7.460
 1245BOLB   NC129857   7.170  24.300   9.880
 1245BOLB   PO129858   7.020  24.710  10.060
 1245BOLB   GL129859   6.930  24.790   9.700
 1245BOLB   GL229860   6.980  24.570   9.380
 1245BOLB   C1A29861   6.630  25.090   9.450
 1245BOLB   C2A29862   6.520  25.420   9.300
 1245BOLB   C3A29863   6.110  25.510   9.070
 1245BOLB   C4A29864   5.890  25.920   9.090
 1245BOLB   C1B29865   6.870  24.900   9.060
 1245BOLB   C2B29866   6.870  25.160   8.760
 1245BOLB   C3B29867   6.880  25.200   8.340
 1245BOLB   C4B29868   6.970  24.790   8.180
 1245BOLB   NC229869   4.490  27.190   8.110
 1245BOLB   PO229870   4.910  27.280   7.940
 1245BOLB   GL329871   5.010  27.300   8.390
 1245BOLB   GL429872   4.820  27.350   8.640
 1245BOLB   C1C29873   5.230  26.990   8.720
 1245BOLB   C2C29874   5.620  26.980   8.900
 1245BOLB   C3C29875   5.940  26.720   9.090
 1245BOLB   C4C29876   6.120  26.400   9.300
 1245BOLB   C1D29877   4.810  27.130   8.980
 1245BOLB   C2D29878   4.780  27.100   9.320
 1245BOLB   C3D29879   4.980  26.840   9.560
 1245BOLB   C4D29880   5.030  26.360   9.490
 1246BOLB   NC129881   6.990  19.950   8.530
 1246BOLB   PO129882   6.770  19.780   8.100
 1246BOLB   GL129883   6.690  19.990   7.710
 1246BOLB   GL229884   6.850  20.320   7.590
 1246BOLB   C1A29885   6.590  20.040   7.320
 1246BOLB   C2A29886   6.460  19.980   6.950
 1246BOLB   C3A29887   6.560  19.950   6.440
 1246BOLB   C4A29888   6.640  20.070   6.050
 1246BOLB   C1B29889   6.870  20.590   7.270
 1246BOLB   C2B29890   6.630  20.780   7.030
 1246BOLB   C3B29891   6.420  21.030   6.650
 1246BOLB   C4B29892   6.470  20.970   6.240
 1246BOLB   NC229893   7.390  20.650   3.720
 1246BOLB   PO229894   7.190  20.240   3.740
 1246BOLB   GL329895   7.080  20.070   4.150
 1246BOLB   GL429896   7.350  19.890   4.260
 1246BOLB   C1C29897   6.720  20.030   4.540
 1246BOLB   C2C29898   6.860  20.150   4.960
 1246BOLB   C3C29899   6.760  20.260   5.320
 1246BOLB   C4C29900   6.560  20.030   5.640
 1246BOLB   C1D29901   7.560  19.640   4.560
 1246BOLB   C2D29902   7.520  19.390   5.010
 1246BOLB   C3D29903   7.350  19.090   5.340
 1246BOLB   C4D29904   6.960  19.090   5.400
 1247BOLB   NC129905   9.870  10.690  14.390
 1247BOLB   PO129906   9.890  10.930  14.860
 1247BOLB   GL129907  10.050  10.530  14.820
 1247BOLB   GL229908  10.370  10.440  14.690
 1247BOLB   C1A29909  10.130  10.080  14.910
 1247BOLB   C2A29910  10.300   9.630  15.020
 1247BOLB   C3A29911  10.360   9.220  14.940
 1247BOLB   C4A29912  10.540   8.770  14.870
 1247BOLB   C1B29913  10.300  10.100  14.410
 1247BOLB   C2B29914  10.230   9.790  14.140
 1247BOLB   C3B29915  10.340   9.440  14.020
 1247BOLB   C4B29916  10.140   9.010  14.070
 1247BOLB   NC229917  11.130   6.520  13.620
 1247BOLB   PO229918  11.230   6.540  14.080
 1247BOLB   GL329919  11.090   6.990  14.170
 1247BOLB   GL429920  11.180   6.960  14.460
 1247BOLB   C1C29921  11.040   7.450  14.190
 1247BOLB   C2C29922  10.870   7.860  14.270
 1247BOLB   C3C29923  10.640   8.190  14.350
 1247BOLB   C4C29924  10.690   8.450  14.650
 1247BOLB   C1D29925  11.260   7.330  14.580
 1247BOLB   C2D29926  11.390   7.650  14.710
 1247BOLB   C3D29927  11.780   7.650  14.780
 1247BOLB   C4D29928  11.990   7.460  15.110
 1248BOLB   NC129929  12.150  19.740   6.980
 1248BOLB   PO129930  11.800  20.080   7.010
 1248BOLB   GL129931  11.770  20.370   6.590
 1248BOLB   GL229932  11.960  20.620   6.530
 1248BOLB   C1A29933  11.610  20.580   6.170
 1248BOLB   C2A29934  11.670  20.670   5.740
 1248BOLB   C3A29935  11.920  20.720   5.360
 1248BOLB   C4A29936  12.020  20.950   4.940
 1248BOLB   C1B29937  12.130  20.640   6.100
 1248BOLB   C2B29938  12.180  20.800   5.770
 1248BOLB   C3B29939  12.240  21.170   5.610
 1248BOLB   C4B29940  12.250  21.330   5.180
 1248BOLB   NC229941  12.340  20.910   2.980
 1248BOLB   PO229942  12.090  21.230   2.800
 1248BOLB   GL329943  11.960  21.230   3.140
 1248BOLB   GL429944  12.080  21.360   3.460
 1248BOLB   C1C29945  11.570  21.110   3.410
 1248BOLB   C2C29946  11.600  20.970   3.760
 1248BOLB   C3C29947  11.770  20.880   4.160
 1248BOLB   C4C29948  11.870  21.000   4.540
 1248BOLB   C1D29949  12.220  21.020   3.720
 1248BOLB   C2D29950  12.280  20.730   4.040
 1248BOLB   C3D29951  12.230  20.660   4.480
 1248BOLB   C4D29952  11.990  20.490   4.740
 1249BOLB   NC129953   7.870   7.180  12.940
 1249BOLB   PO129954   7.510   6.980  12.780
 1249BOLB   GL129955   7.560   7.480  12.670
 1249BOLB   GL229956   7.760   7.720  12.730
 1249BOLB   C1A29957   7.730   7.660  12.210
 1249BOLB   C2A29958   7.630   7.910  11.930
 1249BOLB   C3A29959   7.570   8.220  11.690
 1249BOLB   C4A29960   7.380   8.580  11.690
 1249BOLB   C1B29961   8.000   8.010  12.580
 1249BOLB   C2B29962   7.960   8.450  12.700
 1249BOLB   C3B29963   7.920   8.840  12.500
 1249BOLB   C4B29964   7.660   9.010  12.160
 1249BOLB   NC229965   6.120   8.680  10.050
 1249BOLB   PO229966   6.390   8.540   9.820
 1249BOLB   GL329967   6.850   8.730   9.830
 1249BOLB   GL429968   6.950   8.900   9.670
 1249BOLB   C1C29969   7.140   8.770  10.110
 1249BOLB   C2C29970   6.970   8.760  10.530
 1249BOLB   C3C29971   6.950   8.700  11.020
 1249BOLB   C4C29972   7.250   8.740  11.320
 1249BOLB   C1D29973   6.960   9.280   9.950
 1249BOLB   C2D29974   6.780   9.370  10.420
 1249BOLB   C3D29975   6.810   9.900  10.490
 1249BOLB   C4D29976   6.790  10.320  10.620
 1250BOLB   NC129977  13.600  11.510  13.710
 1250BOLB   PO129978  13.600  11.030  13.830
 1250BOLB   GL129979  13.610  10.610  13.990
 1250BOLB   GL229980  13.350  10.470  14.240
 1250BOLB   C1A29981  13.850  10.280  13.820
 1250BOLB   C2A29982  14.120   9.990  13.560
 1250BOLB   C3A29983  14.330  10.190  13.210
 1250BOLB   C4A29984  14.290  10.090  12.780
 1250BOLB   C1B29985  13.280  10.130  13.930
 1250BOLB   C2B29986  13.660   9.820  13.720
 1250BOLB   C3B29987  13.950   9.460  13.760
 1250BOLB   C4B29988  14.080   9.040  13.740
 1250BOLB   NC229989  15.490   7.860  11.770
 1250BOLB   PO229990  15.100   7.890  12.040
 1250BOLB   GL329991  15.000   8.120  12.340
 1250BOLB   GL429992  15.080   8.080  12.630
 1250BOLB   C1C29993  15.090   8.610  12.460
 1250BOLB   C2C29994  14.990   8.960  12.630
 1250BOLB   C3C29995  14.690   9.270  12.670
 1250BOLB   C4C29996  14.350   9.610  12.620
 1250BOLB   C1D29997  14.780   8.400  12.830
 1250BOLB   C2D29998  14.550   8.790  12.740
 1250BOLB   C3D29999  14.240   9.140  12.660
 1250BOLB   C4D30000  14.030   9.330  12.270
 1251BOLB   NC130001  13.040  27.140  13.340
 1251BOLB   PO130002  13.050  27.330  13.730
 1251BOLB   GL130003  13.000  27.650  13.540
 1251BOLB   GL230004  13.000  27.670  13.270
 1251BOLB   C1A30005  13.020  28.130  13.550
 1251BOLB   C2A30006  13.230  28.500  13.520
 1251BOLB   C3A30007  13.210  28.940  13.390
 1251BOLB   C4A30008  13.360  29.310  13.200
 1251BOLB   C1B30009  13.060  27.960  12.940
 1251BOLB   C2B30010  13.120  28.410  12.610
 1251BOLB   C3B30011  13.340  28.700  12.440
 1251BOLB   C4B30012  13.300  28.890  12.080
 1251BOLB   NC230013  14.200  30.930  11.750
 1251BOLB   PO230014  13.880  31.020  11.460
 1251BOLB   GL330015  13.660  30.540  11.650
 1251BOLB   GL430016  13.330  30.600  11.840
 1251BOLB   C1C30017  13.540  30.130  11.840
 1251BOLB   C2C30018  13.650  29.720  12.000
 1251BOLB   C3C30019  13.820  29.550  12.440
 1251BOLB   C4C30020  13.700  29.420  12.850
 1251BOLB   C1D30021  13.270  30.370  12.200
 1251BOLB   C2D30022  13.170  30.110  12.360
 1251BOLB   C3D30023  13.290  29.720  12.370
 1251BOLB   C4D30024  13.390  29.320  12.270
 1252BOLB   NC130025   3.330  15.320   5.700
 1252BOLB   PO130026   3.680  15.200   5.270
 1252BOLB   GL130027   3.860  15.400   5.560
 1252BOLB   GL230028   3.770  15.550   5.840
 1252BOLB   C1A30029   4.210  15.410   5.850
 1252BOLB   C2A30030   4.420  15.720   6.100
 1252BOLB   C3A30031   4.760  15.930   6.430
 1252BOLB   C4A30032   5.170  16.160   6.690
 1252BOLB   C1B30033   3.980  15.960   6.080
 1252BOLB   C2B30034   4.200  16.150   6.410
 1252BOLB   C3B30035   4.620  16.420   6.360
 1252BOLB   C4B30036   4.880  16.750   6.540
 1252BOLB   NC230037   6.330  17.650   7.940
 1252BOLB   PO230038   6.770  17.500   7.880
 1252BOLB   GL330039   6.530  17.090   7.640
 1252BOLB   GL430040   6.210  17.220   7.760
 1252BOLB   C1C30041   6.420  16.760   7.310
 1252BOLB   C2C30042   6.170  16.480   7.070
 1252BOLB   C3C30043   6.010  16.270   6.780
 1252BOLB   C4C30044   5.630  16.160   6.580
 1252BOLB   C1D30045   6.000  17.040   7.360
 1252BOLB   C2D30046   5.970  17.230   6.930
 1252BOLB   C3D30047   5.750  17.370   6.490
 1252BOLB   C4D30048   5.290  17.340   6.260
 1253BOLB   NC130049  16.260  12.260  15.550
 1253BOLB   PO130050  16.480  12.620  15.560
 1253BOLB   GL130051  16.790  12.280  15.480
 1253BOLB   GL230052  16.720  12.140  15.770
 1253BOLB   C1A30053  17.160  11.960  15.380
 1253BOLB   C2A30054  17.310  11.590  15.290
 1253BOLB   C3A30055  17.550  11.250  15.300
 1253BOLB   C4A30056  17.880  11.100  15.600
 1253BOLB   C1B30057  16.980  11.700  15.770
 1253BOLB   C2B30058  16.890  11.300  15.630
 1253BOLB   C3B30059  16.790  10.930  15.480
 1253BOLB   C4B30060  16.450  10.560  15.450
 1253BOLB   NC230061  19.040   8.860  15.900
 1253BOLB   PO230062  19.190   9.230  16.170
 1253BOLB   GL330063  19.090   9.650  16.180
 1253BOLB   GL430064  19.420   9.850  15.980
 1253BOLB   C1C30065  18.790  10.050  16.190
 1253BOLB   C2C30066  18.370  10.250  16.250
 1253BOLB   C3C30067  18.220  10.590  16.080
 1253BOLB   C4C30068  18.090  10.930  15.910
 1253BOLB   C1D30069  19.230  10.230  15.770
 1253BOLB   C2D30070  19.160  10.670  15.650
 1253BOLB   C3D30071  19.080  11.110  15.580
 1253BOLB   C4D30072  18.910  11.450  15.900
 1254BOLB   NC130073  10.160  23.160   8.670
 1254BOLB   PO130074  10.460  23.390   8.860
 1254BOLB   GL130075  10.260  23.590   8.470
 1254BOLB   GL230076  10.310  23.500   8.210
 1254BOLB   C1A30077  10.010  23.920   8.240
 1254BOLB   C2A30078   9.690  24.240   8.050
 1254BOLB   C3A30079   9.540  24.440   7.660
 1254BOLB   C4A30080   9.200  24.620   7.340
 1254BOLB   C1B30081  10.000  23.630   7.850
 1254BOLB   C2B30082   9.820  23.930   7.530
 1254BOLB   C3B30083   9.860  24.260   7.310
 1254BOLB   C4B30084   9.730  24.680   7.270
 1254BOLB   NC230085  10.070  26.450   5.690
 1254BOLB   PO230086   9.710  26.270   5.780
 1254BOLB   GL330087   9.370  25.980   5.930
 1254BOLB   GL430088   9.100  25.750   5.780
 1254BOLB   C1C30089   9.520  25.710   6.190
 1254BOLB   C2C30090   9.620  25.360   6.500
 1254BOLB   C3C30091   9.620  25.150   6.780
 1254BOLB   C4C30092   9.360  24.890   7.020
 1254BOLB   C1D30093   9.210  25.300   5.970
 1254BOLB   C2D30094   9.190  25.080   6.340
 1254BOLB   C3D30095   9.060  24.740   6.620
 1254BOLB   C4D30096   8.910  24.430   6.870
 1255BOLB   NC130097  13.700  26.770  15.280
 1255BOLB   PO130098  13.720  27.160  14.970
 1255BOLB   GL130099  13.840  27.480  14.720
 1255BOLB   GL230100  13.580  27.720  14.750
 1255BOLB   C1A30101  14.100  27.850  14.650
 1255BOLB   C2A30102  14.260  28.260  14.760
 1255BOLB   C3A30103  14.350  28.590  14.910
 1255BOLB   C4A30104  14.580  28.960  15.060
 1255BOLB   C1B30105  13.920  27.990  15.050
 1255BOLB   C2B30106  13.970  28.460  15.190
 1255BOLB   C3B30107  14.110  28.770  15.430
 1255BOLB   C4B30108  14.270  29.090  15.540
 1255BOLB   NC230109  15.540  31.230  14.290
 1255BOLB   PO230110  15.830  31.060  13.990
 1255BOLB   GL330111  15.520  30.700  14.110
 1255BOLB   GL430112  15.270  30.710  13.810
 1255BOLB   C1C30113  15.330  30.320  14.320
 1255BOLB   C2C30114  14.980  30.070  14.300
 1255BOLB   C3C30115  14.770  29.780  14.600
 1255BOLB   C4C30116  14.590  29.390  14.740
 1255BOLB   C1D30117  15.140  30.240  13.800
 1255BOLB   C2D30118  14.980  29.870  13.520
 1255BOLB   C3D30119  14.640  29.530  13.740
 1255BOLB   C4D30120  14.200  29.520  13.860
 1256BOLB   NC130121  14.890  19.870   7.880
 1256BOLB   PO130122  15.050  20.320   7.770
 1256BOLB   GL130123  15.280  20.600   7.410
 1256BOLB   GL230124  15.340  20.850   7.380
 1256BOLB   C1A30125  15.580  20.510   7.100
 1256BOLB   C2A30126  15.810  20.630   6.720
 1256BOLB   C3A30127  16.180  20.710   6.550
 1256BOLB   C4A30128  16.590  20.960   6.350
 1256BOLB   C1B30129  15.580  21.030   7.020
 1256BOLB   C2B30130  15.790  21.170   6.610
 1256BOLB   C3B30131  15.840  21.030   6.240
 1256BOLB   C4B30132  15.690  21.240   5.940
 1256BOLB   NC230133  18.290  21.700   4.960
 1256BOLB   PO230134  17.920  21.530   4.660
 1256BOLB   GL330135  17.790  21.580   5.040
 1256BOLB   GL430136  17.930  21.750   5.340
 1256BOLB   C1C30137  17.390  21.550   5.230
 1256BOLB   C2C30138  17.080  21.660   5.570
 1256BOLB   C3C30139  17.040  21.590   5.990
 1256BOLB   C4C30140  16.790  21.160   6.020
 1256BOLB   C1D30141  17.960  21.750   5.800
 1256BOLB   C2D30142  18.000  21.730   6.210
 1256BOLB   C3D30143  17.750  21.560   6.640
 1256BOLB   C4D30144  17.800  21.560   7.150
 1257BOLB   NC130145  14.100  11.260  12.700
 1257BOLB   PO130146  14.050  11.250  13.130
 1257BOLB   GL130147  14.090  10.970  13.520
 1257BOLB   GL230148  13.740  10.640  13.450
 1257BOLB   C1A30149  14.180  10.570  13.560
 1257BOLB   C2A30150  14.460  10.280  13.690
 1257BOLB   C3A30151  14.850  10.050  13.480
 1257BOLB   C4A30152  15.170   9.890  13.220
 1257BOLB   C1B30153  13.920  10.490  13.060
 1257BOLB   C2B30154  13.810  10.210  12.750
 1257BOLB   C3B30155  13.860   9.910  12.490
 1257BOLB   C4B30156  14.270   9.910  12.170
 1257BOLB   NC230157  17.110   8.300  13.090
 1257BOLB   PO230158  16.760   8.130  13.280
 1257BOLB   GL330159  16.550   8.480  13.450
 1257BOLB   GL430160  16.270   8.420  13.340
 1257BOLB   C1C30161  16.540   8.890  13.330
 1257BOLB   C2C30162  16.240   9.300  13.350
 1257BOLB   C3C30163  15.750   9.580  13.340
 1257BOLB   C4C30164  15.390   9.690  13.290
 1257BOLB   C1D30165  16.000   8.830  13.430
 1257BOLB   C2D30166  15.860   9.090  13.590
 1257BOLB   C3D30167  15.560   9.310  13.740
 1257BOLB   C4D30168  15.230   9.620  13.830
 1258BOLB   NC130169  13.730  12.510  10.490
 1258BOLB   PO130170  14.200  12.530  10.630
 1258BOLB   GL130171  14.340  12.130  10.400
 1258BOLB   GL230172  14.410  12.160  10.130
 1258BOLB   C1A30173  14.440  11.610  10.360
 1258BOLB   C2A30174  14.580  11.290  10.110
 1258BOLB   C3A30175  14.720  10.870  10.020
 1258BOLB   C4A30176  14.780  10.690   9.650
 1258BOLB   C1B30177  14.480  11.740   9.860
 1258BOLB   C2B30178  14.390  11.510   9.580
 1258BOLB   C3B30179  14.260  11.190   9.400
 1258BOLB   C4B30180  13.930  10.870   9.290
 1258BOLB   NC230181  16.060   9.700   8.080
 1258BOLB   PO230182  15.710   9.710   7.940
 1258BOLB   GL330183  15.620   9.700   8.320
 1258BOLB   GL430184  15.350   9.420   8.460
 1258BOLB   C1C30185  15.300  10.020   8.490
 1258BOLB   C2C30186  14.950  10.290   8.460
 1258BOLB   C3C30187  14.830  10.580   8.790
 1258BOLB   C4C30188  14.780  10.620   9.120
 1258BOLB   C1D30189  15.070   9.600   8.760
 1258BOLB   C2D30190  14.810   9.540   9.130
 1258BOLB   C3D30191  14.830   9.870   9.430
 1258BOLB   C4D30192  15.050  10.210   9.420
 1259BOLB   NC130193  16.750  23.820  10.570
 1259BOLB   PO130194  17.060  23.440  10.580
 1259BOLB   GL130195  17.350  23.720  10.360
 1259BOLB   GL230196  17.690  23.620  10.250
 1259BOLB   C1A30197  17.420  24.140  10.260
 1259BOLB   C2A30198  17.710  24.460  10.180
 1259BOLB   C3A30199  18.050  24.500   9.810
 1259BOLB   C4A30200  18.380  24.580   9.980
 1259BOLB   C1B30201  17.840  23.890  10.530
 1259BOLB   C2B30202  18.110  24.120  10.260
 1259BOLB   C3B30203  18.450  24.090   9.940
 1259BOLB   C4B30204  18.650  23.970   9.620
 1259BOLB   NC230205  20.530  25.920   9.640
 1259BOLB   PO230206  20.550  25.580   9.920
 1259BOLB   GL330207  20.170  25.380  10.140
 1259BOLB   GL430208  19.970  25.560  10.320
 1259BOLB   C1C30209  19.800  25.040  10.340
 1259BOLB   C2C30210  19.450  24.830  10.500
 1259BOLB   C3C30211  19.090  24.870  10.410
 1259BOLB   C4C30212  18.740  24.660  10.340
 1259BOLB   C1D30213  19.840  25.450  10.740
 1259BOLB   C2D30214  19.680  25.110  10.900
 1259BOLB   C3D30215  19.540  24.650  11.080
 1259BOLB   C4D30216  19.490  24.200  11.070
 1260BOLB   NC130217   3.430  23.780  18.870
 1260BOLB   PO130218   3.090  24.020  18.640
 1260BOLB   GL130219   2.850  24.280  18.700
 1260BOLB   GL230220   2.510  24.240  18.510
 1260BOLB   C1A30221   2.510  24.590  18.840
 1260BOLB   C2A30222   2.280  24.660  19.210
 1260BOLB   C3A30223   2.000  25.070  19.280
 1260BOLB   C4A30224   2.070  25.410  19.560
 1260BOLB   C1B30225   2.230  24.080  18.720
 1260BOLB   C2B30226   2.050  24.270  18.930
 1260BOLB   C3B30227   1.690  24.620  19.100
 1260BOLB   C4B30228   1.550  24.960  18.970
 1260BOLB   NC230229  36.300  25.670  19.970
 1260BOLB   PO230230   0.100  26.080  19.920
 1260BOLB   GL330231   0.420  25.770  19.920
 1260BOLB   GL430232   0.460  25.620  20.240
 1260BOLB   C1C30233   0.880  25.760  19.740
 1260BOLB   C2C30234   1.200  25.560  19.760
 1260BOLB   C3C30235   1.570  25.580  19.980
 1260BOLB   C4C30236   2.020  25.570  19.900
 1260BOLB   C1D30237   0.780  25.430  20.170
 1260BOLB   C2D30238   1.000  25.110  19.970
 1260BOLB   C3D30239   1.370  25.020  19.960
 1260BOLB   C4D30240   1.820  25.060  19.830
 1261BOLB   NC130241  13.880  26.020  12.840
 1261BOLB   PO130242  13.790  26.370  12.610
 1261BOLB   GL130243  13.870  26.860  12.730
 1261BOLB   GL230244  14.200  26.890  12.760
 1261BOLB   C1A30245  13.940  27.310  12.650
 1261BOLB   C2A30246  14.050  27.760  12.850
 1261BOLB   C3A30247  14.100  28.230  12.980
 1261BOLB   C4A30248  14.250  28.570  12.840
 1261BOLB   C1B30249  14.480  27.150  12.660
 1261BOLB   C2B30250  14.610  27.580  12.470
 1261BOLB   C3B30251  14.490  27.960  12.410
 1261BOLB   C4B30252  14.570  28.330  12.490
 1261BOLB   NC230253  15.890  30.710  11.870
 1261BOLB   PO230254  15.470  30.650  12.210
 1261BOLB   GL330255  15.250  30.310  12.590
 1261BOLB   GL430256  15.470  30.040  12.550
 1261BOLB   C1C30257  14.980  29.960  12.610
 1261BOLB   C2C30258  14.750  29.620  12.680
 1261BOLB   C3C30259  14.720  29.210  12.490
 1261BOLB   C4C30260  14.470  28.830  12.660
 1261BOLB   C1D30261  15.660  29.690  12.810
 1261BOLB   C2D30262  15.460  29.370  13.120
 1261BOLB   C3D30263  15.350  29.040  13.420
 1261BOLB   C4D30264  15.150  28.610  13.460
 1262BOLB   NC130265  18.970  22.550  16.250
 1262BOLB   PO130266  18.830  23.010  16.220
 1262BOLB   GL130267  19.180  23.120  16.530
 1262BOLB   GL230268  19.180  22.870  16.810
 1262BOLB   C1A30269  19.460  23.370  16.820
 1262BOLB   C2A30270  19.800  23.380  17.070
 1262BOLB   C3A30271  20.060  23.850  17.130
 1262BOLB   C4A30272  20.400  24.150  16.990
 1262BOLB   C1B30273  19.260  23.020  17.250
 1262BOLB   C2B30274  19.440  23.170  17.570
 1262BOLB   C3B30275  19.810  23.130  17.800
 1262BOLB   C4B30276  20.180  22.990  17.850
 1262BOLB   NC230277  20.910  26.270  17.960
 1262BOLB   PO230278  20.700  26.030  18.270
 1262BOLB   GL330279  20.750  25.820  18.010
 1262BOLB   GL430280  20.580  25.930  17.730
 1262BOLB   C1C30281  20.650  25.460  17.830
 1262BOLB   C2C30282  20.420  25.190  17.620
 1262BOLB   C3C30283  20.500  24.920  17.300
 1262BOLB   C4C30284  20.400  24.620  17.090
 1262BOLB   C1D30285  20.270  26.330  17.590
 1262BOLB   C2D30286  20.100  26.620  17.420
 1262BOLB   C3D30287  20.040  26.890  17.100
 1262BOLB   C4D30288  20.130  26.930  16.570
 1263BOLB   NC130289   7.290  24.980  10.410
 1263BOLB   PO130290   7.600  25.190  10.270
 1263BOLB   GL130291   7.620  25.570  10.150
 1263BOLB   GL230292   7.350  25.700  10.270
 1263BOLB   C1A30293   7.770  26.020  10.070
 1263BOLB   C2A30294   7.750  26.470   9.920
 1263BOLB   C3A30295   7.580  26.760   9.610
 1263BOLB   C4A30296   7.580  26.920   9.330
 1263BOLB   C1B30297   7.130  25.520   9.960
 1263BOLB   C2B30298   6.910  25.510   9.560
 1263BOLB   C3B30299   6.910  25.720   9.300
 1263BOLB   C4B30300   6.690  25.650   8.850
 1263BOLB   NC230301   7.760  28.660   7.550
 1263BOLB   PO230302   7.230  28.630   7.740
 1263BOLB   GL330303   7.240  28.390   8.150
 1263BOLB   GL430304   7.460  28.430   8.460
 1263BOLB   C1C30305   7.300  27.910   8.300
 1263BOLB   C2C30306   7.330  27.470   8.400
 1263BOLB   C3C30307   7.470  27.080   8.560
 1263BOLB   C4C30308   7.560  26.820   8.900
 1263BOLB   C1D30309   7.760  28.120   8.600
 1263BOLB   C2D30310   7.770  27.660   8.380
 1263BOLB   C3D30311   7.930  27.290   8.470
 1263BOLB   C4D30312   7.970  26.900   8.590
 1264BOLB   NC130313  17.990  28.350   9.640
 1264BOLB   PO130314  17.730  28.590   9.940
 1264BOLB   GL130315  17.770  28.400  10.260
 1264BOLB   GL230316  17.570  28.450  10.540
 1264BOLB   C1A30317  17.380  28.010  10.300
 1264BOLB   C2A30318  17.090  27.800  10.290
 1264BOLB   C3A30319  16.710  27.510  10.480
 1264BOLB   C4A30320  16.320  27.410  10.740
 1264BOLB   C1B30321  17.340  28.150  10.790
 1264BOLB   C2B30322  17.010  28.130  11.040
 1264BOLB   C3B30323  16.870  28.020  11.490
 1264BOLB   C4B30324  16.400  27.950  11.580
 1264BOLB   NC230325  17.360  29.490  11.170
 1264BOLB   PO230326  16.980  29.240  11.000
 1264BOLB   GL330327  16.730  29.020  11.250
 1264BOLB   GL430328  16.880  28.800  11.280
 1264BOLB   C1C30329  16.340  28.820  11.130
 1264BOLB   C2C30330  15.970  28.530  11.070
 1264BOLB   C3C30331  16.000  28.050  11.140
 1264BOLB   C4C30332  15.960  27.690  10.810
 1264BOLB   C1D30333  16.660  28.470  11.350
 1264BOLB   C2D30334  16.260  28.420  11.440
 1264BOLB   C3D30335  15.850  28.260  11.570
 1264BOLB   C4D30336  15.470  28.200  11.710
 1265BOLB   NC130337   9.430  27.390  13.520
 1265BOLB   PO130338   8.980  27.250  13.470
 1265BOLB   GL130339   8.990  27.600  13.120
 1265BOLB   GL230340   8.800  27.560  12.950
 1265BOLB   C1A30341   8.920  28.020  12.770
 1265BOLB   C2A30342   8.760  28.430  12.570
 1265BOLB   C3A30343   8.850  28.920  12.500
 1265BOLB   C4A30344   8.960  29.170  12.920
 1265BOLB   C1B30345   8.360  27.730  13.120
 1265BOLB   C2B30346   8.130  28.000  12.920
 1265BOLB   C3B30347   8.230  28.390  12.710
 1265BOLB   C4B30348   8.200  28.710  12.400
 1265BOLB   NC230349   8.810  31.590  13.340
 1265BOLB   PO230350   9.040  31.650  12.940
 1265BOLB   GL330351   9.250  31.280  13.090
 1265BOLB   GL430352   9.120  31.190  13.380
 1265BOLB   C1C30353   9.200  30.680  13.060
 1265BOLB   C2C30354   9.510  30.250  13.080
 1265BOLB   C3C30355   9.300  29.890  13.110
 1265BOLB   C4C30356   9.190  29.550  12.910
 1265BOLB   C1D30357   9.220  30.790  13.510
 1265BOLB   C2D30358   9.610  30.610  13.390
 1265BOLB   C3D30359   9.910  30.250  13.400
 1265BOLB   C4D30360  10.100  30.050  13.650
 1266BOLB   NC130361  12.370  25.850  10.630
 1266BOLB   PO130362  12.750  25.970  10.820
 1266BOLB   GL130363  12.840  26.440  10.770
 1266BOLB   GL230364  12.900  26.710  10.990
 1266BOLB   C1A30365  12.780  26.810  10.410
 1266BOLB   C2A30366  12.730  27.130  10.160
 1266BOLB   C3A30367  12.740  27.720  10.100
 1266BOLB   C4A30368  12.570  28.130  10.220
 1266BOLB   C1B30369  12.970  27.160  10.830
 1266BOLB   C2B30370  13.050  27.430  10.480
 1266BOLB   C3B30371  13.270  27.710  10.410
 1266BOLB   C4B30372  13.440  28.080  10.170
 1266BOLB   NC230373  13.250  30.510   9.340
 1266BOLB   PO230374  12.930  30.400   9.650
 1266BOLB   GL330375  12.820  29.960   9.770
 1266BOLB   GL430376  12.980  29.740   9.950
 1266BOLB   C1C30377  12.890  29.450   9.530
 1266BOLB   C2C30378  12.890  29.090   9.640
 1266BOLB   C3C30379  12.840  28.770   9.980
 1266BOLB   C4C30380  12.600  28.500  10.210
 1266BOLB   C1D30381  12.890  29.270  10.120
 1266BOLB   C2D30382  12.740  28.960  10.470
 1266BOLB   C3D30383  12.810  28.540  10.770
 1266BOLB   C4D30384  12.840  28.160  11.140
 1267BOLB   NC130385   8.800  24.600  21.420
 1267BOLB   PO130386   9.200  24.470  21.460
 1267BOLB   GL130387   9.100  24.730  21.790
 1267BOLB   GL230388   9.090  24.970  21.630
 1267BOLB   C1A30389   9.040  25.000  22.130
 1267BOLB   C2A30390   8.980  25.380  22.320
 1267BOLB   C3A30391   9.020  25.720  22.550
 1267BOLB   C4A30392   8.810  25.990  22.780
 1267BOLB   C1B30393   9.480  25.190  21.910
 1267BOLB   C2B30394   9.470  25.310  22.230
 1267BOLB   C3B30395   9.420  25.410  22.560
 1267BOLB   C4B30396   9.440  25.420  22.950
 1267BOLB   NC230397   7.720  27.790  23.760
 1267BOLB   PO230398   8.050  27.770  24.060
 1267BOLB   GL330399   8.100  27.400  23.780
 1267BOLB   GL430400   7.800  27.270  23.810
 1267BOLB   C1C30401   8.230  27.270  23.410
 1267BOLB   C2C30402   8.300  26.990  23.100
 1267BOLB   C3C30403   8.290  26.680  22.760
 1267BOLB   C4C30404   8.480  26.260  22.730
 1267BOLB   C1D30405   7.740  26.820  23.650
 1267BOLB   C2D30406   7.980  26.830  23.480
 1267BOLB   C3D30407   8.260  26.490  23.220
 1267BOLB   C4D30408   8.700  26.220  23.280
 1268BOLB   NC130409  12.900  26.930  12.500
 1268BOLB   PO130410  13.040  27.310  12.850
 1268BOLB   GL130411  13.050  27.680  12.490
 1268BOLB   GL230412  13.070  27.390  12.280
 1268BOLB   C1A30413  12.990  28.050  12.270
 1268BOLB   C2A30414  13.020  28.440  12.140
 1268BOLB   C3A30415  12.860  28.720  11.920
 1268BOLB   C4A30416  12.750  29.140  11.720
 1268BOLB   C1B30417  13.090  27.660  11.940
 1268BOLB   C2B30418  12.840  27.940  11.780
 1268BOLB   C3B30419  12.650  28.320  11.620
 1268BOLB   C4B30420  12.440  28.520  11.220
 1268BOLB   NC230421  13.350  31.050  11.680
 1268BOLB   PO230422  13.320  30.920  11.400
 1268BOLB   GL330423  13.170  30.520  11.270
 1268BOLB   GL430424  12.970  30.520  11.530
 1268BOLB   C1C30425  13.370  30.090  11.380
 1268BOLB   C2C30426  13.380  29.670  11.390
 1268BOLB   C3C30427  13.090  29.460  11.310
 1268BOLB   C4C30428  12.840  29.300  11.350
 1268BOLB   C1D30429  13.020  30.090  11.780
 1268BOLB   C2D30430  13.130  29.650  11.840
 1268BOLB   C3D30431  13.270  29.280  11.720
 1268BOLB   C4D30432  13.200  28.940  11.610
 1269BOLB   NC130433  12.890  11.510  12.780
 1269BOLB   PO130434  13.200  11.240  12.850
 1269BOLB   GL130435  13.350  10.930  12.700
 1269BOLB   GL230436  13.640  11.010  12.570
 1269BOLB   C1A30437  13.370  10.590  12.500
 1269BOLB   C2A30438  13.420  10.160  12.260
 1269BOLB   C3A30439  13.520   9.830  11.970
 1269BOLB   C4A30440  13.810   9.580  11.840
 1269BOLB   C1B30441  13.930  10.670  12.450
 1269BOLB   C2B30442  13.860  10.410  12.170
 1269BOLB   C3B30443  13.950  10.110  11.760
 1269BOLB   C4B30444  14.330   9.930  11.670
 1269BOLB   NC230445  16.210   8.330  11.560
 1269BOLB   PO230446  15.900   8.460  11.290
 1269BOLB   GL330447  15.580   8.740  11.180
 1269BOLB   GL430448  15.760   9.020  11.000
 1269BOLB   C1C30449  15.120   8.760  11.270
 1269BOLB   C2C30450  14.860   8.990  11.570
 1269BOLB   C3C30451  14.610   9.380  11.640
 1269BOLB   C4C30452  14.130   9.420  11.720
 1269BOLB   C1D30453  16.010   9.380  10.850
 1269BOLB   C2D30454  16.250   9.650  10.720
 1269BOLB   C3D30455  16.220  10.080  10.600
 1269BOLB   C4D30456  16.270  10.330  11.030
 1270BOLB   NC130457   6.930  26.000  12.620
 1270BOLB   PO130458   6.960  25.940  12.190
 1270BOLB   GL130459   6.830  26.340  11.920
 1270BOLB   GL230460   6.800  26.370  11.660
 1270BOLB   C1A30461   6.890  26.810  11.920
 1270BOLB   C2A30462   6.850  26.920  11.500
 1270BOLB   C3A30463   6.700  27.320  11.420
 1270BOLB   C4A30464   6.530  27.500  11.290
 1270BOLB   C1B30465   6.380  26.580  11.370
 1270BOLB   C2B30466   6.220  27.010  11.420
 1270BOLB   C3B30467   5.980  27.370  11.450
 1270BOLB   C4B30468   5.820  27.820  11.510
 1270BOLB   NC230469   5.590  29.550  10.950
 1270BOLB   PO230470   5.930  29.730  10.700
 1270BOLB   GL330471   5.940  29.300  10.640
 1270BOLB   GL430472   5.840  29.160  10.410
 1270BOLB   C1C30473   6.030  28.950  10.860
 1270BOLB   C2C30474   6.080  28.660  11.250
 1270BOLB   C3C30475   6.250  28.230  11.350
 1270BOLB   C4C30476   6.290  27.840  11.520
 1270BOLB   C1D30477   6.130  28.900  10.370
 1270BOLB   C2D30478   6.270  28.510  10.510
 1270BOLB   C3D30479   6.420  28.080  10.790
 1270BOLB   C4D30480   6.660  27.840  10.910
 1271BOLB   NC130481   7.840  13.350  18.520
 1271BOLB   PO130482   7.380  13.360  18.750
 1271BOLB   GL130483   7.200  13.300  19.140
 1271BOLB   GL230484   7.500  13.450  19.310
 1271BOLB   C1A30485   6.920  13.110  19.480
 1271BOLB   C2A30486   6.680  12.800  19.590
 1271BOLB   C3A30487   6.800  12.370  19.800
 1271BOLB   C4A30488   6.570  11.920  19.880
 1271BOLB   C1B30489   7.520  13.050  19.550
 1271BOLB   C2B30490   7.220  12.650  19.760
 1271BOLB   C3B30491   7.230  12.210  19.950
 1271BOLB   C4B30492   7.170  11.800  20.040
 1271BOLB   NC230493   4.950  10.480  20.900
 1271BOLB   PO230494   5.150  10.690  21.120
 1271BOLB   GL330495   5.510  10.600  20.840
 1271BOLB   GL430496   5.400  10.550  20.470
 1271BOLB   C1C30497   5.910  10.770  20.750
 1271BOLB   C2C30498   6.060  10.940  20.470
 1271BOLB   C3C30499   6.070  11.250  20.050
 1271BOLB   C4C30500   6.260  11.620  19.960
 1271BOLB   C1D30501   5.570  10.950  20.280
 1271BOLB   C2D30502   5.580  11.150  19.930
 1271BOLB   C3D30503   5.780  11.290  19.610
 1271BOLB   C4D30504   5.950  11.600  19.460
 1272BOLB   NC130505   7.120  17.080   7.830
 1272BOLB   PO130506   7.330  16.770   7.900
 1272BOLB   GL130507   7.420  16.760   7.510
 1272BOLB   GL230508   7.700  16.700   7.440
 1272BOLB   C1A30509   7.170  16.650   7.100
 1272BOLB   C2A30510   6.700  16.570   6.940
 1272BOLB   C3A30511   6.820  16.600   6.530
 1272BOLB   C4A30512   6.630  16.580   6.170
 1272BOLB   C1B30513   7.560  16.400   7.180
 1272BOLB   C2B30514   7.630  16.140   6.830
 1272BOLB   C3B30515   7.730  15.820   6.630
 1272BOLB   C4B30516   7.530  15.700   6.300
 1272BOLB   NC230517   4.260  16.200   5.150
 1272BOLB   PO230518   4.540  16.030   4.880
 1272BOLB   GL330519   4.740  15.950   5.240
 1272BOLB   GL430520   4.760  16.310   5.380
 1272BOLB   C1C30521   5.140  16.040   5.520
 1272BOLB   C2C30522   5.600  16.240   5.470
 1272BOLB   C3C30523   5.940  16.460   5.720
 1272BOLB   C4C30524   6.230  16.690   5.970
 1272BOLB   C1D30525   5.210  16.620   5.390
 1272BOLB   C2D30526   5.460  16.630   5.760
 1272BOLB   C3D30527   5.720  16.560   6.190
 1272BOLB   C4D30528   5.570  16.720   6.610
 1273BOLB   NC130529  13.910  24.600   9.740
 1273BOLB   PO130530  14.280  24.560   9.480
 1273BOLB   GL130531  14.150  25.060   9.530
 1273BOLB   GL230532  13.850  25.300   9.660
 1273BOLB   C1A30533  14.430  25.450   9.420
 1273BOLB   C2A30534  14.470  25.850   9.150
 1273BOLB   C3A30535  14.520  26.310   9.240
 1273BOLB   C4A30536  14.930  26.330   9.460
 1273BOLB   C1B30537  13.980  25.660   9.340
 1273BOLB   C2B30538  13.990  25.960   8.990
 1273BOLB   C3B30539  13.740  26.280   8.850
 1273BOLB   C4B30540  13.820  26.710   8.470
 1273BOLB   NC230541  15.920  28.380   8.180
 1273BOLB   PO230542  15.850  27.970   8.180
 1273BOLB   GL330543  15.640  28.060   8.510
 1273BOLB   GL430544  15.320  28.190   8.720
 1273BOLB   C1C30545  15.330  27.710   8.790
 1273BOLB   C2C30546  15.290  27.260   8.850
 1273BOLB   C3C30547  15.210  26.900   9.080
 1273BOLB   C4C30548  15.180  26.670   9.480
 1273BOLB   C1D30549  15.490  28.130   9.130
 1273BOLB   C2D30550  15.640  27.760   9.150
 1273BOLB   C3D30551  15.490  27.340   9.290
 1273BOLB   C4D30552  15.500  27.020   9.710
 1274BOLB   NC130553   4.410  19.190   9.010
 1274BOLB   PO130554   4.810  19.160   8.720
 1274BOLB   GL130555   4.480  19.110   8.330
 1274BOLB   GL230556   4.450  19.410   8.140
 1274BOLB   C1A30557   4.390  19.040   7.790
 1274BOLB   C2A30558   4.110  19.120   7.470
 1274BOLB   C3A30559   4.380  19.220   7.120
 1274BOLB   C4A30560   4.830  19.490   6.960
 1274BOLB   C1B30561   4.230  19.600   7.800
 1274BOLB   C2B30562   3.870  19.710   7.600
 1274BOLB   C3B30563   3.390  19.610   7.460
 1274BOLB   C4B30564   3.160  19.340   7.740
 1274BOLB   NC230565   3.910  20.440   4.650
 1274BOLB   PO230566   3.690  20.310   4.890
 1274BOLB   GL330567   4.130  20.210   5.070
 1274BOLB   GL430568   4.350  20.500   5.110
 1274BOLB   C1C30569   4.560  20.060   5.330
 1274BOLB   C2C30570   4.850  19.800   5.570
 1274BOLB   C3C30571   4.850  19.870   6.120
 1274BOLB   C4C30572   4.970  19.700   6.610
 1274BOLB   C1D30573   4.320  20.650   5.640
 1274BOLB   C2D30574   4.650  20.810   5.980
 1274BOLB   C3D30575   4.770  20.930   6.420
 1274BOLB   C4D30576   4.790  21.050   6.740
 1275BOLB   NC130577  18.830  22.860  14.140
 1275BOLB   PO130578  19.190  22.790  14.490
 1275BOLB   GL130579  19.200  23.220  14.310
 1275BOLB   GL230580  19.010  23.470  14.560
 1275BOLB   C1A30581  19.490  23.470  14.360
 1275BOLB   C2A30582  19.810  23.720  14.210
 1275BOLB   C3A30583  20.120  23.880  14.010
 1275BOLB   C4A30584  20.380  24.160  14.050
 1275BOLB   C1B30585  19.380  23.670  14.910
 1275BOLB   C2B30586  19.710  23.790  14.730
 1275BOLB   C3B30587  20.110  23.670  14.620
 1275BOLB   C4B30588  20.400  23.790  14.380
 1275BOLB   NC230589  22.490  24.240  13.290
 1275BOLB   PO230590  22.550  24.430  12.960
 1275BOLB   GL330591  22.150  24.530  13.040
 1275BOLB   GL430592  22.130  24.150  12.970
 1275BOLB   C1C30593  21.720  24.600  13.100
 1275BOLB   C2C30594  21.280  24.500  13.260
 1275BOLB   C3C30595  21.090  24.530  13.530
 1275BOLB   C4C30596  20.720  24.280  13.660
 1275BOLB   C1D30597  21.860  24.060  12.810
 1275BOLB   C2D30598  21.520  23.840  12.760
 1275BOLB   C3D30599  21.370  23.900  12.290
 1275BOLB   C4D30600  21.270  24.270  12.070
 1276BOLB   NC130601  10.300  12.370  10.600
 1276BOLB   PO130602  10.290  11.820  10.530
 1276BOLB   GL130603  10.240  11.540  10.220
 1276BOLB   GL230604  10.550  11.670  10.040
 1276BOLB   C1A30605  10.200  11.170  10.010
 1276BOLB   C2A30606  10.010  10.900   9.780
 1276BOLB   C3A30607   9.940  10.680   9.350
 1276BOLB   C4A30608  10.110  10.720   8.980
 1276BOLB   C1B30609  10.630  11.320   9.740
 1276BOLB   C2B30610  10.410  11.150   9.430
 1276BOLB   C3B30611  10.480  11.040   9.070
 1276BOLB   C4B30612  10.630  10.760   8.930
 1276BOLB   NC230613  10.450   8.650   6.810
 1276BOLB   PO230614  10.200   8.740   7.160
 1276BOLB   GL330615  10.370   9.100   7.500
 1276BOLB   GL430616  10.130   9.060   7.740
 1276BOLB   C1C30617  10.310   9.540   7.660
 1276BOLB   C2C30618  10.200   9.830   8.040
 1276BOLB   C3C30619  10.130  10.210   8.240
 1276BOLB   C4C30620  10.000  10.420   8.590
 1276BOLB   C1D30621   9.980   9.350   8.030
 1276BOLB   C2D30622   9.830   9.570   8.310
 1276BOLB   C3D30623   9.740   9.920   8.380
 1276BOLB   C4D30624   9.510  10.230   8.630
 1277BOLB   NC130625   1.480  20.620  12.970
 1277BOLB   PO130626   1.570  20.840  12.610
 1277BOLB   GL130627   1.260  20.740  12.490
 1277BOLB   GL230628   1.040  20.630  12.760
 1277BOLB   C1A30629   0.940  20.960  12.270
 1277BOLB   C2A30630   0.860  21.210  12.070
 1277BOLB   C3A30631   0.600  21.320  11.750
 1277BOLB   C4A30632   0.390  21.530  11.360
 1277BOLB   C1B30633   0.770  20.520  12.420
 1277BOLB   C2B30634   0.570  20.690  12.130
 1277BOLB   C3B30635   0.420  20.890  11.750
 1277BOLB   C4B30636   0.040  21.220  11.570
 1277BOLB   NC230637  34.090  21.770  11.160
 1277BOLB   PO230638  34.390  21.700  10.880
 1277BOLB   GL330639  34.810  21.880  11.030
 1277BOLB   GL430640  35.050  21.870  10.720
 1277BOLB   C1C30641  35.120  21.620  11.250
 1277BOLB   C2C30642  35.510  21.510  11.200
 1277BOLB   C3C30643  35.950  21.640  11.380
 1277BOLB   C4C30644  36.360  21.650  11.250
 1277BOLB   C1D30645  35.500  21.890  10.940
 1277BOLB   C2D30646  36.000  21.890  10.850
 1277BOLB   C3D30647   0.130  21.820  10.780
 1277BOLB   C4D30648   0.230  21.460  10.540
 1278BOLB   NC130649  10.000  11.310  11.790
 1278BOLB   PO130650  10.390  11.320  11.640
 1278BOLB   GL130651  10.330  10.940  11.520
 1278BOLB   GL230652  10.530  10.790  11.290
 1278BOLB   C1A30653  10.050  10.480  11.410
 1278BOLB   C2A30654  10.010  10.090  11.540
 1278BOLB   C3A30655   9.880   9.740  11.800
 1278BOLB   C4A30656   9.660   9.350  11.820
 1278BOLB   C1B30657  10.440  10.500  11.040
 1278BOLB   C2B30658  10.370  10.210  10.800
 1278BOLB   C3B30659  10.580  10.010  10.450
 1278BOLB   C4B30660  11.040  10.070  10.260
 1278BOLB   NC230661   8.900   7.130  11.710
 1278BOLB   PO230662   8.330   7.200  11.620
 1278BOLB   GL330663   8.360   7.640  11.630
 1278BOLB   GL430664   8.110   7.630  11.840
 1278BOLB   C1C30665   8.450   8.050  11.630
 1278BOLB   C2C30666   8.650   8.440  11.570
 1278BOLB   C3C30667   8.960   8.700  11.390
 1278BOLB   C4C30668   9.290   9.020  11.620
 1278BOLB   C1D30669   8.340   7.860  12.220
 1278BOLB   C2D30670   8.730   8.120  12.320
 1278BOLB   C3D30671   9.120   8.350  12.420
 1278BOLB   C4D30672   9.440   8.410  12.130
 1279BOLB   NC130673  16.270  16.990   9.120
 1279BOLB   PO130674  16.730  16.940   8.750
 1279BOLB   GL130675  17.160  16.850   8.590
 1279BOLB   GL230676  17.370  16.600   8.730
 1279BOLB   C1A30677  17.390  16.730   8.190
 1279BOLB   C2A30678  17.570  16.570   7.740
 1279BOLB   C3A30679  17.810  16.250   7.460
 1279BOLB   C4A30680  17.710  16.080   7.080
 1279BOLB   C1B30681  17.740  16.440   8.450
 1279BOLB   C2B30682  17.890  16.300   8.090
 1279BOLB   C3B30683  18.100  15.970   7.830
 1279BOLB   C4B30684  18.330  15.590   7.680
 1279BOLB   NC230685  18.280  16.170   4.670
 1279BOLB   PO230686  17.980  16.420   4.640
 1279BOLB   GL330687  17.820  16.450   5.090
 1279BOLB   GL430688  18.060  16.270   5.250
 1279BOLB   C1C30689  17.650  16.420   5.550
 1279BOLB   C2C30690  17.810  16.560   5.940
 1279BOLB   C3C30691  17.860  16.220   6.260
 1279BOLB   C4C30692  17.770  16.010   6.670
 1279BOLB   C1D30693  18.200  16.280   5.740
 1279BOLB   C2D30694  18.320  16.370   6.260
 1279BOLB   C3D30695  18.150  16.370   6.630
 1279BOLB   C4D30696  18.180  16.290   7.070
 1280BOLB   NC130697  19.090  17.900  10.750
 1280BOLB   PO130698  19.270  18.230  10.520
 1280BOLB   GL130699  19.740  18.190  10.390
 1280BOLB   GL230700  19.640  18.620  10.400
 1280BOLB   C1A30701  19.990  17.840  10.190
 1280BOLB   C2A30702  19.890  17.400  10.010
 1280BOLB   C3A30703  20.090  17.070   9.680
 1280BOLB   C4A30704  20.340  16.840   9.880
 1280BOLB   C1B30705  20.060  18.660  10.220
 1280BOLB   C2B30706  20.270  18.900   9.900
 1280BOLB   C3B30707  20.420  19.120   9.540
 1280BOLB   C4B30708  20.430  19.070   9.060
 1280BOLB   NC230709  21.830  16.050   8.040
 1280BOLB   PO230710  21.960  16.040   8.530
 1280BOLB   GL330711  21.630  15.980   8.870
 1280BOLB   GL430712  21.350  15.930   8.620
 1280BOLB   C1C30713  21.410  15.800   9.260
 1280BOLB   C2C30714  21.350  16.110   9.590
 1280BOLB   C3C30715  21.190  16.390   9.760
 1280BOLB   C4C30716  20.760  16.650   9.740
 1280BOLB   C1D30717  20.850  15.930   8.590
 1280BOLB   C2D30718  20.620  15.790   8.680
 1280BOLB   C3D30719  20.200  15.940   8.780
 1280BOLB   C4D30720  19.770  15.870   8.930
 1281BOLB   NC130721  11.750  19.120   6.670
 1281BOLB   PO130722  12.150  19.370   6.670
 1281BOLB   GL130723  12.050  19.350   6.340
 1281BOLB   GL230724  12.260  19.250   6.130
 1281BOLB   C1A30725  11.900  19.590   6.110
 1281BOLB   C2A30726  12.040  19.750   5.760
 1281BOLB   C3A30727  12.350  19.910   5.470
 1281BOLB   C4A30728  12.510  19.740   5.140
 1281BOLB   C1B30729  11.990  19.190   5.760
 1281BOLB   C2B30730  11.730  19.000   5.520
 1281BOLB   C3B30731  11.600  19.120   5.150
 1281BOLB   C4B30732  11.940  19.030   4.870
 1281BOLB   NC230733  12.060  20.350   2.270
 1281BOLB   PO230734  12.000  20.350   2.770
 1281BOLB   GL330735  12.110  20.140   3.110
 1281BOLB   GL430736  12.290  19.910   2.920
 1281BOLB   C1C30737  12.400  20.060   3.440
 1281BOLB   C2C30738  12.450  19.830   3.850
 1281BOLB   C3C30739  12.450  19.760   4.300
 1281BOLB   C4C30740  12.660  19.640   4.760
 1281BOLB   C1D30741  12.160  19.630   3.160
 1281BOLB   C2D30742  11.840  19.600   3.510
 1281BOLB   C3D30743  11.500  19.670   3.690
 1281BOLB   C4D30744  11.070  19.480   3.750
 1282BOLB   NC130745  10.490  26.340  12.440
 1282BOLB   PO130746  10.600  26.680  12.690
 1282BOLB   GL130747  10.640  27.070  12.470
 1282BOLB   GL230748  10.380  27.260  12.460
 1282BOLB   C1A30749  10.850  27.340  12.150
 1282BOLB   C2A30750  11.030  27.590  11.750
 1282BOLB   C3A30751  11.240  27.950  11.670
 1282BOLB   C4A30752  11.570  28.210  11.520
 1282BOLB   C1B30753  10.440  27.630  12.110
 1282BOLB   C2B30754  10.300  27.940  11.820
 1282BOLB   C3B30755  10.080  28.330  11.660
 1282BOLB   C4B30756   9.750  28.470  11.380
 1282BOLB   NC230757  12.100  30.610  11.190
 1282BOLB   PO230758  11.760  30.490  10.820
 1282BOLB   GL330759  11.820  30.150  11.150
 1282BOLB   GL430760  12.180  30.040  11.260
 1282BOLB   C1C30761  11.720  29.680  11.110
 1282BOLB   C2C30762  11.760  29.360  11.170
 1282BOLB   C3C30763  11.810  28.940  11.240
 1282BOLB   C4C30764  11.830  28.560  11.370
 1282BOLB   C1D30765  12.190  29.600  11.530
 1282BOLB   C2D30766  12.140  29.240  11.750
 1282BOLB   C3D30767  11.910  29.040  12.100
 1282BOLB   C4D30768  11.900  29.140  12.500
 1283BOLB   NC130769   6.630  27.520  16.440
 1283BOLB   PO130770   6.420  27.270  16.660
 1283BOLB   GL130771   6.530  27.550  16.960
 1283BOLB   GL230772   6.830  27.650  17.180
 1283BOLB   C1A30773   6.390  27.940  16.940
 1283BOLB   C2A30774   6.380  28.240  16.680
 1283BOLB   C3A30775   6.220  28.610  16.770
 1283BOLB   C4A30776   5.900  28.940  16.790
 1283BOLB   C1B30777   6.860  28.070  17.010
 1283BOLB   C2B30778   6.810  28.450  16.700
 1283BOLB   C3B30779   6.600  28.620  16.430
 1283BOLB   C4B30780   6.550  28.580  15.990
 1283BOLB   NC230781   4.490  30.880  16.320
 1283BOLB   PO230782   4.760  31.180  16.400
 1283BOLB   GL330783   5.020  30.830  16.510
 1283BOLB   GL430784   5.160  30.840  16.290
 1283BOLB   C1C30785   5.320  30.490  16.590
 1283BOLB   C2C30786   5.550  30.020  16.700
 1283BOLB   C3C30787   5.560  29.600  16.580
 1283BOLB   C4C30788   5.600  29.150  16.670
 1283BOLB   C1D30789   5.160  30.480  16.010
 1283BOLB   C2D30790   4.950  30.140  15.900
 1283BOLB   C3D30791   4.760  29.830  15.660
 1283BOLB   C4D30792   4.510  29.390  15.510
 1284BOLB   NC130793  14.200  11.920  17.270
 1284BOLB   PO130794  14.370  11.540  17.440
 1284BOLB   GL130795  14.530  11.250  17.850
 1284BOLB   GL230796  14.240  11.240  18.110
 1284BOLB   C1A30797  14.700  10.900  18.060
 1284BOLB   C2A30798  14.810  10.510  18.270
 1284BOLB   C3A30799  14.620  10.300  18.650
 1284BOLB   C4A30800  14.310  10.010  18.950
 1284BOLB   C1B30801  14.310  10.970  18.440
 1284BOLB   C2B30802  14.200  10.570  18.620
 1284BOLB   C3B30803  13.930  10.230  18.730
 1284BOLB   C4B30804  13.720   9.880  18.770
 1284BOLB   NC230805  14.450   7.850  19.580
 1284BOLB   PO230806  14.880   7.880  19.640
 1284BOLB   GL330807  14.760   8.190  19.310
 1284BOLB   GL430808  14.950   8.130  18.990
 1284BOLB   C1C30809  14.710   8.700  19.320
 1284BOLB   C2C30810  14.580   9.130  19.470
 1284BOLB   C3C30811  14.590   9.590  19.550
 1284BOLB   C4C30812  14.360   9.970  19.400
 1284BOLB   C1D30813  14.680   8.290  18.630
 1284BOLB   C2D30814  14.640   8.290  18.240
 1284BOLB   C3D30815  14.820   8.570  17.910
 1284BOLB   C4D30816  15.020   8.630  17.460
 1285BOLB   NC130817   9.700  25.700  20.420
 1285BOLB   PO130818   9.950  25.530  20.700
 1285BOLB   GL130819   9.850  25.660  21.130
 1285BOLB   GL230820   9.770  25.450  21.430
 1285BOLB   C1A30821   9.970  25.970  21.330
 1285BOLB   C2A30822  10.170  26.240  21.610
 1285BOLB   C3A30823  10.410  26.560  21.680
 1285BOLB   C4A30824  10.690  26.660  21.950
 1285BOLB   C1B30825   9.810  25.690  21.840
 1285BOLB   C2B30826   9.880  26.040  22.030
 1285BOLB   C3B30827  10.010  26.420  22.250
 1285BOLB   C4B30828   9.850  26.550  22.680
 1285BOLB   NC230829  10.200  28.580  23.240
 1285BOLB   PO230830  10.600  28.590  23.470
 1285BOLB   GL330831  10.640  28.230  23.180
 1285BOLB   GL430832  10.530  27.980  23.150
 1285BOLB   C1C30833  10.570  28.230  22.670
 1285BOLB   C2C30834  10.660  27.820  22.430
 1285BOLB   C3C30835  10.810  27.450  22.190
 1285BOLB   C4C30836  10.730  27.090  22.050
 1285BOLB   C1D30837  10.220  27.860  22.750
 1285BOLB   C2D30838  10.050  27.460  22.780
 1285BOLB   C3D30839  10.010  27.130  22.410
 1285BOLB   C4D30840  10.260  26.840  22.120
 1286BOLB   NC130841  17.330  14.490  17.950
 1286BOLB   PO130842  17.630  14.410  17.640
 1286BOLB   GL130843  18.070  14.210  17.710
 1286BOLB   GL230844  18.030  13.940  17.570
 1286BOLB   C1A30845  18.420  14.090  17.900
 1286BOLB   C2A30846  18.520  13.970  18.300
 1286BOLB   C3A30847  18.800  13.830  18.470
 1286BOLB   C4A30848  19.050  13.730  18.780
 1286BOLB   C1B30849  18.460  13.750  17.530
 1286BOLB   C2B30850  18.630  13.470  17.310
 1286BOLB   C3B30851  19.010  13.240  17.070
 1286BOLB   C4B30852  19.190  12.980  17.090
 1286BOLB   NC230853  21.160  13.180  19.470
 1286BOLB   PO230854  20.820  13.180  19.650
 1286BOLB   GL330855  20.530  13.380  19.380
 1286BOLB   GL430856  20.440  13.410  19.020
 1286BOLB   C1C30857  20.180  13.620  19.480
 1286BOLB   C2C30858  19.910  13.870  19.630
 1286BOLB   C3C30859  19.530  13.990  19.550
 1286BOLB   C4C30860  19.270  13.940  19.160
 1286BOLB   C1D30861  20.110  13.550  18.720
 1286BOLB   C2D30862  20.000  13.350  18.300
 1286BOLB   C3D30863  19.670  13.200  17.940
 1286BOLB   C4D30864  19.400  13.080  17.560
 1287BOLB   NC130865   9.070  11.990  11.100
 1287BOLB   PO130866   8.790  12.050  11.450
 1287BOLB   GL130867   8.630  11.620  11.370
 1287BOLB   GL230868   8.490  11.420  11.580
 1287BOLB   C1A30869   8.820  11.150  11.320
 1287BOLB   C2A30870   9.200  11.000  11.120
 1287BOLB   C3A30871   9.500  10.810  10.820
 1287BOLB   C4A30872   9.320  10.540  10.500
 1287BOLB   C1B30873   8.160  11.100  11.610
 1287BOLB   C2B30874   8.030  10.730  11.480
 1287BOLB   C3B30875   7.670  10.830  11.220
 1287BOLB   C4B30876   7.440  10.450  11.220
 1287BOLB   NC230877   8.760   8.330   9.700
 1287BOLB   PO230878   8.940   8.120   9.230
 1287BOLB   GL330879   9.160   8.510   9.470
 1287BOLB   GL430880   9.230   8.830   9.240
 1287BOLB   C1C30881   9.180   8.850   9.850
 1287BOLB   C2C30882   9.260   9.220  10.000
 1287BOLB   C3C30883   9.310   9.670  10.100
 1287BOLB   C4C30884   9.180  10.150  10.280
 1287BOLB   C1D30885   9.650   9.070   9.340
 1287BOLB   C2D30886   9.820   9.580   9.210
 1287BOLB   C3D30887   9.970   9.920   9.370
 1287BOLB   C4D30888   9.730  10.320   9.620
 1288BOLB   NC130889  15.580  22.580   8.430
 1288BOLB   PO130890  15.540  23.090   8.710
 1288BOLB   GL130891  15.820  23.040   8.460
 1288BOLB   GL230892  16.100  23.040   8.500
 1288BOLB   C1A30893  15.870  23.230   8.040
 1288BOLB   C2A30894  15.710  23.390   7.660
 1288BOLB   C3A30895  15.760  23.450   7.250
 1288BOLB   C4A30896  15.910  23.400   6.890
 1288BOLB   C1B30897  16.350  23.210   8.310
 1288BOLB   C2B30898  16.510  23.520   8.030
 1288BOLB   C3B30899  16.720  23.640   7.590
 1288BOLB   C4B30900  17.090  23.720   7.290
 1288BOLB   NC230901  16.540  23.680   4.500
 1288BOLB   PO230902  16.960  23.750   4.610
 1288BOLB   GL330903  16.770  23.620   4.990
 1288BOLB   GL430904  16.510  23.390   4.850
 1288BOLB   C1C30905  16.650  23.600   5.450
 1288BOLB   C2C30906  16.320  23.710   5.780
 1288BOLB   C3C30907  16.160  23.550   6.170
 1288BOLB   C4C30908  16.110  23.380   6.510
 1288BOLB   C1D30909  16.230  23.350   5.170
 1288BOLB   C2D30910  16.110  23.230   5.560
 1288BOLB   C3D30911  15.920  23.190   5.900
 1288BOLB   C4D30912  15.740  22.840   6.070
 1289BOLB   NC130913  11.850  24.440   9.040
 1289BOLB   PO130914  12.210  24.570   9.240
 1289BOLB   GL130915  12.230  24.780   8.970
 1289BOLB   GL230916  12.230  24.540   8.740
 1289BOLB   C1A30917  12.180  25.130   8.670
 1289BOLB   C2A30918  12.300  25.540   8.510
 1289BOLB   C3A30919  12.400  25.950   8.450
 1289BOLB   C4A30920  12.620  26.070   8.120
 1289BOLB   C1B30921  12.420  24.740   8.420
 1289BOLB   C2B30922  12.440  25.180   8.170
 1289BOLB   C3B30923  12.330  25.610   8.000
 1289BOLB   C4B30924  12.400  25.860   7.620
 1289BOLB   NC230925  13.690  28.170   6.490
 1289BOLB   PO230926  13.360  27.980   6.250
 1289BOLB   GL330927  13.300  27.580   6.610
 1289BOLB   GL430928  13.450  27.660   6.850
 1289BOLB   C1C30929  13.140  27.240   6.920
 1289BOLB   C2C30930  12.860  26.980   7.200
 1289BOLB   C3C30931  12.650  26.790   7.540
 1289BOLB   C4C30932  12.550  26.390   7.750
 1289BOLB   C1D30933  13.300  27.510   7.270
 1289BOLB   C2D30934  13.050  27.240   7.610
 1289BOLB   C3D30935  13.110  26.850   7.560
 1289BOLB   C4D30936  13.420  26.550   7.440
 1290BOLB   NC130937   9.010  25.760  11.670
 1290BOLB   PO130938   9.050  26.200  11.470
 1290BOLB   GL130939   9.160  26.680  11.320
 1290BOLB   GL230940   8.840  26.850  11.450
 1290BOLB   C1A30941   9.120  26.980  11.060
 1290BOLB   C2A30942   9.130  27.300  10.750
 1290BOLB   C3A30943   9.080  27.620  10.430
 1290BOLB   C4A30944   9.170  27.770  10.020
 1290BOLB   C1B30945   8.930  27.260  11.470
 1290BOLB   C2B30946   8.840  27.670  11.640
 1290BOLB   C3B30947   9.200  27.980  11.790
 1290BOLB   C4B30948   9.340  28.370  11.660
 1290BOLB   NC230949   9.260  29.730   8.680
 1290BOLB   PO230950   9.730  29.750   8.770
 1290BOLB   GL330951   9.490  29.360   8.930
 1290BOLB   GL430952   9.580  29.230   9.240
 1290BOLB   C1C30953   9.120  29.130   9.110
 1290BOLB   C2C30954   9.070  28.910   9.460
 1290BOLB   C3C30955   9.220  28.590   9.720
 1290BOLB   C4C30956   9.140  28.100   9.870
 1290BOLB   C1D30957   9.660  28.860   9.320
 1290BOLB   C2D30958   9.620  28.390   9.370
 1290BOLB   C3D30959   9.920  28.100   9.320
 1290BOLB   C4D30960  10.100  27.760   9.110
 1291BOLB   NC130961  19.250  19.070  11.160
 1291BOLB   PO130962  19.280  19.440  10.850
 1291BOLB   GL130963  19.530  19.560  10.500
 1291BOLB   GL230964  19.430  19.830  10.280
 1291BOLB   C1A30965  19.970  19.630  10.520
 1291BOLB   C2A30966  20.190  19.400  10.380
 1291BOLB   C3A30967  20.560  19.290  10.240
 1291BOLB   C4A30968  20.830  19.540  10.370
 1291BOLB   C1B30969  19.570  20.190   9.910
 1291BOLB   C2B30970  20.050  20.360   9.920
 1291BOLB   C3B30971  20.320  20.240  10.160
 1291BOLB   C4B30972  20.400  19.830  10.220
 1291BOLB   NC230973  23.270  19.310  10.440
 1291BOLB   PO230974  23.530  19.650  10.770
 1291BOLB   GL330975  23.050  19.780  10.600
 1291BOLB   GL430976  22.850  20.030  10.410
 1291BOLB   C1C30977  22.660  19.550  10.370
 1291BOLB   C2C30978  22.250  19.460  10.240
 1291BOLB   C3C30979  21.810  19.610  10.290
 1291BOLB   C4C30980  21.330  19.570  10.410
 1291BOLB   C1D30981  22.570  19.850  10.720
 1291BOLB   C2D30982  22.120  19.720  10.650
 1291BOLB   C3D30983  21.870  19.450  10.810
 1291BOLB   C4D30984  21.850  19.070  11.100
 1292BOLB   NC130985  12.320  15.880   6.960
 1292BOLB   PO130986  12.360  16.370   6.930
 1292BOLB   GL130987  12.390  16.120   6.560
 1292BOLB   GL230988  12.040  16.080   6.530
 1292BOLB   C1A30989  12.440  15.880   6.220
 1292BOLB   C2A30990  12.300  15.640   5.910
 1292BOLB   C3A30991  12.190  15.270   5.740
 1292BOLB   C4A30992  12.230  15.290   5.370
 1292BOLB   C1B30993  11.900  16.000   6.130
 1292BOLB   C2B30994  11.980  16.170   5.750
 1292BOLB   C3B30995  12.050  16.220   5.410
 1292BOLB   C4B30996  12.260  16.090   5.090
 1292BOLB   NC230997  12.880  16.040   2.980
 1292BOLB   PO230998  12.710  15.730   3.060
 1292BOLB   GL330999  12.320  15.660   3.320
 1292BOLB   GL431000  12.370  15.980   3.460
 1292BOLB   C1C31001  12.290  15.630   3.780
 1292BOLB   C2C31002  12.410  15.600   4.150
 1292BOLB   C3C31003  12.430  15.670   4.570
 1292BOLB   C4C31004  12.430  15.490   4.960
 1292BOLB   C1D31005  12.320  16.290   3.680
 1292BOLB   C2D31006  12.190  16.510   3.890
 1292BOLB   C3D31007  12.280  16.810   4.210
 1292BOLB   C4D31008  12.550  17.080   4.350
 1293BOLB   NC131009   2.560  22.680  12.640
 1293BOLB   PO131010   2.360  22.330  12.490
 1293BOLB   GL131011   1.960  22.230  12.290
 1293BOLB   GL231012   1.950  21.920  12.330
 1293BOLB   C1A31013   1.660  22.470  12.230
 1293BOLB   C2A31014   1.200  22.660  12.130
 1293BOLB   C3A31015   0.990  22.820  11.850
 1293BOLB   C4A31016   0.580  22.700  11.760
 1293BOLB   C1B31017   1.540  21.830  12.190
 1293BOLB   C2B31018   1.220  22.130  12.210
 1293BOLB   C3B31019   0.960  22.330  11.920
 1293BOLB   C4B31020   1.100  22.300  11.670
 1293BOLB   NC231021  35.560  24.160   9.720
 1293BOLB   PO231022  35.910  24.120   9.960
 1293BOLB   GL331023  36.030  23.760  10.140
 1293BOLB   GL431024  36.310  23.580  10.060
 1293BOLB   C1C31025  36.060  23.370  10.400
 1293BOLB   C2C31026  36.020  23.000  10.740
 1293BOLB   C3C31027  36.320  22.720  11.050
 1293BOLB   C4C31028   0.200  22.660  11.400
 1293BOLB   C1D31029   0.090  23.970  10.310
 1293BOLB   C2D31030   0.240  24.430  10.290
 1293BOLB   C3D31031   0.450  24.680  10.220
 1293BOLB   C4D31032   0.620  25.070  10.270
 1294BOLB   NC131033  10.850  20.260   6.890
 1294BOLB   PO131034  11.100  19.890   7.010
 1294BOLB   GL131035  11.010  20.010   6.500
 1294BOLB   GL231036  10.710  20.270   6.330
 1294BOLB   C1A31037  11.090  20.150   6.070
 1294BOLB   C2A31038  11.290  20.340   5.800
 1294BOLB   C3A31039  11.300  20.350   5.360
 1294BOLB   C4A31040  11.540  20.500   5.040
 1294BOLB   C1B31041  10.530  20.210   6.030
 1294BOLB   C2B31042  10.330  20.250   5.790
 1294BOLB   C3B31043  10.130  20.090   5.370
 1294BOLB   C4B31044   9.970  20.320   4.970
 1294BOLB   NC231045  12.170  21.010   2.220
 1294BOLB   PO231046  11.950  20.830   2.590
 1294BOLB   GL331047  11.780  20.780   2.990
 1294BOLB   GL431048  11.420  20.730   3.110
 1294BOLB   C1C31049  11.840  20.640   3.440
 1294BOLB   C2C31050  11.860  20.440   3.810
 1294BOLB   C3C31051  11.850  20.380   4.300
 1294BOLB   C4C31052  11.520  20.590   4.570
 1294BOLB   C1D31053  11.120  20.860   3.400
 1294BOLB   C2D31054  10.820  21.080   3.600
 1294BOLB   C3D31055  10.670  21.180   4.010
 1294BOLB   C4D31056  10.650  20.960   4.350
 1295BOLB   NC131057  16.010  21.830   8.570
 1295BOLB   PO131058  15.920  22.230   8.430
 1295BOLB   GL131059  16.070  22.520   8.200
 1295BOLB   GL231060  15.980  22.710   8.050
 1295BOLB   C1A31061  16.430  22.500   7.960
 1295BOLB   C2A31062  16.700  22.570   7.670
 1295BOLB   C3A31063  16.960  22.550   7.400
 1295BOLB   C4A31064  17.080  22.660   7.020
 1295BOLB   C1B31065  16.300  23.030   7.830
 1295BOLB   C2B31066  16.650  23.040   7.610
 1295BOLB   C3B31067  16.920  23.040   7.320
 1295BOLB   C4B31068  17.190  23.170   7.060
 1295BOLB   NC231069  18.920  23.880   6.150
 1295BOLB   PO231070  18.770  23.440   6.150
 1295BOLB   GL331071  18.450  23.500   6.430
 1295BOLB   GL431072  18.430  23.820   6.340
 1295BOLB   C1C31073  18.220  23.130   6.540
 1295BOLB   C2C31074  17.870  22.960   6.460
 1295BOLB   C3C31075  17.510  22.910   6.530
 1295BOLB   C4C31076  17.120  22.810   6.700
 1295BOLB   C1D31077  18.080  23.900   6.490
 1295BOLB   C2D31078  17.860  23.720   6.930
 1295BOLB   C3D31079  17.620  23.430   7.270
 1295BOLB   C4D31080  17.310  23.330   7.520
 1296BOLB   NC131081   8.690  24.570   9.880
 1296BOLB   PO131082   8.350  24.690   9.730
 1296BOLB   GL131083   8.320  24.740   9.340
 1296BOLB   GL231084   8.250  24.550   9.090
 1296BOLB   C1A31085   8.330  25.050   9.000
 1296BOLB   C2A31086   8.220  25.400   8.820
 1296BOLB   C3A31087   8.050  25.810   8.650
 1296BOLB   C4A31088   8.210  26.160   8.480
 1296BOLB   C1B31089   8.120  24.720   8.690
 1296BOLB   C2B31090   8.010  24.850   8.320
 1296BOLB   C3B31091   8.190  24.870   7.910
 1296BOLB   C4B31092   8.430  24.890   7.680
 1296BOLB   NC231093   7.340  28.150   7.650
 1296BOLB   PO231094   7.670  28.210   7.350
 1296BOLB   GL331095   7.760  27.790   7.540
 1296BOLB   GL431096   7.630  27.560   7.420
 1296BOLB   C1C31097   7.970  27.620   7.780
 1296BOLB   C2C31098   8.150  27.260   7.900
 1296BOLB   C3C31099   8.240  26.850   8.100
 1296BOLB   C4C31100   8.190  26.510   8.400
 1296BOLB   C1D31101   7.720  27.240   7.570
 1296BOLB   C2D31102   7.910  26.780   7.720
 1296BOLB   C3D31103   8.110  26.400   7.950
 1296BOLB   C4D31104   8.430  26.100   8.010
 1297BOLB   NC131105   9.670  11.550  12.740
 1297BOLB   PO131106   9.930  11.150  12.640
 1297BOLB   GL131107   9.710  10.710  12.560
 1297BOLB   GL231108   9.790  10.460  12.350
 1297BOLB   C1A31109   9.370  10.530  12.160
 1297BOLB   C2A31110   9.600  10.160  11.960
 1297BOLB   C3A31111   9.540   9.980  11.520
 1297BOLB   C4A31112   9.700   9.600  11.280
 1297BOLB   C1B31113   9.950  10.040  12.300
 1297BOLB   C2B31114  10.020   9.520  12.270
 1297BOLB   C3B31115   9.810   9.200  12.340
 1297BOLB   C4B31116   9.580   8.920  12.090
 1297BOLB   NC231117   9.200   7.360  10.340
 1297BOLB   PO231118   8.910   7.510  10.630
 1297BOLB   GL331119   8.860   7.810  10.860
 1297BOLB   GL431120   8.580   7.890  10.930
 1297BOLB   C1C31121   9.020   8.210  10.750
 1297BOLB   C2C31122   9.180   8.620  10.950
 1297BOLB   C3C31123   9.500   8.960  11.180
 1297BOLB   C4C31124   9.880   9.280  11.180
 1297BOLB   C1D31125   8.710   8.250  11.140
 1297BOLB   C2D31126   9.030   8.170  11.460
 1297BOLB   C3D31127   9.010   8.130  11.900
 1297BOLB   C4D31128   9.150   7.760  12.240
 1298BOLB   NC131129  15.440  26.050  17.770
 1298BOLB   PO131130  15.230  26.290  17.600
 1298BOLB   GL131131  15.390  26.680  17.750
 1298BOLB   GL231132  15.640  26.790  17.530
 1298BOLB   C1A31133  15.780  26.880  18.060
 1298BOLB   C2A31134  16.230  26.940  18.220
 1298BOLB   C3A31135  16.520  26.920  18.560
 1298BOLB   C4A31136  16.930  27.000  18.580
 1298BOLB   C1B31137  15.760  27.180  17.280
 1298BOLB   C2B31138  16.050  27.480  17.510
 1298BOLB   C3B31139  16.450  27.750  17.610
 1298BOLB   C4B31140  16.830  27.760  17.560
 1298BOLB   NC231141  19.120  28.320  18.820
 1298BOLB   PO231142  18.800  28.600  19.130
 1298BOLB   GL331143  18.650  28.210  18.800
 1298BOLB   GL431144  18.600  28.220  18.460
 1298BOLB   C1C31145  18.300  27.980  18.760
 1298BOLB   C2C31146  17.960  27.760  18.880
 1298BOLB   C3C31147  17.740  27.320  18.860
 1298BOLB   C4C31148  17.430  27.090  18.680
 1298BOLB   C1D31149  18.540  27.970  18.080
 1298BOLB   C2D31150  18.490  27.730  17.770
 1298BOLB   C3D31151  18.290  27.590  17.360
 1298BOLB   C4D31152  17.980  27.410  17.210
 1299BOLB   NC131153   2.210  15.270  13.980
 1299BOLB   PO131154   2.300  15.030  13.620
 1299BOLB   GL131155   1.920  14.790  13.800
 1299BOLB   GL231156   1.770  15.060  13.850
 1299BOLB   C1A31157   1.600  14.630  13.740
 1299BOLB   C2A31158   1.500  14.300  13.530
 1299BOLB   C3A31159   1.230  13.930  13.670
 1299BOLB   C4A31160   1.260  13.500  13.700
 1299BOLB   C1B31161   1.280  15.230  13.740
 1299BOLB   C2B31162   0.830  15.280  13.800
 1299BOLB   C3B31163   0.470  15.610  13.640
 1299BOLB   C4B31164   0.060  15.840  13.520
 1299BOLB   NC231165   0.840  11.770  12.020
 1299BOLB   PO231166   1.120  11.530  12.230
 1299BOLB   GL331167   0.900  11.930  12.460
 1299BOLB   GL431168   1.120  12.090  12.390
 1299BOLB   C1C31169   0.740  12.340  12.730
 1299BOLB   C2C31170   0.660  12.740  12.860
 1299BOLB   C3C31171   0.840  13.100  13.060
 1299BOLB   C4C31172   1.070  13.180  13.440
 1299BOLB   C1D31173   1.190  12.490  12.620
 1299BOLB   C2D31174   1.520  12.830  12.580
 1299BOLB   C3D31175   1.570  13.230  12.630
 1299BOLB   C4D31176   1.230  13.480  12.820
 1300BOLB   NC131177   8.960  14.320   8.950
 1300BOLB   PO131178   8.570  14.530   8.940
 1300BOLB   GL131179   8.490  14.220   8.710
 1300BOLB   GL231180   8.290  14.040   8.710
 1300BOLB   C1A31181   8.430  14.150   8.220
 1300BOLB   C2A31182   8.200  13.910   7.880
 1300BOLB   C3A31183   8.010  13.530   7.900
 1300BOLB   C4A31184   7.890  13.160   7.610
 1300BOLB   C1B31185   8.060  13.850   8.450
 1300BOLB   C2B31186   7.720  13.580   8.260
 1300BOLB   C3B31187   7.460  13.320   8.090
 1300BOLB   C4B31188   7.070  13.250   7.890
 1300BOLB   NC231189   6.790  12.080   5.800
 1300BOLB   PO231190   7.150  11.760   5.670
 1300BOLB   GL331191   7.300  11.950   6.050
 1300BOLB   GL431192   7.530  11.780   6.340
 1300BOLB   C1C31193   7.300  12.300   6.370
 1300BOLB   C2C31194   7.590  12.370   6.720
 1300BOLB   C3C31195   7.670  12.690   7.000
 1300BOLB   C4C31196   7.930  13.020   7.220
 1300BOLB   C1D31197   7.910  11.980   6.560
 1300BOLB   C2D31198   8.130  12.270   6.750
 1300BOLB   C3D31199   8.520  12.440   6.920
 1300BOLB   C4D31200   8.810  12.620   7.270
 1301BOLB   NC131201  11.850  23.000   8.620
 1301BOLB   PO131202  11.750  22.830   8.140
 1301BOLB   GL131203  11.900  22.940   7.790
 1301BOLB   GL231204  12.000  23.220   7.770
 1301BOLB   C1A31205  11.730  22.990   7.380
 1301BOLB   C2A31206  11.530  23.270   7.160
 1301BOLB   C3A31207  11.510  23.540   6.810
 1301BOLB   C4A31208  11.370  23.810   6.520
 1301BOLB   C1B31209  11.970  23.560   7.520
 1301BOLB   C2B31210  12.050  23.570   7.120
 1301BOLB   C3B31211  12.060  23.770   6.780
 1301BOLB   C4B31212  11.780  24.020   6.780
 1301BOLB   NC231213  11.500  24.880   4.190
 1301BOLB   PO231214  11.310  24.760   4.430
 1301BOLB   GL331215  11.180  24.690   4.840
 1301BOLB   GL431216  11.150  24.380   4.760
 1301BOLB   C1C31217  11.190  24.500   5.240
 1301BOLB   C2C31218  11.370  24.390   5.540
 1301BOLB   C3C31219  11.400  24.070   5.810
 1301BOLB   C4C31220  11.440  23.950   6.220
 1301BOLB   C1D31221  11.500  24.300   4.940
 1301BOLB   C2D31222  11.730  24.230   5.180
 1301BOLB   C3D31223  11.790  23.890   5.540
 1301BOLB   C4D31224  11.670  23.600   5.830
 1302BOLB   NC131225  15.530  16.020   7.710
 1302BOLB   PO131226  15.530  15.660   7.920
 1302BOLB   GL131227  15.670  15.570   7.480
 1302BOLB   GL231228  15.280  15.620   7.390
 1302BOLB   C1A31229  16.100  15.710   7.330
 1302BOLB   C2A31230  16.340  15.970   7.020
 1302BOLB   C3A31231  16.650  15.840   6.730
 1302BOLB   C4A31232  16.630  15.530   6.380
 1302BOLB   C1B31233  15.560  15.730   7.040
 1302BOLB   C2B31234  15.930  15.550   6.860
 1302BOLB   C3B31235  16.370  15.380   7.000
 1302BOLB   C4B31236  16.740  15.280   6.840
 1302BOLB   NC231237  18.140  14.820   4.840
 1302BOLB   PO231238  18.370  14.610   5.100
 1302BOLB   GL331239  18.050  14.910   5.340
 1302BOLB   GL431240  17.930  14.550   5.460
 1302BOLB   C1C31241  17.920  15.130   5.690
 1302BOLB   C2C31242  17.580  15.220   5.910
 1302BOLB   C3C31243  17.400  15.110   6.250
 1302BOLB   C4C31244  16.930  15.140   6.380
 1302BOLB   C1D31245  17.570  14.680   5.400
 1302BOLB   C2D31246  17.260  14.910   5.740
 1302BOLB   C3D31247  17.030  15.100   5.930
 1302BOLB   C4D31248  16.500  15.280   5.970
 1303BOLB   NC131249   9.330  20.130   7.590
 1303BOLB   PO131250   9.450  20.020   7.140
 1303BOLB   GL131251   9.510  20.160   6.790
 1303BOLB   GL231252   9.300  20.360   6.550
 1303BOLB   C1A31253   9.850  20.210   6.310
 1303BOLB   C2A31254   9.820  20.430   5.930
 1303BOLB   C3A31255  10.020  20.570   5.470
 1303BOLB   C4A31256  10.430  20.530   5.320
 1303BOLB   C1B31257   8.990  20.610   6.290
 1303BOLB   C2B31258   8.940  20.900   6.030
 1303BOLB   C3B31259   8.670  20.930   5.620
 1303BOLB   C4B31260   8.410  21.120   5.300
 1303BOLB   NC231261   9.820  21.890   3.160
 1303BOLB   PO231262  10.230  21.730   3.110
 1303BOLB   GL331263  10.210  21.670   3.550
 1303BOLB   GL431264  10.090  22.020   3.570
 1303BOLB   C1C31265  10.340  21.590   4.050
 1303BOLB   C2C31266  10.470  21.440   4.380
 1303BOLB   C3C31267  10.520  21.200   4.850
 1303BOLB   C4C31268  10.580  20.770   4.940
 1303BOLB   C1D31269  10.200  22.070   4.000
 1303BOLB   C2D31270  10.110  21.930   4.430
 1303BOLB   C3D31271  10.090  21.620   4.710
 1303BOLB   C4D31272  10.310  21.630   5.100
 1304BOLB   NC131273  13.170   7.900  10.760
 1304BOLB   PO131274  13.550   7.780  10.410
 1304BOLB   GL131275  13.680   8.130  10.550
 1304BOLB   GL231276  13.420   8.360  10.740
 1304BOLB   C1A31277  13.700   8.620  10.330
 1304BOLB   C2A31278  13.580   8.940  10.220
 1304BOLB   C3A31279  13.380   9.230  10.000
 1304BOLB   C4A31280  13.220   9.580  10.260
 1304BOLB   C1B31281  13.040   8.590  10.910
 1304BOLB   C2B31282  12.620   8.690  11.150
 1304BOLB   C3B31283  12.310   8.860  11.410
 1304BOLB   C4B31284  11.880   8.950  11.520
 1304BOLB   NC231285  12.920  11.550  11.100
 1304BOLB   PO231286  13.130  11.530  11.560
 1304BOLB   GL331287  13.240  11.230  11.320
 1304BOLB   GL431288  12.960  11.020  11.180
 1304BOLB   C1C31289  13.440  10.930  11.010
 1304BOLB   C2C31290  13.410  10.620  10.830
 1304BOLB   C3C31291  13.150  10.220  10.640
 1304BOLB   C4C31292  13.130  10.010  10.330
 1304BOLB   C1D31293  12.900  10.670  10.910
 1304BOLB   C2D31294  12.800  10.630  10.530
 1304BOLB   C3D31295  12.840  10.460  10.150
 1304BOLB   C4D31296  12.620  10.200   9.980
 1305BOLB   NC131297   6.210  27.060  16.260
 1305BOLB   PO131298   6.310  27.490  16.020
 1305BOLB   GL131299   6.240  27.890  16.360
 1305BOLB   GL231300   5.910  27.940  16.600
 1305BOLB   C1A31301   6.160  28.310  16.240
 1305BOLB   C2A31302   6.080  28.770  16.290
 1305BOLB   C3A31303   5.990  29.030  15.920
 1305BOLB   C4A31304   5.980  29.190  15.510
 1305BOLB   C1B31305   5.790  28.290  16.580
 1305BOLB   C2B31306   5.450  28.530  16.670
 1305BOLB   C3B31307   5.120  28.790  16.470
 1305BOLB   C4B31308   4.780  28.760  16.210
 1305BOLB   NC231309   5.230  31.260  16.090
 1305BOLB   PO231310   5.300  31.230  15.600
 1305BOLB   GL331311   5.350  30.800  15.700
 1305BOLB   GL431312   5.040  30.750  15.520
 1305BOLB   C1C31313   5.520  30.430  15.720
 1305BOLB   C2C31314   5.460  30.070  15.760
 1305BOLB   C3C31315   5.410  29.740  15.590
 1305BOLB   C4C31316   5.570  29.380  15.340
 1305BOLB   C1D31317   5.050  30.410  15.470
 1305BOLB   C2D31318   5.140  29.960  15.300
 1305BOLB   C3D31319   5.030  29.530  15.370
 1305BOLB   C4D31320   5.130  29.080  15.340
 1306BOLB   NC131321  10.820  22.230   8.180
 1306BOLB   PO131322  10.730  22.720   8.040
 1306BOLB   GL131323  10.520  23.030   7.810
 1306BOLB   GL231324  10.170  22.920   7.850
 1306BOLB   C1A31325  10.410  23.500   7.580
 1306BOLB   C2A31326  10.140  23.640   7.310
 1306BOLB   C3A31327  10.220  23.970   7.020
 1306BOLB   C4A31328  10.310  24.200   6.720
 1306BOLB   C1B31329   9.970  23.200   7.500
 1306BOLB   C2B31330  10.030  23.220   7.110
 1306BOLB   C3B31331   9.920  23.620   6.780
 1306BOLB   C4B31332   9.960  23.870   6.430
 1306BOLB   NC231333  10.260  25.680   4.940
 1306BOLB   PO231334  10.660  25.360   4.730
 1306BOLB   GL331335  10.750  25.000   4.990
 1306BOLB   GL431336  10.450  24.810   5.030
 1306BOLB   C1C31337  10.800  25.000   5.430
 1306BOLB   C2C31338  10.640  24.610   5.660
 1306BOLB   C3C31339  10.670  24.510   6.080
 1306BOLB   C4C31340  10.550  24.440   6.470
 1306BOLB   C1D31341  10.680  24.500   5.210
 1306BOLB   C2D31342  10.800  24.180   5.410
 1306BOLB   C3D31343  10.850  24.040   5.890
 1306BOLB   C4D31344  10.930  23.850   6.310
 1307BOLB   NC131345  15.730  24.560  12.750
 1307BOLB   PO131346  15.960  24.870  12.520
 1307BOLB   GL131347  16.100  25.160  12.150
 1307BOLB   GL231348  16.040  25.520  12.260
 1307BOLB   C1A31349  16.240  25.250  11.790
 1307BOLB   C2A31350  16.480  25.480  11.480
 1307BOLB   C3A31351  16.640  25.720  11.120
 1307BOLB   C4A31352  16.710  26.180  11.020
 1307BOLB   C1B31353  16.240  25.700  11.940
 1307BOLB   C2B31354  16.440  25.910  11.700
 1307BOLB   C3B31355  16.650  26.330  11.560
 1307BOLB   C4B31356  17.020  26.540  11.580
 1307BOLB   NC231357  18.040  27.920   9.240
 1307BOLB   PO231358  17.550  28.080   9.380
 1307BOLB   GL331359  17.370  27.730   9.530
 1307BOLB   GL431360  17.040  27.710   9.540
 1307BOLB   C1C31361  17.330  27.430   9.960
 1307BOLB   C2C31362  17.180  27.310  10.330
 1307BOLB   C3C31363  16.870  27.000  10.560
 1307BOLB   C4C31364  16.700  26.600  10.720
 1307BOLB   C1D31365  16.990  27.160   9.560
 1307BOLB   C2D31366  16.780  26.730   9.460
 1307BOLB   C3D31367  16.690  26.320   9.750
 1307BOLB   C4D31368  16.440  26.200   9.990
 1308BOLB   NC131369  12.010  22.420   7.600
 1308BOLB   PO131370  12.280  22.570   7.910
 1308BOLB   GL131371  12.440  22.780   7.560
 1308BOLB   GL231372  12.670  22.670   7.270
 1308BOLB   C1A31373  12.330  23.130   7.370
 1308BOLB   C2A31374  12.440  23.320   6.990
 1308BOLB   C3A31375  12.510  23.780   6.920
 1308BOLB   C4A31376  12.490  24.000   6.580
 1308BOLB   C1B31377  12.820  22.880   6.990
 1308BOLB   C2B31378  12.860  23.170   6.630
 1308BOLB   C3B31379  12.990  23.320   6.320
 1308BOLB   C4B31380  13.110  23.410   5.810
 1308BOLB   NC231381  11.440  25.360   4.690
 1308BOLB   PO231382  11.750  25.250   4.410
 1308BOLB   GL331383  11.740  24.880   4.700
 1308BOLB   GL431384  11.620  24.960   4.970
 1308BOLB   C1C31385  12.080  24.810   5.040
 1308BOLB   C2C31386  12.070  24.480   5.440
 1308BOLB   C3C31387  12.270  24.470   5.840
 1308BOLB   C4C31388  12.470  24.190   6.160
 1308BOLB   C1D31389  11.670  24.770   5.400
 1308BOLB   C2D31390  11.690  24.550   5.810
 1308BOLB   C3D31391  11.870  24.160   6.070
 1308BOLB   C4D31392  12.070  23.920   6.330
 1309BOLB   NC131393   4.600  22.200   9.800
 1309BOLB   PO131394   4.330  22.600   9.840
 1309BOLB   GL131395   4.190  23.020   9.820
 1309BOLB   GL231396   4.080  22.930   9.480
 1309BOLB   C1A31397   3.900  23.510   9.850
 1309BOLB   C2A31398   3.720  23.810   9.500
 1309BOLB   C3A31399   3.560  24.100   9.370
 1309BOLB   C4A31400   3.420  24.570   9.570
 1309BOLB   C1B31401   3.620  23.090   9.480
 1309BOLB   C2B31402   3.160  23.080   9.460
 1309BOLB   C3B31403   2.840  22.920   9.250
 1309BOLB   C4B31404   2.720  23.020   8.860
 1309BOLB   NC231405   2.550  26.470   8.380
 1309BOLB   PO231406   2.210  26.320   8.570
 1309BOLB   GL331407   2.440  25.940   8.680
 1309BOLB   GL431408   2.390  26.010   8.960
 1309BOLB   C1C31409   2.450  25.490   8.760
 1309BOLB   C2C31410   2.680  25.090   8.780
 1309BOLB   C3C31411   2.860  24.760   9.040
 1309BOLB   C4C31412   3.180  24.810   9.380
 1309BOLB   C1D31413   2.690  26.120   9.320
 1309BOLB   C2D31414   3.090  26.320   9.640
 1309BOLB   C3D31415   3.390  26.100   9.800
 1309BOLB   C4D31416   3.820  26.100  10.020
 1310BOLB   NC131417  10.990  10.950  13.080
 1310BOLB   PO131418  11.340  11.100  12.820
 1310BOLB   GL131419  11.220  10.750  12.540
 1310BOLB   GL231420  11.090  10.490  12.770
 1310BOLB   C1A31421  11.140  10.270  12.330
 1310BOLB   C2A31422  11.310   9.890  12.290
 1310BOLB   C3A31423  11.490   9.510  12.280
 1310BOLB   C4A31424  11.800   9.200  12.310
 1310BOLB   C1B31425  11.210  10.100  12.870
 1310BOLB   C2B31426  11.600   9.850  12.760
 1310BOLB   C3B31427  11.860   9.570  12.630
 1310BOLB   C4B31428  12.200   9.360  12.630
 1310BOLB   NC231429  11.920   7.540  11.010
 1310BOLB   PO231430  11.770   7.250  11.240
 1310BOLB   GL331431  11.660   7.590  11.470
 1310BOLB   GL431432  11.460   7.780  11.230
 1310BOLB   C1C31433  11.530   7.970  11.660
 1310BOLB   C2C31434  11.690   8.210  11.840
 1310BOLB   C3C31435  11.510   8.380  12.240
 1310BOLB   C4C31436  11.570   8.800  12.390
 1310BOLB   C1D31437  11.520   8.290  11.310
 1310BOLB   C2D31438  11.440   8.530  11.610
 1310BOLB   C3D31439  11.100   8.700  11.960
 1310BOLB   C4D31440  10.730   8.680  12.180
 1311BOLB   NC131441   3.620  17.330  10.560
 1311BOLB   PO131442   3.460  17.800  10.570
 1311BOLB   GL131443   3.070  18.020  10.360
 1311BOLB   GL231444   3.020  18.010   9.990
 1311BOLB   C1A31445   2.650  17.880  10.280
 1311BOLB   C2A31446   2.340  17.610  10.020
 1311BOLB   C3A31447   2.270  17.190   9.910
 1311BOLB   C4A31448   2.270  16.750   9.980
 1311BOLB   C1B31449   2.850  18.020   9.630
 1311BOLB   C2B31450   2.480  18.000   9.430
 1311BOLB   C3B31451   2.130  18.010   9.160
 1311BOLB   C4B31452   1.810  18.270   9.070
 1311BOLB   NC231453   0.090  16.010   8.810
 1311BOLB   PO231454   0.160  16.460   8.760
 1311BOLB   GL331455   0.480  16.210   9.020
 1311BOLB   GL431456   0.650  16.190   8.760
 1311BOLB   C1C31457   0.950  16.280   9.180
 1311BOLB   C2C31458   1.340  16.380   9.300
 1311BOLB   C3C31459   1.530  16.260   9.640
 1311BOLB   C4C31460   1.930  16.410   9.890
 1311BOLB   C1D31461   1.130  15.920   8.730
 1311BOLB   C2D31462   1.560  16.140   8.940
 1311BOLB   C3D31463   1.860  16.310   9.240
 1311BOLB   C4D31464   2.310  16.520   9.390
 1312BOLB   NC131465   6.900  25.370  11.130
 1312BOLB   PO131466   6.790  25.830  11.130
 1312BOLB   GL131467   7.050  26.190  11.260
 1312BOLB   GL231468   7.380  26.180  11.100
 1312BOLB   C1A31469   6.930  26.530  11.160
 1312BOLB   C2A31470   6.590  26.870  11.050
 1312BOLB   C3A31471   6.280  27.020  10.960
 1312BOLB   C4A31472   6.100  26.990  10.510
 1312BOLB   C1B31473   7.520  26.510  10.940
 1312BOLB   C2B31474   7.660  26.850  10.800
 1312BOLB   C3B31475   7.860  27.120  10.490
 1312BOLB   C4B31476   7.910  27.440  10.180
 1312BOLB   NC231477   5.380  28.520   8.970
 1312BOLB   PO231478   5.360  28.180   8.670
 1312BOLB   GL331479   5.480  27.920   9.000
 1312BOLB   GL431480   5.750  27.860   8.850
 1312BOLB   C1C31481   5.500  27.770   9.510
 1312BOLB   C2C31482   5.370  27.660   9.880
 1312BOLB   C3C31483   5.420  27.370  10.230
 1312BOLB   C4C31484   5.700  27.130  10.340
 1312BOLB   C1D31485   5.890  27.860   9.230
 1312BOLB   C2D31486   6.040  27.550   9.390
 1312BOLB   C3D31487   6.370  27.320   9.600
 1312BOLB   C4D31488   6.630  26.970   9.800
 1313BOLB   NC131489  16.080  21.430   8.220
 1313BOLB   PO131490  15.680  21.720   8.100
 1313BOLB   GL131491  16.080  21.810   7.960
 1313BOLB   GL231492  16.040  21.900   7.640
 1313BOLB   C1A31493  16.490  22.020   7.730
 1313BOLB   C2A31494  16.630  22.090   7.400
 1313BOLB   C3A31495  17.090  22.120   7.130
 1313BOLB   C4A31496  17.290  22.320   6.750
 1313BOLB   C1B31497  15.890  21.660   7.250
 1313BOLB   C2B31498  16.120  21.650   6.790
 1313BOLB   C3B31499  15.900  21.620   6.390
 1313BOLB   C4B31500  15.480  21.800   6.120
 1313BOLB   NC231501  18.880  22.440   5.620
 1313BOLB   PO231502  19.210  22.190   5.670
 1313BOLB   GL331503  18.850  21.870   5.680
 1313BOLB   GL431504  18.970  21.690   5.840
 1313BOLB   C1C31505  18.430  21.940   5.850
 1313BOLB   C2C31506  18.140  22.200   5.930
 1313BOLB   C3C31507  17.800  22.130   6.150
 1313BOLB   C4C31508  17.520  22.400   6.410
 1313BOLB   C1D31509  18.630  21.540   6.130
 1313BOLB   C2D31510  18.440  21.520   6.530
 1313BOLB   C3D31511  18.290  21.580   7.100
 1313BOLB   C4D31512  18.160  21.690   7.520
 1314BOLB   NC131513  11.620  26.300  11.720
 1314BOLB   PO131514  11.570  26.700  11.630
 1314BOLB   GL131515  11.190  26.910  11.660
 1314BOLB   GL231516  11.340  27.180  11.550
 1314BOLB   C1A31517  10.910  27.080  11.520
 1314BOLB   C2A31518  10.640  27.210  11.230
 1314BOLB   C3A31519  10.670  27.510  10.850
 1314BOLB   C4A31520  10.710  27.970  10.640
 1314BOLB   C1B31521  11.170  27.400  11.160
 1314BOLB   C2B31522  10.940  27.730  11.250
 1314BOLB   C3B31523  10.720  28.060  11.460
 1314BOLB   C4B31524  11.050  28.410  11.640
 1314BOLB   NC231525  10.660  30.210   9.500
 1314BOLB   PO231526  10.570  29.870   9.390
 1314BOLB   GL331527  10.250  29.590   9.570
 1314BOLB   GL431528   9.890  29.470   9.510
 1314BOLB   C1C31529  10.200  29.290   9.910
 1314BOLB   C2C31530  10.240  28.900  10.200
 1314BOLB   C3C31531  10.210  28.520  10.210
 1314BOLB   C4C31532  10.550  28.210  10.330
 1314BOLB   C1D31533  10.120  29.080   9.450
 1314BOLB   C2D31534  10.170  28.650   9.290
 1314BOLB   C3D31535  10.320  28.340   9.400
 1314BOLB   C4D31536  10.360  27.880   9.500
 1315BOLB   NC131537   7.730  26.610  13.460
 1315BOLB   PO131538   8.060  26.990  13.290
 1315BOLB   GL131539   7.990  27.350  13.160
 1315BOLB   GL231540   8.080  27.470  13.470
 1315BOLB   C1A31541   7.810  27.630  12.800
 1315BOLB   C2A31542   7.960  27.890  12.420
 1315BOLB   C3A31543   7.910  28.270  12.180
 1315BOLB   C4A31544   7.840  28.790  12.120
 1315BOLB   C1B31545   7.990  27.930  13.450
 1315BOLB   C2B31546   8.020  28.320  13.430
 1315BOLB   C3B31547   7.850  28.690  13.500
 1315BOLB   C4B31548   7.620  29.100  13.690
 1315BOLB   NC231549   8.880  30.640  10.390
 1315BOLB   PO231550   8.750  30.370  10.580
 1315BOLB   GL331551   8.610  30.050  10.760
 1315BOLB   GL431552   8.650  29.780  10.540
 1315BOLB   C1C31553   8.550  29.820  11.100
 1315BOLB   C2C31554   8.610  29.670  11.450
 1315BOLB   C3C31555   8.320  29.420  11.680
 1315BOLB   C4C31556   8.190  29.070  12.030
 1315BOLB   C1D31557   8.930  29.520  10.360
 1315BOLB   C2D31558   9.310  29.320  10.470
 1315BOLB   C3D31559   9.460  28.980  10.680
 1315BOLB   C4D31560   9.410  28.560  10.680
 1316BOLB   NC131561   2.870  19.630  10.490
 1316BOLB   PO131562   3.020  19.260  10.510
 1316BOLB   GL131563   2.610  19.250  10.400
 1316BOLB   GL231564   2.230  18.940  10.510
 1316BOLB   C1A31565   2.290  19.240  10.120
 1316BOLB   C2A31566   1.970  19.170   9.940
 1316BOLB   C3A31567   1.590  18.830   9.820
 1316BOLB   C4A31568   1.470  18.460   9.540
 1316BOLB   C1B31569   1.790  18.830  10.290
 1316BOLB   C2B31570   1.270  18.940  10.330
 1316BOLB   C3B31571   1.110  19.130  10.020
 1316BOLB   C4B31572   0.930  19.520   9.740
 1316BOLB   NC231573   0.040  17.870   8.280
 1316BOLB   PO231574   0.330  17.490   8.340
 1316BOLB   GL331575   0.680  17.290   8.590
 1316BOLB   GL431576   0.550  17.140   8.820
 1316BOLB   C1C31577   1.120  17.260   8.800
 1316BOLB   C2C31578   1.490  17.450   8.960
 1316BOLB   C3C31579   1.700  17.750   9.290
 1316BOLB   C4C31580   1.600  18.020   9.580
 1316BOLB   C1D31581   0.680  17.460   9.080
 1316BOLB   C2D31582   1.100  17.570   9.230
 1316BOLB   C3D31583   1.300  17.570   9.570
 1316BOLB   C4D31584   1.250  17.680   9.960
 1317BOLB   NC131585   5.890  23.520  11.050
 1317BOLB   PO131586   5.600  23.870  10.730
 1317BOLB   GL131587   5.700  24.190  10.330
 1317BOLB   GL231588   5.410  24.100  10.170
 1317BOLB   C1A31589   5.420  24.630  10.190
 1317BOLB   C2A31590   5.220  25.000   9.980
 1317BOLB   C3A31591   5.240  25.340   9.620
 1317BOLB   C4A31592   5.080  25.540   9.250
 1317BOLB   C1B31593   5.250  24.070   9.650
 1317BOLB   C2B31594   5.060  24.270   9.370
 1317BOLB   C3B31595   4.830  24.510   9.090
 1317BOLB   C4B31596   4.800  24.730   8.640
 1317BOLB   NC231597   3.460  26.090   7.330
 1317BOLB   PO231598   3.420  26.170   7.710
 1317BOLB   GL331599   3.600  25.980   8.050
 1317BOLB   GL431600   3.620  26.130   8.250
 1317BOLB   C1C31601   3.880  25.650   8.170
 1317BOLB   C2C31602   4.280  25.490   8.220
 1317BOLB   C3C31603   4.610  25.570   8.380
 1317BOLB   C4C31604   4.790  25.550   8.880
 1317BOLB   C1D31605   4.090  26.000   8.410
 1317BOLB   C2D31606   4.240  25.700   8.700
 1317BOLB   C3D31607   4.190  25.470   8.980
 1317BOLB   C4D31608   4.090  25.220   9.450
 1318BOLB   NC131609  17.020  19.830   8.570
 1318BOLB   PO131610  16.650  19.560   8.320
 1318BOLB   GL131611  16.800  19.810   8.060
 1318BOLB   GL231612  16.650  19.910   7.880
 1318BOLB   C1A31613  17.130  19.590   7.870
 1318BOLB   C2A31614  17.320  19.540   7.560
 1318BOLB   C3A31615  17.390  19.710   7.140
 1318BOLB   C4A31616  17.380  20.050   6.690
 1318BOLB   C1B31617  16.890  19.950   7.480
 1318BOLB   C2B31618  17.300  20.230   7.220
 1318BOLB   C3B31619  17.600  20.360   7.040
 1318BOLB   C4B31620  17.830  20.680   6.870
 1318BOLB   NC231621  19.250  19.770   4.580
 1318BOLB   PO231622  18.960  19.630   4.840
 1318BOLB   GL331623  18.700  19.600   5.130
 1318BOLB   GL431624  18.680  19.360   5.310
 1318BOLB   C1C31625  18.450  19.810   5.390
 1318BOLB   C2C31626  18.090  19.830   5.650
 1318BOLB   C3C31627  17.880  19.940   5.970
 1318BOLB   C4C31628  17.550  20.000   6.280
 1318BOLB   C1D31629  18.310  19.350   5.630
 1318BOLB   C2D31630  18.060  19.370   5.960
 1318BOLB   C3D31631  17.770  19.360   6.310
 1318BOLB   C4D31632  17.430  19.460   6.600
 1319BOLB   NC131633  15.240  21.200   7.850
 1319BOLB   PO131634  14.880  21.090   7.550
 1319BOLB   GL131635  14.900  20.990   7.090
 1319BOLB   GL231636  14.690  20.840   6.870
 1319BOLB   C1A31637  15.140  21.250   6.870
 1319BOLB   C2A31638  15.440  21.540   6.880
 1319BOLB   C3A31639  15.640  21.870   6.850
 1319BOLB   C4A31640  16.010  22.130   6.630
 1319BOLB   C1B31641  14.790  20.660   6.580
 1319BOLB   C2B31642  14.890  21.070   6.420
 1319BOLB   C3B31643  14.910  21.480   6.400
 1319BOLB   C4B31644  14.630  21.880   6.490
 1319BOLB   NC231645  17.990  23.040   5.370
 1319BOLB   PO231646  18.240  23.220   5.680
 1319BOLB   GL331647  17.990  23.050   5.910
 1319BOLB   GL431648  18.030  23.350   6.160
 1319BOLB   C1C31649  17.490  22.810   6.060
 1319BOLB   C2C31650  17.110  22.630   6.130
 1319BOLB   C3C31651  16.810  22.450   6.360
 1319BOLB   C4C31652  16.350  22.330   6.470
 1319BOLB   C1D31653  17.710  23.560   6.470
 1319BOLB   C2D31654  17.420  23.480   6.710
 1319BOLB   C3D31655  16.930  23.540   6.750
 1319BOLB   C4D31656  16.690  23.380   7.090
 1320BOLB   NC131657  14.630  18.440   6.990
 1320BOLB   PO131658  14.930  18.810   6.850
 1320BOLB   GL131659  14.900  18.730   6.490
 1320BOLB   GL231660  15.070  18.970   6.350
 1320BOLB   C1A31661  14.850  18.600   6.030
 1320BOLB   C2A31662  14.990  18.490   5.630
 1320BOLB   C3A31663  14.830  18.570   5.160
 1320BOLB   C4A31664  14.510  18.880   4.960
 1320BOLB   C1B31665  15.180  19.490   6.370
 1320BOLB   C2B31666  15.400  19.720   6.050
 1320BOLB   C3B31667  15.450  19.820   5.660
 1320BOLB   C4B31668  15.170  19.690   5.300
 1320BOLB   NC231669  14.890  18.550   2.740
 1320BOLB   PO231670  14.720  18.170   2.650
 1320BOLB   GL331671  14.710  18.210   3.130
 1320BOLB   GL431672  14.850  17.900   3.400
 1320BOLB   C1C31673  14.620  18.350   3.570
 1320BOLB   C2C31674  14.470  18.510   3.880
 1320BOLB   C3C31675  14.400  18.680   4.280
 1320BOLB   C4C31676  14.270  18.930   4.650
 1320BOLB   C1D31677  14.530  17.690   3.660
 1320BOLB   C2D31678  14.160  17.750   3.770
 1320BOLB   C3D31679  13.730  17.770   3.820
 1320BOLB   C4D31680  13.330  17.840   3.770
 1321BOLB   NC131681  15.610  26.490  15.430
 1321BOLB   PO131682  15.960  26.290  15.170
 1321BOLB   GL131683  16.210  26.520  15.180
 1321BOLB   GL231684  16.430  26.410  15.310
 1321BOLB   C1A31685  16.520  26.860  15.220
 1321BOLB   C2A31686  16.730  27.070  14.820
 1321BOLB   C3A31687  16.860  27.480  14.640
 1321BOLB   C4A31688  16.840  27.970  14.640
 1321BOLB   C1B31689  16.560  26.750  15.670
 1321BOLB   C2B31690  16.850  27.080  15.750
 1321BOLB   C3B31691  16.870  27.350  15.480
 1321BOLB   C4B31692  17.120  27.370  15.060
 1321BOLB   NC231693  18.360  29.570  14.780
 1321BOLB   PO231694  18.540  29.620  15.160
 1321BOLB   GL331695  18.160  29.420  15.240
 1321BOLB   GL431696  18.030  29.230  15.520
 1321BOLB   C1C31697  17.980  29.020  15.040
 1321BOLB   C2C31698  17.630  28.770  15.100
 1321BOLB   C3C31699  17.350  28.390  14.900
 1321BOLB   C4C31700  17.040  28.310  14.720
 1321BOLB   C1D31701  17.960  28.890  15.520
 1321BOLB   C2D31702  17.680  28.470  15.510
 1321BOLB   C3D31703  17.340  28.130  15.490
 1321BOLB   C4D31704  17.280  27.720  15.520
 1322BOLB   NC131705  12.730  12.850  10.030
 1322BOLB   PO131706  12.640  12.380   9.980
 1322BOLB   GL131707  12.550  12.100   9.820
 1322BOLB   GL231708  12.770  11.910   9.700
 1322BOLB   C1A31709  12.290  11.770   9.500
 1322BOLB   C2A31710  12.300  11.350   9.330
 1322BOLB   C3A31711  12.290  10.960   9.130
 1322BOLB   C4A31712  12.180  10.550   8.850
 1322BOLB   C1B31713  12.760  11.580   9.410
 1322BOLB   C2B31714  12.820  11.430   9.010
 1322BOLB   C3B31715  12.870  11.390   8.500
 1322BOLB   C4B31716  12.730  11.520   8.110
 1322BOLB   NC231717  12.080   8.370   8.200
 1322BOLB   PO231718  11.710   8.550   8.120
 1322BOLB   GL331719  11.780   8.850   8.360
 1322BOLB   GL431720  11.740   9.130   8.250
 1322BOLB   C1C31721  12.090   8.930   8.600
 1322BOLB   C2C31722  12.060   9.330   8.820
 1322BOLB   C3C31723  12.210   9.730   8.900
 1322BOLB   C4C31724  12.160  10.140   8.760
 1322BOLB   C1D31725  11.700   9.440   8.510
 1322BOLB   C2D31726  11.720   9.880   8.630
 1322BOLB   C3D31727  11.710  10.370   8.790
 1322BOLB   C4D31728  11.750  10.750   9.020
 1323BOLB   NC131729  16.950  12.940  12.830
 1323BOLB   PO131730  17.150  13.330  13.010
 1323BOLB   GL131731  17.400  13.110  12.750
 1323BOLB   GL231732  17.470  13.080  12.410
 1323BOLB   C1A31733  17.640  12.650  12.790
 1323BOLB   C2A31734  18.040  12.220  12.710
 1323BOLB   C3A31735  18.250  11.770  12.570
 1323BOLB   C4A31736  18.460  11.510  12.780
 1323BOLB   C1B31737  17.840  12.860  12.310
 1323BOLB   C2B31738  18.140  12.750  12.030
 1323BOLB   C3B31739  18.620  12.810  11.900
 1323BOLB   C4B31740  18.980  13.070  11.770
 1323BOLB   NC231741  20.280  10.500  12.630
 1323BOLB   PO231742  20.280  10.150  12.910
 1323BOLB   GL331743  19.850  10.400  12.910
 1323BOLB   GL431744  19.800  10.700  12.720
 1323BOLB   C1C31745  19.670  10.710  13.170
 1323BOLB   C2C31746  19.440  11.100  13.170
 1323BOLB   C3C31747  19.010  11.180  12.950
 1323BOLB   C4C31748  18.700  11.270  12.910
 1323BOLB   C1D31749  19.590  11.080  12.630
 1323BOLB   C2D31750  19.280  11.200  12.550
 1323BOLB   C3D31751  18.840  11.110  12.450
 1323BOLB   C4D31752  18.420  11.280  12.260
 1324BOLB   NC131753  12.180  24.730   9.710
 1324BOLB   PO131754  12.070  25.070   9.420
 1324BOLB   GL131755  11.760  25.230   9.100
 1324BOLB   GL231756  11.610  25.420   9.350
 1324BOLB   C1A31757  11.690  25.210   8.690
 1324BOLB   C2A31758  11.380  25.210   8.320
 1324BOLB   C3A31759  11.100  25.390   8.040
 1324BOLB   C4A31760  10.980  25.630   7.640
 1324BOLB   C1B31761  11.670  25.680   9.040
 1324BOLB   C2B31762  11.780  25.640   8.490
 1324BOLB   C3B31763  11.980  25.900   8.170
 1324BOLB   C4B31764  12.110  26.180   7.850
 1324BOLB   NC231765  10.860  26.420   5.020
 1324BOLB   PO231766  11.280  26.510   5.320
 1324BOLB   GL331767  11.510  26.280   5.650
 1324BOLB   GL431768  11.840  26.340   5.650
 1324BOLB   C1C31769  11.270  26.130   6.020
 1324BOLB   C2C31770  10.990  26.060   6.340
 1324BOLB   C3C31771  10.910  26.050   6.750
 1324BOLB   C4C31772  11.030  25.730   7.190
 1324BOLB   C1D31773  12.060  26.340   6.050
 1324BOLB   C2D31774  12.430  26.030   6.080
 1324BOLB   C3D31775  12.500  25.680   5.940
 1324BOLB   C4D31776  12.440  25.270   5.970
 1325BOLB   NC131777   9.330  21.840   7.680
 1325BOLB   PO131778   9.620  21.980   7.570
 1325BOLB   GL131779   9.520  21.860   7.190
 1325BOLB   GL231780   9.600  21.850   6.850
 1325BOLB   C1A31781   9.180  21.630   6.860
 1325BOLB   C2A31782   9.260  21.750   6.420
 1325BOLB   C3A31783   9.350  22.030   6.120
 1325BOLB   C4A31784   9.520  22.100   5.710
 1325BOLB   C1B31785   9.360  22.260   6.560
 1325BOLB   C2B31786   9.260  22.500   6.130
 1325BOLB   C3B31787   9.480  22.850   6.020
 1325BOLB   C4B31788   9.930  22.890   5.990
 1325BOLB   NC231789   8.170  21.760   3.660
 1325BOLB   PO231790   7.960  22.140   3.710
 1325BOLB   GL331791   8.230  22.190   4.110
 1325BOLB   GL431792   8.100  22.170   4.530
 1325BOLB   C1C31793   8.570  22.140   4.280
 1325BOLB   C2C31794   8.740  22.160   4.570
 1325BOLB   C3C31795   8.970  22.130   4.970
 1325BOLB   C4C31796   9.250  22.210   5.320
 1325BOLB   C1D31797   7.920  22.120   4.870
 1325BOLB   C2D31798   7.950  22.100   5.230
 1325BOLB   C3D31799   7.980  22.250   5.550
 1325BOLB   C4D31800   8.050  21.960   5.830
 1326BOLB   NC131801   2.290  22.460  12.010
 1326BOLB   PO131802   2.570  22.820  12.130
 1326BOLB   GL131803   2.220  22.960  11.900
 1326BOLB   GL231804   2.160  23.240  11.660
 1326BOLB   C1A31805   1.830  22.950  12.050
 1326BOLB   C2A31806   1.450  23.170  11.980
 1326BOLB   C3A31807   1.380  23.490  11.940
 1326BOLB   C4A31808   1.210  23.750  11.580
 1326BOLB   C1B31809   1.740  23.210  11.430
 1326BOLB   C2B31810   1.570  23.120  11.140
 1326BOLB   C3B31811   1.160  22.790  11.190
 1326BOLB   C4B31812   0.750  22.760  11.200
 1326BOLB   NC231813   0.030  25.410  10.050
 1326BOLB   PO231814   0.370  25.580  10.110
 1326BOLB   GL331815   0.300  25.360  10.520
 1326BOLB   GL431816  36.310  25.230  10.570
 1326BOLB   C1C31817   0.600  25.110  10.750
 1326BOLB   C2C31818   0.890  24.770  10.990
 1326BOLB   C3C31819   0.950  24.490  11.290
 1326BOLB   C4C31820   1.150  24.070  11.370
 1326BOLB   C1D31821   0.170  24.810  10.630
 1326BOLB   C2D31822   0.560  24.550  10.710
 1326BOLB   C3D31823   0.780  24.240  10.870
 1326BOLB   C4D31824   0.940  23.960  10.780
 1327BOLB   NC131825  16.260  20.010   8.200
 1327BOLB   PO131826  16.600  20.230   8.350
 1327BOLB   GL131827  17.030  20.250   8.240
 1327BOLB   GL231828  17.160  20.520   8.260
 1327BOLB   C1A31829  17.230  20.050   7.930
 1327BOLB   C2A31830  17.600  19.960   7.620
 1327BOLB   C3A31831  17.840  19.920   7.270
 1327BOLB   C4A31832  18.190  20.270   7.000
 1327BOLB   C1B31833  17.530  20.540   8.120
 1327BOLB   C2B31834  17.850  20.200   7.970
 1327BOLB   C3B31835  18.100  19.930   7.760
 1327BOLB   C4B31836  17.970  19.560   7.540
 1327BOLB   NC231837  19.000  21.090   5.110
 1327BOLB   PO231838  18.780  21.580   5.210
 1327BOLB   GL331839  18.380  21.410   5.550
 1327BOLB   GL431840  18.280  21.330   5.310
 1327BOLB   C1C31841  18.220  21.250   5.960
 1327BOLB   C2C31842  18.020  21.250   6.420
 1327BOLB   C3C31843  17.990  21.130   6.880
 1327BOLB   C4C31844  18.250  20.710   7.060
 1327BOLB   C1D31845  17.910  21.310   5.560
 1327BOLB   C2D31846  17.670  21.370   5.890
 1327BOLB   C3D31847  17.410  21.370   6.290
 1327BOLB   C4D31848  17.010  21.370   6.490
 1328BOLB   NC131849  13.920  26.500  12.100
 1328BOLB   PO131850  13.650  26.240  11.880
 1328BOLB   GL131851  13.860  26.600  11.610
 1328BOLB   GL231852  14.020  26.830  11.750
 1328BOLB   C1A31853  13.970  26.920  11.260
 1328BOLB   C2A31854  13.930  27.360  11.050
 1328BOLB   C3A31855  14.100  27.660  10.960
 1328BOLB   C4A31856  14.120  28.040  10.590
 1328BOLB   C1B31857  14.060  27.300  11.690
 1328BOLB   C2B31858  14.280  27.550  11.460
 1328BOLB   C3B31859  14.520  27.960  11.250
 1328BOLB   C4B31860  14.560  28.390  11.360
 1328BOLB   NC231861  15.770  29.800   9.710
 1328BOLB   PO231862  15.640  29.820  10.150
 1328BOLB   GL331863  15.280  29.620  10.180
 1328BOLB   GL431864  15.090  29.430   9.900
 1328BOLB   C1C31865  15.010  29.440  10.430
 1328BOLB   C2C31866  14.710  29.060  10.520
 1328BOLB   C3C31867  14.750  28.600  10.550
 1328BOLB   C4C31868  14.500  28.320  10.490
 1328BOLB   C1D31869  14.880  29.080  10.060
 1328BOLB   C2D31870  14.580  28.730  10.060
 1328BOLB   C3D31871  14.180  28.570  10.180
 1328BOLB   C4D31872  13.820  28.390  10.250
 1329BOLB   NC131873   8.970  22.170   8.480
 1329BOLB   PO131874   8.570  22.130   8.220
 1329BOLB   GL131875   8.620  22.490   7.890
 1329BOLB   GL231876   8.450  22.770   8.050
 1329BOLB   C1A31877   8.590  22.810   7.520
 1329BOLB   C2A31878   8.580  23.040   7.170
 1329BOLB   C3A31879   8.550  23.180   6.650
 1329BOLB   C4A31880   8.190  23.330   6.560
 1329BOLB   C1B31881   8.420  23.230   7.870
 1329BOLB   C2B31882   8.400  23.550   7.650
 1329BOLB   C3B31883   8.410  23.500   7.180
 1329BOLB   C4B31884   8.580  23.640   6.780
 1329BOLB   NC231885   7.090  23.710   4.120
 1329BOLB   PO231886   7.600  23.490   4.080
 1329BOLB   GL331887   7.530  23.440   4.570
 1329BOLB   GL431888   7.240  23.510   4.620
 1329BOLB   C1C31889   7.780  23.490   5.000
 1329BOLB   C2C31890   7.920  23.550   5.450
 1329BOLB   C3C31891   8.200  23.700   5.830
 1329BOLB   C4C31892   8.360  23.550   6.270
 1329BOLB   C1D31893   7.230  23.420   5.020
 1329BOLB   C2D31894   7.500  23.340   5.390
 1329BOLB   C3D31895   7.630  23.360   5.790
 1329BOLB   C4D31896   7.800  23.230   6.190
 1330BOLB   NC131897  10.480   6.360  12.120
 1330BOLB   PO131898  10.230   6.550  12.430
 1330BOLB   GL131899  10.370   6.980  12.420
 1330BOLB   GL231900  10.590   7.090  12.650
 1330BOLB   C1A31901  10.180   7.380  12.260
 1330BOLB   C2A31902  10.170   7.730  12.160
 1330BOLB   C3A31903  10.180   8.140  12.230
 1330BOLB   C4A31904  10.430   8.430  12.480
 1330BOLB   C1B31905  10.650   7.400  12.410
 1330BOLB   C2B31906  10.550   7.760  12.490
 1330BOLB   C3B31907  10.520   8.030  12.830
 1330BOLB   C4B31908  10.110   8.150  12.960
 1330BOLB   NC231909  10.100   6.480  13.190
 1330BOLB   PO231910  10.230   6.650  13.580
 1330BOLB   GL331911  10.440   7.110  13.670
 1330BOLB   GL431912  10.510   7.260  14.010
 1330BOLB   C1C31913  10.340   7.490  13.630
 1330BOLB   C2C31914  10.410   7.960  13.490
 1330BOLB   C3C31915  10.630   8.350  13.340
 1330BOLB   C4C31916  10.670   8.570  12.860
 1330BOLB   C1D31917  10.730   7.640  13.810
 1330BOLB   C2D31918  10.730   8.070  13.870
 1330BOLB   C3D31919  10.690   8.550  13.870
 1330BOLB   C4D31920  10.670   8.880  14.110
 1331BOLB   NC131921  10.770  26.920  17.860
 1331BOLB   PO131922  10.310  27.100  17.880
 1331BOLB   GL131923  10.440  27.560  18.050
 1331BOLB   GL231924  10.720  27.590  18.360
 1331BOLB   C1A31925  10.600  27.940  18.060
 1331BOLB   C2A31926  10.970  28.250  18.190
 1331BOLB   C3A31927  11.420  28.470  18.300
 1331BOLB   C4A31928  11.600  28.800  18.520
 1331BOLB   C1B31929  10.390  27.750  18.550
 1331BOLB   C2B31930  10.080  27.820  18.870
 1331BOLB   C3B31931   9.700  27.890  19.090
 1331BOLB   C4B31932   9.470  28.070  19.530
 1331BOLB   NC231933  11.390  30.370  20.660
 1331BOLB   PO231934  11.430  30.300  20.150
 1331BOLB   GL331935  11.690  30.050  19.900
 1331BOLB   GL431936  11.910  29.760  20.020
 1331BOLB   C1C31937  11.730  29.790  19.560
 1331BOLB   C2C31938  11.840  29.440  19.330
 1331BOLB   C3C31939  12.070  29.090  19.050
 1331BOLB   C4C31940  11.990  29.020  18.670
 1331BOLB   C1D31941  11.890  29.330  19.800
 1331BOLB   C2D31942  11.850  28.920  19.770
 1331BOLB   C3D31943  11.850  28.730  19.380
 1331BOLB   C4D31944  11.720  28.730  19.010
 1332BOLB   NC131945   4.860  18.720   8.410
 1332BOLB   PO131946   5.050  18.360   8.530
 1332BOLB   GL131947   5.100  18.370   8.070
 1332BOLB   GL231948   5.390  18.500   7.930
 1332BOLB   C1A31949   4.780  18.430   7.730
 1332BOLB   C2A31950   4.440  18.640   7.510
 1332BOLB   C3A31951   4.350  18.700   7.020
 1332BOLB   C4A31952   4.060  18.840   6.670
 1332BOLB   C1B31953   5.630  18.390   7.650
 1332BOLB   C2B31954   5.870  18.300   7.320
 1332BOLB   C3B31955   6.050  18.010   7.110
 1332BOLB   C4B31956   5.920  17.730   6.770
 1332BOLB   NC231957   2.490  19.180   5.230
 1332BOLB   PO231958   2.510  19.410   5.400
 1332BOLB   GL331959   2.810  19.690   5.500
 1332BOLB   GL431960   3.070  19.600   5.320
 1332BOLB   C1C31961   3.060  19.710   5.800
 1332BOLB   C2C31962   3.380  19.760   6.210
 1332BOLB   C3C31963   3.570  19.510   6.590
 1332BOLB   C4C31964   3.850  19.170   6.600
 1332BOLB   C1D31965   3.490  19.600   5.540
 1332BOLB   C2D31966   3.800  19.730   5.830
 1332BOLB   C3D31967   4.030  19.940   6.190
 1332BOLB   C4D31968   4.370  19.820   6.510
 1333BOLB   NC131969  13.210  18.620   7.400
 1333BOLB   PO131970  13.360  18.380   6.930
 1333BOLB   GL131971  13.510  18.360   6.480
 1333BOLB   GL231972  13.860  18.310   6.430
 1333BOLB   C1A31973  13.420  18.300   5.980
 1333BOLB   C2A31974  13.370  18.430   5.560
 1333BOLB   C3A31975  13.580  18.630   5.270
 1333BOLB   C4A31976  13.800  18.840   4.920
 1333BOLB   C1B31977  13.880  18.480   6.050
 1333BOLB   C2B31978  14.040  18.260   5.630
 1333BOLB   C3B31979  14.040  18.360   5.170
 1333BOLB   C4B31980  14.300  18.440   4.830
 1333BOLB   NC231981  13.830  19.860   2.390
 1333BOLB   PO231982  13.960  19.960   2.820
 1333BOLB   GL331983  13.930  19.770   3.190
 1333BOLB   GL431984  14.190  19.790   3.420
 1333BOLB   C1C31985  13.650  19.850   3.600
 1333BOLB   C2C31986  13.560  19.660   4.130
 1333BOLB   C3C31987  13.780  19.540   4.510
 1333BOLB   C4C31988  13.850  19.250   4.850
 1333BOLB   C1D31989  14.190  20.080   3.690
 1333BOLB   C2D31990  14.420  20.230   4.050
 1333BOLB   C3D31991  14.330  20.380   4.510
 1333BOLB   C4D31992  14.140  20.650   4.750
 1334BOLB   NC131993  17.420  14.270  15.790
 1334BOLB   PO131994  17.830  14.060  15.730
 1334BOLB   GL131995  18.110  13.750  15.580
 1334BOLB   GL231996  18.440  13.820  15.530
 1334BOLB   C1A31997  18.280  13.410  15.740
 1334BOLB   C2A31998  18.620  13.080  15.740
 1334BOLB   C3A31999  18.970  12.820  15.830
 1334BOLB   C4A32000  19.190  12.360  15.760
 1334BOLB   C1B32001  18.670  13.440  15.410
 1334BOLB   C2B32002  18.820  13.030  15.260
 1334BOLB   C3B32003  18.980  12.590  15.360
 1334BOLB   C4B32004  19.330  12.360  15.200
 1334BOLB   NC232005  20.470  10.530  15.950
 1334BOLB   PO232006  20.170  10.280  15.710
 1334BOLB   GL332007  19.890  10.570  15.510
 1334BOLB   GL432008  19.920  10.690  15.150
 1334BOLB   C1C32009  19.650  10.980  15.490
 1334BOLB   C2C32010  19.610  11.350  15.400
 1334BOLB   C3C32011  19.790  11.820  15.470
 1334BOLB   C4C32012  19.580  12.110  15.620
 1334BOLB   C1D32013  19.850  11.100  14.990
 1334BOLB   C2D32014  20.200  11.400  15.110
 1334BOLB   C3D32015  20.530  11.340  15.420
 1334BOLB   C4D32016  20.450  11.350  15.930
 1335BOLB   NC132017  13.070  13.830   8.110
 1335BOLB   PO132018  13.110  13.550   8.400
 1335BOLB   GL132019  13.200  13.350   8.040
 1335BOLB   GL232020  13.450  13.400   7.920
 1335BOLB   C1A32021  13.280  12.920   8.000
 1335BOLB   C2A32022  13.430  12.530   7.750
 1335BOLB   C3A32023  13.810  12.260   7.580
 1335BOLB   C4A32024  14.110  12.310   7.210
 1335BOLB   C1B32025  13.310  13.220   7.570
 1335BOLB   C2B32026  13.230  12.820   7.400
 1335BOLB   C3B32027  13.090  12.330   7.400
 1335BOLB   C4B32028  12.850  12.150   7.110
 1335BOLB   NC232029  15.900  10.650   6.190
 1335BOLB   PO232030  15.750  10.950   6.390
 1335BOLB   GL332031  15.790  11.360   6.580
 1335BOLB   GL432032  15.980  11.450   6.820
 1335BOLB   C1C32033  15.470  11.530   6.880
 1335BOLB   C2C32034  15.330  11.910   6.980
 1335BOLB   C3C32035  15.080  12.210   7.080
 1335BOLB   C4C32036  14.610  12.340   7.140
 1335BOLB   C1D32037  15.850  11.760   7.120
 1335BOLB   C2D32038  15.970  12.050   7.480
 1335BOLB   C3D32039  15.940  12.420   7.650
 1335BOLB   C4D32040  16.180  12.860   7.760
 1336BOLB   NC132041  13.950  15.060   7.270
 1336BOLB   PO132042  13.510  15.120   7.360
 1336BOLB   GL132043  13.580  15.060   6.860
 1336BOLB   GL232044  13.360  15.050   6.600
 1336BOLB   C1A32045  13.990  14.820   6.570
 1336BOLB   C2A32046  13.940  14.460   6.350
 1336BOLB   C3A32047  14.170  14.100   6.290
 1336BOLB   C4A32048  14.600  14.040   6.360
 1336BOLB   C1B32049  13.250  14.710   6.250
 1336BOLB   C2B32050  13.490  14.320   6.220
 1336BOLB   C3B32051  13.550  14.010   6.450
 1336BOLB   C4B32052  13.890  13.830   6.580
 1336BOLB   NC232053  14.810  12.500   5.190
 1336BOLB   PO232054  15.130  12.730   4.940
 1336BOLB   GL332055  15.310  12.810   5.300
 1336BOLB   GL432056  15.330  12.560   5.450
 1336BOLB   C1C32057  15.360  13.000   5.740
 1336BOLB   C2C32058  15.020  13.130   5.950
 1336BOLB   C3C32059  14.870  13.210   6.370
 1336BOLB   C4C32060  14.740  13.670   6.440
 1336BOLB   C1D32061  15.190  12.600   5.910
 1336BOLB   C2D32062  14.900  12.440   6.270
 1336BOLB   C3D32063  14.810  12.400   6.700
 1336BOLB   C4D32064  14.860  12.730   7.180
 1337BOLB   NC132065  12.140  14.120   7.990
 1337BOLB   PO132066  12.500  14.250   8.150
 1337BOLB   GL132067  12.720  14.070   7.810
 1337BOLB   GL232068  12.470  13.950   7.680
 1337BOLB   C1A32069  12.810  14.040   7.320
 1337BOLB   C2A32070  12.910  13.870   6.960
 1337BOLB   C3A32071  12.860  13.510   6.860
 1337BOLB   C4A32072  13.130  13.260   6.660
 1337BOLB   C1B32073  12.200  13.940   7.340
 1337BOLB   C2B32074  11.870  13.860   7.160
 1337BOLB   C3B32075  11.680  13.500   7.200
 1337BOLB   C4B32076  11.720  13.110   7.000
 1337BOLB   NC232077  13.600  10.850   5.140
 1337BOLB   PO232078  13.770  11.280   5.190
 1337BOLB   GL332079  13.790  11.580   5.570
 1337BOLB   GL432080  13.570  11.370   5.800
 1337BOLB   C1C32081  13.790  11.870   5.850
 1337BOLB   C2C32082  13.780  12.090   6.280
 1337BOLB   C3C32083  13.530  12.430   6.520
 1337BOLB   C4C32084  13.190  12.820   6.520
 1337BOLB   C1D32085  13.340  11.650   6.110
 1337BOLB   C2D32086  13.220  11.890   6.340
 1337BOLB   C3D32087  13.280  12.050   6.820
 1337BOLB   C4D32088  13.470  12.090   7.240
 1338BOLB   NC132089   8.500  27.000  14.970
 1338BOLB   PO132090   8.280  27.440  15.210
 1338BOLB   GL132091   8.120  27.820  15.240
 1338BOLB   GL232092   7.950  27.730  15.470
 1338BOLB   C1A32093   8.180  28.170  15.010
 1338BOLB   C2A32094   8.330  28.360  14.650
 1338BOLB   C3A32095   8.130  28.640  14.450
 1338BOLB   C4A32096   7.880  29.000  14.540
 1338BOLB   C1B32097   7.870  28.210  15.400
 1338BOLB   C2B32098   7.920  28.670  15.570
 1338BOLB   C3B32099   7.790  29.120  15.700
 1338BOLB   C4B32100   8.050  29.450  15.670
 1338BOLB   NC232101   6.480  31.400  14.850
 1338BOLB   PO232102   6.760  31.220  14.520
 1338BOLB   GL332103   6.940  30.880  14.400
 1338BOLB   GL432104   6.740  30.600  14.370
 1338BOLB   C1C32105   7.080  30.590  14.700
 1338BOLB   C2C32106   7.410  30.240  14.830
 1338BOLB   C3C32107   7.700  29.830  14.820
 1338BOLB   C4C32108   7.740  29.440  14.620
 1338BOLB   C1D32109   6.530  30.300  14.540
 1338BOLB   C2D32110   6.420  29.950  14.650
 1338BOLB   C3D32111   6.370  29.570  14.920
 1338BOLB   C4D32112   6.500  29.240  15.270
 1339BOLB   NC132113  12.190  15.130   8.240
 1339BOLB   PO132114  11.980  14.950   7.890
 1339BOLB   GL132115  11.780  14.850   7.430
 1339BOLB   GL232116  12.050  14.830   7.130
 1339BOLB   C1A32117  11.580  14.550   7.270
 1339BOLB   C2A32118  11.540  14.210   7.150
 1339BOLB   C3A32119  11.560  13.980   6.770
 1339BOLB   C4A32120  11.440  13.760   6.430
 1339BOLB   C1B32121  11.820  14.640   6.730
 1339BOLB   C2B32122  11.690  14.310   6.360
 1339BOLB   C3B32123  11.520  14.150   6.010
 1339BOLB   C4B32124  11.400  13.880   5.710
 1339BOLB   NC232125  11.980  12.600   4.570
 1339BOLB   PO232126  12.120  13.010   4.520
 1339BOLB   GL332127  12.080  13.210   4.780
 1339BOLB   GL432128  12.220  13.450   4.860
 1339BOLB   C1C32129  11.680  13.330   4.990
 1339BOLB   C2C32130  11.510  13.220   5.310
 1339BOLB   C3C32131  11.270  13.400   5.630
 1339BOLB   C4C32132  11.170  13.520   6.010
 1339BOLB   C1D32133  12.630  13.660   4.980
 1339BOLB   C2D32134  13.010  13.540   5.200
 1339BOLB   C3D32135  13.310  13.710   5.350
 1339BOLB   C4D32136  13.810  13.690   5.430
 1340BOLB   NC132137   6.020  26.900  14.460
 1340BOLB   PO132138   5.680  26.750  14.290
 1340BOLB   GL132139   5.720  27.240  14.300
 1340BOLB   GL232140   5.800  27.410  13.980
 1340BOLB   C1A32141   5.460  27.520  14.370
 1340BOLB   C2A32142   5.350  27.930  14.400
 1340BOLB   C3A32143   5.010  28.060  14.140
 1340BOLB   C4A32144   4.740  28.280  14.000
 1340BOLB   C1B32145   5.770  27.500  13.540
 1340BOLB   C2B32146   5.530  27.650  13.170
 1340BOLB   C3B32147   5.510  28.010  12.920
 1340BOLB   C4B32148   5.460  28.330  12.610
 1340BOLB   NC232149   3.780  30.300  13.310
 1340BOLB   PO232150   4.210  30.340  13.260
 1340BOLB   GL332151   4.260  30.000  13.460
 1340BOLB   GL432152   4.020  29.800  13.250
 1340BOLB   C1C32153   4.280  29.560  13.630
 1340BOLB   C2C32154   4.520  29.180  13.680
 1340BOLB   C3C32155   4.410  28.720  13.680
 1340BOLB   C4C32156   4.310  28.360  13.860
 1340BOLB   C1D32157   3.850  29.520  13.490
 1340BOLB   C2D32158   3.930  29.190  13.820
 1340BOLB   C3D32159   4.210  29.040  14.060
 1340BOLB   C4D32160   4.570  28.750  14.120
 1341BOLB   NC132161  13.610  21.860   7.270
 1341BOLB   PO132162  13.310  22.100   7.430
 1341BOLB   GL132163  13.130  22.000   6.930
 1341BOLB   GL232164  13.450  22.190   6.800
 1341BOLB   C1A32165  12.930  22.180   6.660
 1341BOLB   C2A32166  12.980  22.260   6.290
 1341BOLB   C3A32167  12.870  22.370   5.810
 1341BOLB   C4A32168  12.480  22.230   5.530
 1341BOLB   C1B32169  13.850  22.320   6.620
 1341BOLB   C2B32170  14.120  22.360   6.140
 1341BOLB   C3B32171  13.860  22.410   5.790
 1341BOLB   C4B32172  13.610  22.720   5.490
 1341BOLB   NC232173  11.530  23.450   3.730
 1341BOLB   PO232174  11.990  23.510   3.880
 1341BOLB   GL332175  11.950  23.170   3.760
 1341BOLB   GL432176  11.740  23.010   4.050
 1341BOLB   C1C32177  12.130  22.690   3.980
 1341BOLB   C2C32178  12.260  22.470   4.330
 1341BOLB   C3C32179  12.200  22.360   4.740
 1341BOLB   C4C32180  12.330  22.220   5.170
 1341BOLB   C1D32181  11.860  22.770   4.400
 1341BOLB   C2D32182  11.750  22.710   4.730
 1341BOLB   C3D32183  11.750  22.300   4.920
 1341BOLB   C4D32184  11.480  21.920   4.990
 1342BOLB   NC132185  15.630  15.050  20.110
 1342BOLB   PO132186  15.330  14.790  20.100
 1342BOLB   GL132187  15.700  14.590  20.350
 1342BOLB   GL232188  15.720  14.520  20.070
 1342BOLB   C1A32189  15.760  14.310  20.720
 1342BOLB   C2A32190  15.880  14.020  21.020
 1342BOLB   C3A32191  15.850  13.670  21.140
 1342BOLB   C4A32192  16.150  13.310  21.170
 1342BOLB   C1B32193  15.850  14.160  20.240
 1342BOLB   C2B32194  15.960  13.880  20.560
 1342BOLB   C3B32195  16.170  13.570  20.740
 1342BOLB   C4B32196  16.590  13.390  20.760
 1342BOLB   NC232197  16.750  12.390  23.430
 1342BOLB   PO232198  16.990  11.970  23.220
 1342BOLB   GL332199  17.070  12.340  22.890
 1342BOLB   GL432200  17.160  12.230  22.480
 1342BOLB   C1C32201  16.920  12.670  22.540
 1342BOLB   C2C32202  16.860  12.960  22.220
 1342BOLB   C3C32203  16.580  13.090  21.810
 1342BOLB   C4C32204  16.310  13.110  21.420
 1342BOLB   C1D32205  16.770  12.270  22.270
 1342BOLB   C2D32206  16.630  12.510  22.020
 1342BOLB   C3D32207  16.440  12.500  21.580
 1342BOLB   C4D32208  16.370  12.660  21.250
 1343BOLB   NC132209  16.910  18.390   8.640
 1343BOLB   PO132210  16.620  18.690   8.740
 1343BOLB   GL132211  16.690  18.830   8.320
 1343BOLB   GL232212  16.920  19.150   8.190
 1343BOLB   C1A32213  16.940  18.630   8.030
 1343BOLB   C2A32214  17.140  18.650   7.560
 1343BOLB   C3A32215  17.220  18.650   7.140
 1343BOLB   C4A32216  17.410  18.380   6.840
 1343BOLB   C1B32217  17.120  19.070   7.820
 1343BOLB   C2B32218  17.460  19.010   7.520
 1343BOLB   C3B32219  17.820  19.080   7.290
 1343BOLB   C4B32220  17.750  19.410   7.020
 1343BOLB   NC232221  18.460  17.430   4.800
 1343BOLB   PO232222  18.850  17.690   4.750
 1343BOLB   GL332223  18.560  17.830   5.150
 1343BOLB   GL432224  18.360  18.120   4.970
 1343BOLB   C1C32225  18.230  17.910   5.440
 1343BOLB   C2C32226  18.280  17.990   5.920
 1343BOLB   C3C32227  17.960  18.020   6.360
 1343BOLB   C4C32228  17.690  18.300   6.500
 1343BOLB   C1D32229  17.940  18.200   5.200
 1343BOLB   C2D32230  17.730  18.100   5.570
 1343BOLB   C3D32231  17.570  18.120   5.990
 1343BOLB   C4D32232  17.240  18.170   6.290
 1344BOLB   NC132233   9.710  14.660   8.920
 1344BOLB   PO132234   9.380  14.380   8.670
 1344BOLB   GL132235   9.590  14.100   8.310
 1344BOLB   GL232236   9.600  13.770   8.420
 1344BOLB   C1A32237   9.500  13.920   7.840
 1344BOLB   C2A32238   9.560  13.580   7.570
 1344BOLB   C3A32239   9.730  13.140   7.380
 1344BOLB   C4A32240   9.980  12.950   7.140
 1344BOLB   C1B32241   9.420  13.510   8.180
 1344BOLB   C2B32242   9.100  13.530   7.810
 1344BOLB   C3B32243   8.950  13.210   7.500
 1344BOLB   C4B32244   8.810  13.220   7.110
 1344BOLB   NC232245   9.990  12.300   4.560
 1344BOLB   PO232246   9.940  11.900   4.840
 1344BOLB   GL332247  10.130  12.200   5.210
 1344BOLB   GL432248  10.230  12.340   4.990
 1344BOLB   C1C32249  10.040  12.530   5.570
 1344BOLB   C2C32250  10.110  12.640   6.020
 1344BOLB   C3C32251  10.340  12.870   6.360
 1344BOLB   C4C32252  10.300  12.850   6.810
 1344BOLB   C1D32253  10.140  12.760   5.120
 1344BOLB   C2D32254  10.310  13.000   4.800
 1344BOLB   C3D32255  10.120  13.350   4.870
 1344BOLB   C4D32256   9.910  13.640   5.080
 1345BOLB   NC132257  13.910  15.290   7.700
 1345BOLB   PO132258  14.240  15.110   7.740
 1345BOLB   GL132259  14.600  15.110   7.480
 1345BOLB   GL232260  14.840  14.870   7.480
 1345BOLB   C1A32261  14.690  15.230   7.020
 1345BOLB   C2A32262  15.080  15.500   6.870
 1345BOLB   C3A32263  15.430  15.550   6.620
 1345BOLB   C4A32264  15.810  15.640   6.380
 1345BOLB   C1B32265  15.140  15.190   7.220
 1345BOLB   C2B32266  15.540  15.160   6.900
 1345BOLB   C3B32267  15.880  15.140   6.580
 1345BOLB   C4B32268  16.260  15.260   6.450
 1345BOLB   NC232269  17.870  15.290   4.520
 1345BOLB   PO232270  17.950  15.230   4.970
 1345BOLB   GL332271  17.660  15.300   5.340
 1345BOLB   GL432272  17.670  15.580   5.520
 1345BOLB   C1C32273  17.220  15.370   5.520
 1345BOLB   C2C32274  16.860  15.550   5.610
 1345BOLB   C3C32275  16.500  15.760   5.710
 1345BOLB   C4C32276  16.190  15.660   6.120
 1345BOLB   C1D32277  17.780  15.940   5.780
 1345BOLB   C2D32278  17.430  16.220   5.980
 1345BOLB   C3D32279  17.000  16.530   6.080
 1345BOLB   C4D32280  16.680  16.620   6.230
 1346BOLB   NC132281  19.510  21.480  13.280
 1346BOLB   PO132282  19.430  21.270  12.790
 1346BOLB   GL132283  19.860  21.320  12.910
 1346BOLB   GL232284  19.900  21.680  13.030
 1346BOLB   C1A32285  20.200  21.320  12.830
 1346BOLB   C2A32286  20.540  21.620  12.770
 1346BOLB   C3A32287  20.810  21.840  13.030
 1346BOLB   C4A32288  21.200  22.150  12.900
 1346BOLB   C1B32289  20.280  21.680  13.210
 1346BOLB   C2B32290  20.650  21.360  13.220
 1346BOLB   C3B32291  21.020  21.420  13.110
 1346BOLB   C4B32292  21.370  21.670  12.970
 1346BOLB   NC232293  23.350  22.360  12.460
 1346BOLB   PO232294  23.310  22.300  12.030
 1346BOLB   GL332295  22.910  22.210  12.240
 1346BOLB   GL432296  22.670  21.990  12.150
 1346BOLB   C1C32297  22.720  22.280  12.630
 1346BOLB   C2C32298  22.360  22.550  12.780
 1346BOLB   C3C32299  22.010  22.320  12.790
 1346BOLB   C4C32300  21.640  22.180  12.720
 1346BOLB   C1D32301  22.290  22.120  11.940
 1346BOLB   C2D32302  21.980  21.950  11.910
 1346BOLB   C3D32303  21.640  21.990  11.680
 1346BOLB   C4D32304  21.350  22.220  11.440
 1347BOLB   NC132305   6.670  11.920  13.710
 1347BOLB   PO132306   6.440  11.780  13.420
 1347BOLB   GL132307   6.450  11.390  13.420
 1347BOLB   GL232308   6.440  11.370  13.110
 1347BOLB   C1A32309   6.440  10.970  13.430
 1347BOLB   C2A32310   6.320  10.720  13.030
 1347BOLB   C3A32311   6.250  10.340  12.870
 1347BOLB   C4A32312   6.280  10.000  12.630
 1347BOLB   C1B32313   6.210  11.110  12.760
 1347BOLB   C2B32314   5.970  10.770  12.600
 1347BOLB   C3B32315   5.920  10.400  12.440
 1347BOLB   C4B32316   5.820  10.010  12.610
 1347BOLB   NC232317   5.400   8.050  12.180
 1347BOLB   PO232318   5.480   8.120  11.700
 1347BOLB   GL332319   5.690   8.530  11.580
 1347BOLB   GL432320   5.830   8.750  11.290
 1347BOLB   C1C32321   5.940   8.770  11.910
 1347BOLB   C2C32322   6.190   8.960  12.130
 1347BOLB   C3C32323   6.360   9.310  12.090
 1347BOLB   C4C32324   6.330   9.700  12.330
 1347BOLB   C1D32325   6.090   9.070  11.430
 1347BOLB   C2D32326   6.230   9.380  11.200
 1347BOLB   C3D32327   6.470   9.720  11.410
 1347BOLB   C4D32328   6.830   9.900  11.570
 1348BOLB   NC132329   3.610  20.640   9.700
 1348BOLB   PO132330   3.680  21.020   9.930
 1348BOLB   GL132331   3.380  21.210   9.700
 1348BOLB   GL232332   3.450  21.070   9.360
 1348BOLB   C1A32333   3.000  21.510   9.550
 1348BOLB   C2A32334   2.700  21.740   9.330
 1348BOLB   C3A32335   2.420  21.810   9.060
 1348BOLB   C4A32336   2.280  21.660   8.720
 1348BOLB   C1B32337   3.320  21.070   8.990
 1348BOLB   C2B32338   3.330  21.400   8.560
 1348BOLB   C3B32339   3.190  21.510   8.140
 1348BOLB   C4B32340   2.800  21.600   7.940
 1348BOLB   NC232341   1.940  21.550   6.410
 1348BOLB   PO232342   1.610  21.810   6.620
 1348BOLB   GL332343   1.850  21.680   6.950
 1348BOLB   GL432344   2.160  21.430   6.940
 1348BOLB   C1C32345   1.680  21.660   7.270
 1348BOLB   C2C32346   1.830  21.520   7.640
 1348BOLB   C3C32347   2.280  21.560   7.820
 1348BOLB   C4C32348   2.310  21.630   8.280
 1348BOLB   C1D32349   2.290  21.290   7.420
 1348BOLB   C2D32350   2.590  21.110   7.820
 1348BOLB   C3D32351   2.770  21.160   8.250
 1348BOLB   C4D32352   3.120  20.900   8.410
 1349BOLB   NC132353  12.350  21.490   6.970
 1349BOLB   PO132354  12.000  21.600   6.930
 1349BOLB   GL132355  11.920  21.980   6.720
 1349BOLB   GL232356  11.590  21.910   6.670
 1349BOLB   C1A32357  11.790  22.440   6.580
 1349BOLB   C2A32358  11.880  22.800   6.450
 1349BOLB   C3A32359  11.650  23.110   6.250
 1349BOLB   C4A32360  11.320  23.070   5.840
 1349BOLB   C1B32361  11.740  22.010   6.220
 1349BOLB   C2B32362  11.620  22.250   5.860
 1349BOLB   C3B32363  11.520  22.510   5.620
 1349BOLB   C4B32364  11.690  22.990   5.540
 1349BOLB   NC232365  10.370  23.210   3.590
 1349BOLB   PO232366  10.110  23.590   3.610
 1349BOLB   GL332367  10.100  23.590   4.100
 1349BOLB   GL432368   9.880  23.290   4.060
 1349BOLB   C1C32369  10.190  23.460   4.570
 1349BOLB   C2C32370  10.440  23.430   5.010
 1349BOLB   C3C32371  10.460  23.260   5.490
 1349BOLB   C4C32372  10.880  23.070   5.770
 1349BOLB   C1D32373   9.620  23.240   4.450
 1349BOLB   C2D32374   9.560  23.210   4.910
 1349BOLB   C3D32375   9.460  22.990   5.210
 1349BOLB   C4D32376   9.500  22.600   5.540
 1350BOLB   NC132377  10.280  27.650  17.190
 1350BOLB   PO132378  10.670  27.790  17.150
 1350BOLB   GL132379  10.540  28.110  17.300
 1350BOLB   GL232380  10.720  28.270  17.460
 1350BOLB   C1A32381  10.660  28.500  17.040
 1350BOLB   C2A32382  10.670  28.820  16.710
 1350BOLB   C3A32383  10.820  29.140  16.450
 1350BOLB   C4A32384  10.880  29.610  16.390
 1350BOLB   C1B32385  10.610  28.460  17.870
 1350BOLB   C2B32386  10.400  28.520  18.140
 1350BOLB   C3B32387  10.480  28.230  18.530
 1350BOLB   C4B32388  10.320  28.340  19.010
 1350BOLB   NC232389  11.140  32.580  15.870
 1350BOLB   PO232390  10.910  32.220  15.840
 1350BOLB   GL332391  10.810  31.860  16.070
 1350BOLB   GL432392  11.140  31.680  16.270
 1350BOLB   C1C32393  10.820  31.340  16.060
 1350BOLB   C2C32394  11.040  31.090  16.310
 1350BOLB   C3C32395  11.060  30.640  16.380
 1350BOLB   C4C32396  10.960  30.130  16.400
 1350BOLB   C1D32397  11.440  31.460  16.460
 1350BOLB   C2D32398  11.410  31.110  16.710
 1350BOLB   C3D32399  11.280  30.950  17.120
 1350BOLB   C4D32400  11.140  30.660  17.390
 1351BOLB   NC132401   7.680  22.180   8.290
 1351BOLB   PO132402   7.860  21.750   8.270
 1351BOLB   GL132403   7.720  21.870   7.810
 1351BOLB   GL232404   7.390  21.820   7.630
 1351BOLB   C1A32405   7.690  22.290   7.550
 1351BOLB   C2A32406   7.640  22.590   7.250
 1351BOLB   C3A32407   7.580  22.860   6.970
 1351BOLB   C4A32408   7.510  22.880   6.550
 1351BOLB   C1B32409   7.290  22.110   7.190
 1351BOLB   C2B32410   6.960  22.200   6.900
 1351BOLB   C3B32411   6.720  22.500   6.740
 1351BOLB   C4B32412   6.590  22.780   6.420
 1351BOLB   NC232413   6.250  23.800   4.610
 1351BOLB   PO232414   6.260  23.410   4.390
 1351BOLB   GL332415   6.480  23.350   4.760
 1351BOLB   GL432416   6.690  23.610   4.850
 1351BOLB   C1C32417   6.770  23.120   4.940
 1351BOLB   C2C32418   6.970  23.150   5.350
 1351BOLB   C3C32419   7.120  23.090   5.800
 1351BOLB   C4C32420   7.270  22.960   6.190
 1351BOLB   C1D32421   6.530  23.600   5.340
 1351BOLB   C2D32422   6.280  23.640   5.730
 1351BOLB   C3D32423   6.350  23.640   6.110
 1351BOLB   C4D32424   6.350  23.470   6.430
 1352BOLB   NC132425   4.180  25.370  13.580
 1352BOLB   PO132426   3.800  24.980  13.530
 1352BOLB   GL132427   3.520  25.370  13.690
 1352BOLB   GL232428   3.360  25.280  13.930
 1352BOLB   C1A32429   3.200  25.670  13.420
 1352BOLB   C2A32430   2.850  25.870  13.260
 1352BOLB   C3A32431   2.680  26.300  13.300
 1352BOLB   C4A32432   2.530  26.770  13.410
 1352BOLB   C1B32433   3.150  25.740  13.990
 1352BOLB   C2B32434   2.720  26.050  13.780
 1352BOLB   C3B32435   2.320  26.340  13.740
 1352BOLB   C4B32436   2.150  26.700  13.930
 1352BOLB   NC232437   3.100  29.230  12.550
 1352BOLB   PO232438   2.720  28.950  12.650
 1352BOLB   GL332439   2.940  28.650  12.910
 1352BOLB   GL432440   2.780  28.600  13.250
 1352BOLB   C1C32441   3.120  28.190  12.820
 1352BOLB   C2C32442   3.120  27.760  12.990
 1352BOLB   C3C32443   3.000  27.470  13.340
 1352BOLB   C4C32444   2.720  27.250  13.450
 1352BOLB   C1D32445   2.620  28.250  12.990
 1352BOLB   C2D32446   2.650  27.690  12.910
 1352BOLB   C3D32447   2.860  27.320  12.730
 1352BOLB   C4D32448   2.990  27.200  12.340
 1353BOLB   NC132449   4.950  16.640   9.020
 1353BOLB   PO132450   4.710  16.730   9.360
 1353BOLB   GL132451   4.440  16.500   9.100
 1353BOLB   GL232452   4.150  16.670   8.950
 1353BOLB   C1A32453   4.420  16.260   8.750
 1353BOLB   C2A32454   4.470  15.950   8.480
 1353BOLB   C3A32455   4.500  15.780   8.110
 1353BOLB   C4A32456   4.320  15.650   7.600
 1353BOLB   C1B32457   3.800  16.690   8.810
 1353BOLB   C2B32458   3.450  16.420   8.740
 1353BOLB   C3B32459   3.100  16.260   8.660
 1353BOLB   C4B32460   2.760  16.010   8.910
 1353BOLB   NC232461   3.280  14.350   6.200
 1353BOLB   PO232462   3.410  14.600   5.790
 1353BOLB   GL332463   3.430  14.890   6.030
 1353BOLB   GL432464   3.490  14.820   6.330
 1353BOLB   C1C32465   3.420  15.300   6.350
 1353BOLB   C2C32466   3.600  15.500   6.820
 1353BOLB   C3C32467   3.980  15.480   6.950
 1353BOLB   C4C32468   4.260  15.690   7.220
 1353BOLB   C1D32469   3.850  15.180   6.200
 1353BOLB   C2D32470   3.980  15.580   6.410
 1353BOLB   C3D32471   4.290  15.710   6.620
 1353BOLB   C4D32472   4.560  15.860   6.850
 1354BOLB   NC132473  18.800  21.160  11.330
 1354BOLB   PO132474  18.890  20.760  11.040
 1354BOLB   GL132475  19.310  20.860  10.970
 1354BOLB   GL232476  19.430  20.770  10.670
 1354BOLB   C1A32477  19.770  20.970  10.990
 1354BOLB   C2A32478  20.140  21.050  10.920
 1354BOLB   C3A32479  20.320  21.220  10.580
 1354BOLB   C4A32480  20.480  21.390  10.130
 1354BOLB   C1B32481  19.670  20.710  10.270
 1354BOLB   C2B32482  19.710  20.730   9.860
 1354BOLB   C3B32483  19.900  20.680   9.540
 1354BOLB   C4B32484  20.110  20.380   9.270
 1354BOLB   NC232485  21.870  21.910   7.630
 1354BOLB   PO232486  21.680  22.050   7.920
 1354BOLB   GL332487  21.460  22.060   8.360
 1354BOLB   GL432488  21.300  22.350   8.190
 1354BOLB   C1C32489  21.190  22.030   8.740
 1354BOLB   C2C32490  20.910  22.130   9.100
 1354BOLB   C3C32491  20.730  22.120   9.500
 1354BOLB   C4C32492  20.560  21.730   9.770
 1354BOLB   C1D32493  20.990  22.020   8.220
 1354BOLB   C2D32494  20.690  21.900   8.000
 1354BOLB   C3D32495  20.300  21.800   8.150
 1354BOLB   C4D32496  19.940  21.780   8.460
 1355BOLB   NC132497   9.410  16.330   7.380
 1355BOLB   PO132498   9.310  16.760   7.600
 1355BOLB   GL132499   9.170  16.760   7.210
 1355BOLB   GL232500   9.440  16.640   6.990
 1355BOLB   C1A32501   9.020  16.800   6.860
 1355BOLB   C2A32502   8.890  16.600   6.370
 1355BOLB   C3A32503   8.780  16.270   6.040
 1355BOLB   C4A32504   8.610  16.390   5.670
 1355BOLB   C1B32505   9.420  16.340   6.680
 1355BOLB   C2B32506   9.240  16.190   6.230
 1355BOLB   C3B32507   9.290  16.210   5.760
 1355BOLB   C4B32508   9.450  16.000   5.380
 1355BOLB   NC232509   7.340  16.290   3.310
 1355BOLB   PO232510   7.260  16.580   3.730
 1355BOLB   GL332511   7.590  16.810   4.040
 1355BOLB   GL432512   7.870  16.950   4.090
 1355BOLB   C1C32513   7.560  16.820   4.580
 1355BOLB   C2C32514   7.770  16.600   4.890
 1355BOLB   C3C32515   8.020  16.360   5.190
 1355BOLB   C4C32516   8.450  16.320   5.340
 1355BOLB   C1D32517   7.900  17.080   4.450
 1355BOLB   C2D32518   8.430  17.170   4.580
 1355BOLB   C3D32519   8.630  16.950   4.830
 1355BOLB   C4D32520   8.700  16.740   5.140
 1356BOLB   NC132521   5.910  26.520  13.890
 1356BOLB   PO132522   5.380  26.540  13.980
 1356BOLB   GL132523   4.890  26.620  13.990
 1356BOLB   GL232524   4.640  26.650  13.820
 1356BOLB   C1A32525   4.750  26.990  14.190
 1356BOLB   C2A32526   4.690  27.440  14.110
 1356BOLB   C3A32527   4.920  27.700  13.850
 1356BOLB   C4A32528   4.970  28.010  13.590
 1356BOLB   C1B32529   4.500  26.900  13.600
 1356BOLB   C2B32530   4.180  27.080  13.430
 1356BOLB   C3B32531   4.080  27.200  13.100
 1356BOLB   C4B32532   3.980  26.900  12.770
 1356BOLB   NC232533   5.200  30.200  12.410
 1356BOLB   PO232534   4.960  30.420  12.670
 1356BOLB   GL332535   5.120  30.040  12.960
 1356BOLB   GL432536   5.300  29.810  12.920
 1356BOLB   C1C32537   4.920  29.740  13.250
 1356BOLB   C2C32538   4.850  29.210  13.220
 1356BOLB   C3C32539   4.790  28.830  13.370
 1356BOLB   C4C32540   4.780  28.410  13.490
 1356BOLB   C1D32541   5.720  29.640  13.010
 1356BOLB   C2D32542   5.830  29.310  13.160
 1356BOLB   C3D32543   5.780  29.020  13.620
 1356BOLB   C4D32544   5.670  28.760  14.050
 1357BOLB   NC132545  14.700  13.780   8.920
 1357BOLB   PO132546  15.100  14.040   9.060
 1357BOLB   GL132547  15.230  13.750   8.780
 1357BOLB   GL232548  15.010  13.470   8.650
 1357BOLB   C1A32549  15.560  13.660   8.510
 1357BOLB   C2A32550  15.720  13.560   8.140
 1357BOLB   C3A32551  15.850  13.190   7.850
 1357BOLB   C4A32552  15.960  13.090   7.380
 1357BOLB   C1B32553  15.200  13.380   8.220
 1357BOLB   C2B32554  15.510  13.030   8.170
 1357BOLB   C3B32555  15.870  12.680   8.150
 1357BOLB   C4B32556  16.310  12.460   8.080
 1357BOLB   NC232557  16.530  12.190   4.960
 1357BOLB   PO232558  16.440  12.610   5.090
 1357BOLB   GL332559  16.310  12.850   5.370
 1357BOLB   GL432560  16.320  13.170   5.400
 1357BOLB   C1C32561  16.320  12.750   5.770
 1357BOLB   C2C32562  16.270  12.930   6.220
 1357BOLB   C3C32563  16.240  13.270   6.500
 1357BOLB   C4C32564  16.050  13.230   6.890
 1357BOLB   C1D32565  16.110  13.290   5.740
 1357BOLB   C2D32566  15.720  13.310   5.950
 1357BOLB   C3D32567  15.440  13.180   6.190
 1357BOLB   C4D32568  15.310  12.800   6.300
 1358BOLB   NC132569   7.710  25.770  11.140
 1358BOLB   PO132570   7.580  26.040  11.520
 1358BOLB   GL132571   7.560  26.460  11.440
 1358BOLB   GL232572   7.310  26.490  11.620
 1358BOLB   C1A32573   7.890  26.750  11.290
 1358BOLB   C2A32574   8.090  27.030  10.930
 1358BOLB   C3A32575   8.080  27.520  10.750
 1358BOLB   C4A32576   8.200  27.940  10.920
 1358BOLB   C1B32577   7.310  26.860  11.290
 1358BOLB   C2B32578   7.630  27.220  11.130
 1358BOLB   C3B32579   7.900  27.580  11.190
 1358BOLB   C4B32580   7.840  28.080  11.250
 1358BOLB   NC232581   7.680  30.490   9.670
 1358BOLB   PO232582   7.890  30.150   9.740
 1358BOLB   GL332583   7.780  29.690   9.950
 1358BOLB   GL432584   8.060  29.430   9.870
 1358BOLB   C1C32585   7.620  29.440  10.280
 1358BOLB   C2C32586   7.750  29.130  10.610
 1358BOLB   C3C32587   8.060  28.810  10.720
 1358BOLB   C4C32588   8.080  28.380  10.760
 1358BOLB   C1D32589   8.280  29.350  10.320
 1358BOLB   C2D32590   8.480  29.090  10.740
 1358BOLB   C3D32591   8.600  29.170  11.120
 1358BOLB   C4D32592   8.560  28.910  11.480
 1359BOLB   NC132593  14.520  27.500  15.940
 1359BOLB   PO132594  14.820  27.240  16.030
 1359BOLB   GL132595  15.110  27.460  15.990
 1359BOLB   GL232596  15.290  27.390  15.720
 1359BOLB   C1A32597  15.100  27.880  16.040
 1359BOLB   C2A32598  15.100  28.250  16.180
 1359BOLB   C3A32599  15.160  28.660  16.180
 1359BOLB   C4A32600  15.370  29.130  16.050
 1359BOLB   C1B32601  15.250  27.750  15.570
 1359BOLB   C2B32602  15.460  28.130  15.740
 1359BOLB   C3B32603  15.520  28.520  15.840
 1359BOLB   C4B32604  15.620  28.920  15.580
 1359BOLB   NC232605  16.470  30.480  14.120
 1359BOLB   PO232606  16.470  30.640  14.540
 1359BOLB   GL332607  16.320  30.320  14.680
 1359BOLB   GL432608  16.610  30.110  14.710
 1359BOLB   C1C32609  16.090  29.960  14.750
 1359BOLB   C2C32610  15.720  29.810  15.000
 1359BOLB   C3C32611  15.560  29.600  15.320
 1359BOLB   C4C32612  15.450  29.340  15.730
 1359BOLB   C1D32613  16.510  29.650  14.940
 1359BOLB   C2D32614  16.400  29.240  15.090
 1359BOLB   C3D32615  16.660  29.040  15.280
 1359BOLB   C4D32616  16.750  28.880  15.680
 1360BOLB   NC132617   7.940  13.470   9.850
 1360BOLB   PO132618   8.390  13.430   9.710
 1360BOLB   GL132619   8.330  13.190   9.290
 1360BOLB   GL232620   8.240  12.950   9.310
 1360BOLB   C1A32621   8.350  12.980   8.800
 1360BOLB   C2A32622   8.230  12.820   8.500
 1360BOLB   C3A32623   7.850  12.410   8.260
 1360BOLB   C4A32624   7.590  12.110   8.010
 1360BOLB   C1B32625   7.860  13.010   9.010
 1360BOLB   C2B32626   7.500  12.890   8.820
 1360BOLB   C3B32627   7.370  12.590   8.460
 1360BOLB   C4B32628   7.100  12.200   8.410
 1360BOLB   NC232629   5.790  11.040   6.720
 1360BOLB   PO232630   6.040  10.680   6.700
 1360BOLB   GL332631   6.190  10.890   7.080
 1360BOLB   GL432632   6.430  10.630   7.250
 1360BOLB   C1C32633   6.340  11.100   7.430
 1360BOLB   C2C32634   6.610  11.330   7.760
 1360BOLB   C3C32635   6.830  11.670   7.960
 1360BOLB   C4C32636   7.240  11.770   8.020
 1360BOLB   C1D32637   6.640  10.770   7.570
 1360BOLB   C2D32638   6.730  10.980   8.080
 1360BOLB   C3D32639   6.750  11.360   8.330
 1360BOLB   C4D32640   7.060  11.590   8.570
 1361BOLB   NC132641  17.480  13.700  14.040
 1361BOLB   PO132642  17.610  13.220  13.920
 1361BOLB   GL132643  17.810  13.030  13.800
 1361BOLB   GL232644  18.070  13.160  13.620
 1361BOLB   C1A32645  18.020  12.650  13.690
 1361BOLB   C2A32646  18.390  12.460  13.860
 1361BOLB   C3A32647  18.800  12.370  13.830
 1361BOLB   C4A32648  19.140  12.460  13.570
 1361BOLB   C1B32649  18.440  13.040  13.710
 1361BOLB   C2B32650  18.720  12.880  13.600
 1361BOLB   C3B32651  18.780  12.600  13.260
 1361BOLB   C4B32652  18.910  12.200  13.090
 1361BOLB   NC232653  21.730  11.350  13.600
 1361BOLB   PO232654  21.630  11.650  13.250
 1361BOLB   GL332655  21.130  11.760  13.300
 1361BOLB   GL432656  21.190  11.650  13.680
 1361BOLB   C1C32657  20.680  11.710  13.260
 1361BOLB   C2C32658  20.360  11.980  13.320
 1361BOLB   C3C32659  19.980  12.200  13.380
 1361BOLB   C4C32660  19.530  12.260  13.440
 1361BOLB   C1D32661  20.810  11.870  13.760
 1361BOLB   C2D32662  20.440  12.110  13.840
 1361BOLB   C3D32663  20.350  12.380  14.210
 1361BOLB   C4D32664  20.230  12.280  14.670
 1362BOLB   NC132665  11.640  22.350   8.010
 1362BOLB   PO132666  11.190  22.610   8.200
 1362BOLB   GL132667  11.280  23.010   7.940
 1362BOLB   GL232668  11.060  23.000   7.740
 1362BOLB   C1A32669  11.410  23.370   7.670
 1362BOLB   C2A32670  11.620  23.730   7.290
 1362BOLB   C3A32671  11.780  24.140   7.300
 1362BOLB   C4A32672  11.860  24.550   7.020
 1362BOLB   C1B32673  10.980  23.290   7.370
 1362BOLB   C2B32674  11.100  23.570   7.100
 1362BOLB   C3B32675  11.280  23.970   7.040
 1362BOLB   C4B32676  11.410  24.310   6.940
 1362BOLB   NC232677  11.490  26.100   4.350
 1362BOLB   PO232678  11.480  25.840   4.710
 1362BOLB   GL332679  11.590  25.560   5.110
 1362BOLB   GL432680  11.750  25.800   5.430
 1362BOLB   C1C32681  11.920  25.190   5.450
 1362BOLB   C2C32682  12.020  24.920   5.770
 1362BOLB   C3C32683  12.020  24.820   6.270
 1362BOLB   C4C32684  12.220  24.820   6.710
 1362BOLB   C1D32685  11.540  25.470   5.610
 1362BOLB   C2D32686  11.580  25.070   5.820
 1362BOLB   C3D32687  11.570  24.880   6.180
 1362BOLB   C4D32688  11.620  24.510   6.380
 1363BOLB   NC132689   8.430  22.210  22.350
 1363BOLB   PO132690   8.260  22.320  22.760
 1363BOLB   GL132691   8.540  22.390  23.050
 1363BOLB   GL232692   8.410  22.740  23.240
 1363BOLB   C1A32693   8.700  22.360  23.400
 1363BOLB   C2A32694   8.750  22.560  23.900
 1363BOLB   C3A32695   8.590  22.600  24.340
 1363BOLB   C4A32696   8.450  22.580  24.740
 1363BOLB   C1B32697   8.300  22.900  23.670
 1363BOLB   C2B32698   7.910  22.950  23.900
 1363BOLB   C3B32699   8.000  23.010  24.240
 1363BOLB   C4B32700   8.450  23.140  24.440
 1363BOLB   NC232701   8.370  22.220  27.440
 1363BOLB   PO232702   8.740  22.070  27.110
 1363BOLB   GL332703   8.720  22.210  26.680
 1363BOLB   GL432704   8.780  21.990  26.470
 1363BOLB   C1C32705   8.710  22.480  26.310
 1363BOLB   C2C32706   9.010  22.700  25.930
 1363BOLB   C3C32707   8.820  22.740  25.460
 1363BOLB   C4C32708   8.530  22.690  25.140
 1363BOLB   C1D32709   8.720  21.710  26.280
 1363BOLB   C2D32710   8.590  21.680  25.810
 1363BOLB   C3D32711   8.350  21.710  25.430
 1363BOLB   C4D32712   8.510  21.750  25.050
 1364BOLB   NC132713  11.770  17.650   6.930
 1364BOLB   PO132714  12.160  17.410   6.920
 1364BOLB   GL132715  12.230  17.150   6.550
 1364BOLB   GL232716  12.120  16.880   6.620
 1364BOLB   C1A32717  12.120  17.080   6.080
 1364BOLB   C2A32718  12.270  16.950   5.580
 1364BOLB   C3A32719  12.280  16.650   5.230
 1364BOLB   C4A32720  12.240  16.480   4.750
 1364BOLB   C1B32721  12.280  16.660   6.250
 1364BOLB   C2B32722  12.340  16.360   6.030
 1364BOLB   C3B32723  12.450  16.060   5.630
 1364BOLB   C4B32724  12.640  15.790   5.290
 1364BOLB   NC232725  13.170  16.360   2.580
 1364BOLB   PO232726  13.250  15.950   2.630
 1364BOLB   GL332727  13.360  15.810   3.140
 1364BOLB   GL432728  13.450  15.540   3.280
 1364BOLB   C1C32729  13.470  16.020   3.480
 1364BOLB   C2C32730  13.320  16.090   3.920
 1364BOLB   C3C32731  13.000  16.310   4.290
 1364BOLB   C4C32732  12.670  16.550   4.540
 1364BOLB   C1D32733  13.390  15.550   3.740
 1364BOLB   C2D32734  13.290  15.610   4.180
 1364BOLB   C3D32735  13.430  15.620   4.750
 1364BOLB   C4D32736  13.500  16.070   4.880
 1365BOLB   NC132737  10.300  22.040   7.550
 1365BOLB   PO132738  10.690  22.090   7.760
 1365BOLB   GL132739  10.700  22.270   7.400
 1365BOLB   GL232740  10.720  22.130   7.150
 1365BOLB   C1A32741  10.720  22.610   7.130
 1365BOLB   C2A32742  10.400  22.820   6.850
 1365BOLB   C3A32743  10.370  23.360   6.760
 1365BOLB   C4A32744  10.430  23.740   6.550
 1365BOLB   C1B32745  10.520  22.220   6.740
 1365BOLB   C2B32746  10.400  22.510   6.450
 1365BOLB   C3B32747  10.320  22.440   6.070
 1365BOLB   C4B32748  10.130  22.510   5.760
 1365BOLB   NC232749  10.510  24.940   4.540
 1365BOLB   PO232750  10.080  24.920   4.430
 1365BOLB   GL332751   9.870  24.720   4.770
 1365BOLB   GL432752   9.680  24.520   4.790
 1365BOLB   C1C32753   9.980  24.560   5.170
 1365BOLB   C2C32754  10.130  24.470   5.600
 1365BOLB   C3C32755  10.370  24.200   5.880
 1365BOLB   C4C32756  10.430  24.000   6.280
 1365BOLB   C1D32757   9.440  24.200   4.940
 1365BOLB   C2D32758   9.230  24.090   5.350
 1365BOLB   C3D32759   9.250  24.210   5.790
 1365BOLB   C4D32760   9.100  24.090   6.170
 1366BOLB   NC132761   5.500  20.830   9.110
 1366BOLB   PO132762   5.710  20.850   8.800
 1366BOLB   GL132763   5.460  20.890   8.460
 1366BOLB   GL232764   5.170  21.160   8.580
 1366BOLB   C1A32765   5.500  20.990   7.970
 1366BOLB   C2A32766   5.420  20.900   7.570
 1366BOLB   C3A32767   5.190  20.810   7.200
 1366BOLB   C4A32768   5.320  20.820   6.710
 1366BOLB   C1B32769   5.190  21.300   8.210
 1366BOLB   C2B32770   5.300  21.370   7.790
 1366BOLB   C3B32771   5.370  21.350   7.370
 1366BOLB   C4B32772   5.210  21.270   6.930
 1366BOLB   NC232773   4.340  21.180   4.590
 1366BOLB   PO232774   4.160  20.930   4.890
 1366BOLB   GL332775   4.120  21.060   5.320
 1366BOLB   GL432776   3.920  21.060   5.660
 1366BOLB   C1C32777   4.390  21.190   5.600
 1366BOLB   C2C32778   4.900  21.240   5.760
 1366BOLB   C3C32779   5.110  21.140   6.100
 1366BOLB   C4C32780   5.250  21.040   6.400
 1366BOLB   C1D32781   3.660  20.680   5.840
 1366BOLB   C2D32782   3.440  20.350   5.910
 1366BOLB   C3D32783   3.050  20.200   6.030
 1366BOLB   C4D32784   2.650  19.970   6.160
 1367BOLB   NC132785  10.850  12.100   9.370
 1367BOLB   PO132786  10.570  12.390   9.440
 1367BOLB   GL132787  10.320  12.140   9.180
 1367BOLB   GL232788  10.050  12.000   9.180
 1367BOLB   C1A32789  10.560  12.000   8.750
 1367BOLB   C2A32790  10.320  11.940   8.450
 1367BOLB   C3A32791  10.060  11.840   8.080
 1367BOLB   C4A32792  10.080  11.580   7.730
 1367BOLB   C1B32793  10.010  11.710   8.860
 1367BOLB   C2B32794   9.950  11.470   8.510
 1367BOLB   C3B32795  10.050  11.240   8.080
 1367BOLB   C4B32796  10.110  10.880   7.900
 1367BOLB   NC232797   9.660   9.700   6.040
 1367BOLB   PO232798   9.610  10.130   6.050
 1367BOLB   GL332799   9.820  10.360   6.200
 1367BOLB   GL432800   9.630  10.610   6.410
 1367BOLB   C1C32801  10.230  10.620   6.390
 1367BOLB   C2C32802  10.290  10.840   6.730
 1367BOLB   C3C32803  10.150  10.940   7.160
 1367BOLB   C4C32804  10.160  11.190   7.510
 1367BOLB   C1D32805   9.740  10.620   6.820
 1367BOLB   C2D32806  10.050  10.430   7.140
 1367BOLB   C3D32807  10.340  10.170   7.270
 1367BOLB   C4D32808  10.760  10.080   7.110
 1368BOLB   NC132809  10.480  25.950  10.850
 1368BOLB   PO132810  10.910  25.810  10.640
 1368BOLB   GL132811  10.870  26.130  10.440
 1368BOLB   GL232812  11.030  26.020  10.180
 1368BOLB   C1A32813  10.880  26.470  10.200
 1368BOLB   C2A32814  10.800  26.810   9.930
 1368BOLB   C3A32815  10.750  26.850   9.570
 1368BOLB   C4A32816  10.770  26.840   9.260
 1368BOLB   C1B32817  11.210  26.160   9.860
 1368BOLB   C2B32818  11.160  26.470   9.530
 1368BOLB   C3B32819  11.470  26.720   9.310
 1368BOLB   C4B32820  11.940  26.650   9.290
 1368BOLB   NC232821  10.570  27.730   7.130
 1368BOLB   PO232822  10.780  28.120   7.220
 1368BOLB   GL332823  10.830  27.920   7.550
 1368BOLB   GL432824  10.620  27.730   7.650
 1368BOLB   C1C32825  10.940  27.920   8.030
 1368BOLB   C2C32826  10.900  27.650   8.300
 1368BOLB   C3C32827  10.850  27.360   8.550
 1368BOLB   C4C32828  10.770  27.160   8.910
 1368BOLB   C1D32829  10.820  27.470   7.770
 1368BOLB   C2D32830  10.930  27.060   7.600
 1368BOLB   C3D32831  11.100  26.600   7.630
 1368BOLB   C4D32832  11.120  26.130   7.650
 1369BOLB   NC132833  14.580  26.430  18.180
 1369BOLB   PO132834  14.330  26.740  17.920
 1369BOLB   GL132835  14.510  27.120  17.910
 1369BOLB   GL232836  14.690  27.040  18.180
 1369BOLB   C1A32837  14.470  27.560  17.850
 1369BOLB   C2A32838  14.610  27.920  17.760
 1369BOLB   C3A32839  14.470  28.290  17.970
 1369BOLB   C4A32840  14.170  28.630  18.240
 1369BOLB   C1B32841  14.990  27.190  18.500
 1369BOLB   C2B32842  15.220  27.210  18.930
 1369BOLB   C3B32843  15.670  27.190  19.010
 1369BOLB   C4B32844  16.130  27.160  19.090
 1369BOLB   NC232845  14.180  30.450  19.940
 1369BOLB   PO232846  14.620  30.390  19.660
 1369BOLB   GL332847  14.480  30.000  19.600
 1369BOLB   GL432848  14.490  29.970  19.200
 1369BOLB   C1C32849  14.260  29.530  19.400
 1369BOLB   C2C32850  14.070  29.330  19.060
 1369BOLB   C3C32851  13.780  29.110  18.870
 1369BOLB   C4C32852  13.770  28.880  18.450
 1369BOLB   C1D32853  14.560  30.140  18.780
 1369BOLB   C2D32854  14.320  30.120  18.350
 1369BOLB   C3D32855  14.230  29.700  17.980
 1369BOLB   C4D32856  14.250  29.310  17.710
 1370BOLB   NC132857   6.570  26.210  14.360
 1370BOLB   PO132858   6.480  26.680  14.320
 1370BOLB   GL132859   6.540  27.160  14.240
 1370BOLB   GL232860   6.240  27.340  14.330
 1370BOLB   C1A32861   6.770  27.440  13.990
 1370BOLB   C2A32862   6.580  27.910  13.830
 1370BOLB   C3A32863   6.450  28.180  13.520
 1370BOLB   C4A32864   6.380  28.680  13.390
 1370BOLB   C1B32865   6.010  27.660  14.330
 1370BOLB   C2B32866   5.750  27.940  14.090
 1370BOLB   C3B32867   5.840  28.280  13.970
 1370BOLB   C4B32868   6.140  28.670  13.890
 1370BOLB   NC232869   5.270  29.910  11.750
 1370BOLB   PO232870   5.040  29.900  12.040
 1370BOLB   GL332871   5.050  29.500  12.260
 1370BOLB   GL432872   4.950  29.310  12.270
 1370BOLB   C1C32873   5.450  29.410  12.490
 1370BOLB   C2C32874   5.880  29.360  12.530
 1370BOLB   C3C32875   6.180  29.070  12.790
 1370BOLB   C4C32876   6.360  28.800  12.910
 1370BOLB   C1D32877   4.800  28.970  12.240
 1370BOLB   C2D32878   4.810  28.580  12.370
 1370BOLB   C3D32879   5.010  28.180  12.570
 1370BOLB   C4D32880   5.030  27.830  12.620
 1371BOLB   NC132881  11.040  22.440   7.720
 1371BOLB   PO132882  11.470  22.200   7.520
 1371BOLB   GL132883  11.260  22.420   7.240
 1371BOLB   GL232884  11.220  22.090   7.040
 1371BOLB   C1A32885  11.140  22.840   7.180
 1371BOLB   C2A32886  10.980  23.110   6.850
 1371BOLB   C3A32887  10.820  23.410   6.660
 1371BOLB   C4A32888  10.680  23.410   6.260
 1371BOLB   C1B32889  11.070  22.380   6.800
 1371BOLB   C2B32890  10.840  22.680   6.560
 1371BOLB   C3B32891  10.550  22.950   6.350
 1371BOLB   C4B32892  10.400  23.060   5.940
 1371BOLB   NC232893  10.740  24.550   3.850
 1371BOLB   PO232894  10.350  24.360   3.940
 1371BOLB   GL332895  10.210  24.260   4.340
 1371BOLB   GL432896   9.940  24.490   4.350
 1371BOLB   C1C32897  10.140  24.270   4.790
 1371BOLB   C2C32898  10.230  24.150   5.180
 1371BOLB   C3C32899  10.400  23.870   5.500
 1371BOLB   C4C32900  10.690  23.580   5.810
 1371BOLB   C1D32901   9.760  24.110   4.510
 1371BOLB   C2D32902   9.800  23.770   4.830
 1371BOLB   C3D32903  10.010  23.680   5.190
 1371BOLB   C4D32904  10.000  23.440   5.570
 1372BOLB   NC132905  14.410  22.080   7.650
 1372BOLB   PO132906  14.180  22.380   7.890
 1372BOLB   GL132907  14.060  22.790   7.640
 1372BOLB   GL232908  13.900  22.850   7.290
 1372BOLB   C1A32909  14.340  23.060   7.370
 1372BOLB   C2A32910  14.700  23.180   7.120
 1372BOLB   C3A32911  15.020  23.160   6.850
 1372BOLB   C4A32912  15.100  23.290   6.350
 1372BOLB   C1B32913  13.800  23.170   7.100
 1372BOLB   C2B32914  13.770  23.510   6.920
 1372BOLB   C3B32915  13.950  23.890   6.860
 1372BOLB   C4B32916  13.940  24.310   6.750
 1372BOLB   NC232917  14.910  25.800   5.050
 1372BOLB   PO232918  14.630  25.420   5.150
 1372BOLB   GL332919  14.500  24.980   5.380
 1372BOLB   GL432920  14.280  24.940   5.580
 1372BOLB   C1C32921  14.430  24.510   5.360
 1372BOLB   C2C32922  14.750  24.240   5.570
 1372BOLB   C3C32923  14.840  23.830   5.700
 1372BOLB   C4C32924  15.020  23.570   5.990
 1372BOLB   C1D32925  14.310  24.500   5.850
 1372BOLB   C2D32926  14.500  24.070   6.000
 1372BOLB   C3D32927  14.510  23.610   6.040
 1372BOLB   C4D32928  14.600  23.290   6.350
 1373BOLB   NC132929   3.510  24.500  13.620
 1373BOLB   PO132930   3.330  24.870  13.620
 1373BOLB   GL132931   3.090  25.150  13.470
 1373BOLB   GL232932   3.000  25.270  13.180
 1373BOLB   C1A32933   2.670  25.460  13.610
 1373BOLB   C2A32934   2.360  25.770  13.490
 1373BOLB   C3A32935   2.180  25.670  13.190
 1373BOLB   C4A32936   1.850  25.760  12.980
 1373BOLB   C1B32937   2.660  25.480  13.030
 1373BOLB   C2B32938   2.840  25.810  12.710
 1373BOLB   C3B32939   2.870  26.090  12.610
 1373BOLB   C4B32940   2.670  26.440  12.840
 1373BOLB   NC232941   0.040  27.260  12.270
 1373BOLB   PO232942   0.480  27.200  12.390
 1373BOLB   GL332943   0.640  26.790  12.330
 1373BOLB   GL432944   1.070  26.830  12.140
 1373BOLB   C1C32945   0.860  26.490  12.540
 1373BOLB   C2C32946   1.270  26.390  12.250
 1373BOLB   C3C32947   1.460  26.050  12.330
 1373BOLB   C4C32948   1.530  25.910  12.760
 1373BOLB   C1D32949   1.600  26.740  12.280
 1373BOLB   C2D32950   1.820  26.410  12.460
 1373BOLB   C3D32951   2.040  26.060  12.530
 1373BOLB   C4D32952   2.390  26.020  12.890
 1374BOLB   NC132953   8.720  17.250   8.040
 1374BOLB   PO132954   8.840  16.960   7.610
 1374BOLB   GL132955   8.690  16.950   7.200
 1374BOLB   GL232956   8.530  16.620   7.120
 1374BOLB   C1A32957   8.500  17.020   6.850
 1374BOLB   C2A32958   8.580  16.950   6.460
 1374BOLB   C3A32959   8.640  16.820   5.950
 1374BOLB   C4A32960   8.700  16.910   5.600
 1374BOLB   C1B32961   8.470  16.530   6.690
 1374BOLB   C2B32962   8.280  16.410   6.240
 1374BOLB   C3B32963   8.060  16.180   5.810
 1374BOLB   C4B32964   7.790  15.980   5.540
 1374BOLB   NC232965   8.670  17.410   2.800
 1374BOLB   PO232966   8.780  17.530   3.240
 1374BOLB   GL332967   8.610  17.730   3.700
 1374BOLB   GL432968   8.490  18.040   3.750
 1374BOLB   C1C32969   8.520  17.670   4.170
 1374BOLB   C2C32970   8.520  17.730   4.610
 1374BOLB   C3C32971   8.540  17.550   4.980
 1374BOLB   C4C32972   8.560  17.230   5.240
 1374BOLB   C1D32973   8.400  18.200   4.140
 1374BOLB   C2D32974   8.410  18.440   4.530
 1374BOLB   C3D32975   8.450  18.340   4.900
 1374BOLB   C4D32976   8.590  18.070   5.180
 1375BOLB   NC132977  10.150  26.850  12.630
 1375BOLB   PO132978  10.290  27.120  13.040
 1375BOLB   GL132979  10.210  27.520  12.830
 1375BOLB   GL232980   9.900  27.540  12.780
 1375BOLB   C1A32981  10.350  27.910  12.650
 1375BOLB   C2A32982  10.400  28.180  12.270
 1375BOLB   C3A32983  10.230  28.460  12.100
 1375BOLB   C4A32984   9.990  28.900  12.040
 1375BOLB   C1B32985   9.820  27.940  12.850
 1375BOLB   C2B32986  10.150  28.330  12.750
 1375BOLB   C3B32987  10.370  28.590  12.560
 1375BOLB   C4B32988  10.550  29.000  12.620
 1375BOLB   NC232989   9.730  30.600  10.350
 1375BOLB   PO232990   9.320  30.430  10.360
 1375BOLB   GL332991   9.250  30.110  10.630
 1375BOLB   GL432992   9.080  30.190  10.910
 1375BOLB   C1C32993   9.420  29.930  11.080
 1375BOLB   C2C32994   9.750  29.710  11.290
 1375BOLB   C3C32995   9.940  29.540  11.670
 1375BOLB   C4C32996   9.760  29.300  12.020
 1375BOLB   C1D32997   8.990  29.760  10.910
 1375BOLB   C2D32998   8.920  29.380  10.810
 1375BOLB   C3D32999   9.030  28.980  11.010
 1375BOLB   C4D33000   8.970  28.670  11.330
 1376BOLB   NC133001  12.500  26.690  11.340
 1376BOLB   PO133002  12.050  26.640  11.340
 1376BOLB   GL133003  12.160  27.050  11.210
 1376BOLB   GL233004  11.960  27.090  10.940
 1376BOLB   C1A33005  12.450  27.420  11.210
 1376BOLB   C2A33006  12.740  27.710  11.160
 1376BOLB   C3A33007  13.130  27.790  10.980
 1376BOLB   C4A33008  13.300  28.180  11.030
 1376BOLB   C1B33009  11.680  27.370  11.070
 1376BOLB   C2B33010  11.600  27.730  10.810
 1376BOLB   C3B33011  11.590  28.120  10.670
 1376BOLB   C4B33012  11.510  28.500  10.730
 1376BOLB   NC233013  13.250  30.530   9.980
 1376BOLB   PO233014  13.140  30.210  10.210
 1376BOLB   GL333015  13.220  29.950  10.490
 1376BOLB   GL433016  13.520  29.810  10.440
 1376BOLB   C1C33017  13.100  29.720  10.760
 1376BOLB   C2C33018  13.360  29.460  10.900
 1376BOLB   C3C33019  13.280  29.050  11.150
 1376BOLB   C4C33020  13.400  28.670  11.070
 1376BOLB   C1D33021  13.290  29.420  10.410
 1376BOLB   C2D33022  13.200  29.040  10.600
 1376BOLB   C3D33023  13.280  28.610  10.550
 1376BOLB   C4D33024  13.180  28.490  10.140
 1377BOLB   NC133025   7.220  26.740  13.280
 1377BOLB   PO133026   6.940  26.680  13.590
 1377BOLB   GL133027   6.670  27.070  13.470
 1377BOLB   GL233028   6.410  27.080  13.120
 1377BOLB   C1A33029   6.530  27.530  13.450
 1377BOLB   C2A33030   6.460  27.900  13.160
 1377BOLB   C3A33031   6.640  28.360  13.050
 1377BOLB   C4A33032   6.780  28.580  12.770
 1377BOLB   C1B33033   6.300  27.290  12.710
 1377BOLB   C2B33034   6.080  27.300  12.360
 1377BOLB   C3B33035   6.100  27.540  12.020
 1377BOLB   C4B33036   6.180  28.040  12.030
 1377BOLB   NC233037   5.220  30.580  13.030
 1377BOLB   PO233038   5.520  30.460  12.840
 1377BOLB   GL333039   5.750  30.160  13.100
 1377BOLB   GL433040   5.560  30.220  13.300
 1377BOLB   C1C33041   6.150  30.010  12.880
 1377BOLB   C2C33042   6.290  29.580  12.740
 1377BOLB   C3C33043   6.430  29.350  12.430
 1377BOLB   C4C33044   6.620  28.940  12.460
 1377BOLB   C1D33045   5.390  29.820  13.410
 1377BOLB   C2D33046   5.470  29.380  13.460
 1377BOLB   C3D33047   5.300  28.980  13.390
 1377BOLB   C4D33048   5.400  28.660  13.060
 1378BOLB   NC133049  18.300  19.490   9.470
 1378BOLB   PO133050  17.970  19.160   9.470
 1378BOLB   GL133051  18.270  19.160   9.070
 1378BOLB   GL233052  18.250  19.520   8.970
 1378BOLB   C1A33053  18.660  19.210   8.950
 1378BOLB   C2A33054  18.970  19.120   8.620
 1378BOLB   C3A33055  19.400  19.190   8.540
 1378BOLB   C4A33056  19.530  19.320   8.050
 1378BOLB   C1B33057  18.490  19.770   8.690
 1378BOLB   C2B33058  18.790  19.930   8.390
 1378BOLB   C3B33059  19.120  20.160   8.040
 1378BOLB   C4B33060  19.320  20.410   7.590
 1378BOLB   NC233061  21.320  18.800   6.540
 1378BOLB   PO233062  21.180  18.670   6.880
 1378BOLB   GL333063  20.780  18.740   6.940
 1378BOLB   GL433064  20.550  18.540   7.100
 1378BOLB   C1C33065  20.380  19.020   6.930
 1378BOLB   C2C33066  19.930  19.040   7.070
 1378BOLB   C3C33067  19.710  19.070   7.340
 1378BOLB   C4C33068  19.640  19.080   7.700
 1378BOLB   C1D33069  20.420  18.360   7.580
 1378BOLB   C2D33070  20.090  18.510   7.770
 1378BOLB   C3D33071  19.900  18.720   7.950
 1378BOLB   C4D33072  19.670  18.880   8.220
 1379BOLB   NC133073  13.550  23.090   8.260
 1379BOLB   PO133074  13.830  23.460   8.130
 1379BOLB   GL133075  14.160  23.620   7.900
 1379BOLB   GL233076  14.380  23.300   7.810
 1379BOLB   C1A33077  14.230  23.990   7.710
 1379BOLB   C2A33078  14.170  24.140   7.220
 1379BOLB   C3A33079  14.460  24.150   6.890
 1379BOLB   C4A33080  14.780  24.400   6.730
 1379BOLB   C1B33081  14.580  23.630   7.540
 1379BOLB   C2B33082  14.760  23.740   7.130
 1379BOLB   C3B33083  15.060  23.990   6.950
 1379BOLB   C4B33084  15.290  24.210   7.150
 1379BOLB   NC233085  16.700  24.990   5.310
 1379BOLB   PO233086  16.590  24.590   5.190
 1379BOLB   GL333087  16.400  24.660   5.570
 1379BOLB   GL433088  16.130  24.780   5.480
 1379BOLB   C1C33089  16.150  24.510   5.890
 1379BOLB   C2C33090  16.070  24.500   6.250
 1379BOLB   C3C33091  15.660  24.350   6.590
 1379BOLB   C4C33092  15.210  24.390   6.670
 1379BOLB   C1D33093  15.950  24.930   6.020
 1379BOLB   C2D33094  16.020  25.150   6.360
 1379BOLB   C3D33095  16.120  25.110   6.790
 1379BOLB   C4D33096  15.820  25.000   7.180
 1380BOLB   NC133097  12.460  20.560   7.030
 1380BOLB   PO133098  12.210  20.240   6.780
 1380BOLB   GL133099  12.340  20.210   6.360
 1380BOLB   GL233100  12.380  19.910   6.190
 1380BOLB   C1A33101  12.290  20.270   5.790
 1380BOLB   C2A33102  12.400  20.440   5.490
 1380BOLB   C3A33103  12.460  20.790   5.240
 1380BOLB   C4A33104  12.540  20.900   4.900
 1380BOLB   C1B33105  12.610  19.880   5.900
 1380BOLB   C2B33106  12.870  19.890   5.520
 1380BOLB   C3B33107  12.950  19.950   5.020
 1380BOLB   C4B33108  12.940  20.120   4.600
 1380BOLB   NC233109  11.810  22.550   3.010
 1380BOLB   PO233110  11.470  22.450   3.290
 1380BOLB   GL333111  11.650  22.070   3.450
 1380BOLB   GL433112  11.910  21.860   3.650
 1380BOLB   C1C33113  11.570  21.560   3.640
 1380BOLB   C2C33114  11.880  21.440   3.920
 1380BOLB   C3C33115  12.160  21.180   4.170
 1380BOLB   C4C33116  12.390  21.160   4.550
 1380BOLB   C1D33117  12.300  21.650   3.810
 1380BOLB   C2D33118  12.630  21.800   3.950
 1380BOLB   C3D33119  12.960  21.930   4.160
 1380BOLB   C4D33120  13.220  22.340   4.160
 1381BOLB   NC133121  18.340  17.540  10.230
 1381BOLB   PO133122  18.650  17.760  10.410
 1381BOLB   GL133123  18.980  17.620  10.200
 1381BOLB   GL233124  18.920  17.720   9.910
 1381BOLB   C1A33125  19.240  17.350   9.950
 1381BOLB   C2A33126  19.540  17.100   9.750
 1381BOLB   C3A33127  19.730  17.050   9.410
 1381BOLB   C4A33128  20.050  16.960   9.140
 1381BOLB   C1B33129  19.090  17.560   9.520
 1381BOLB   C2B33130  19.380  17.440   9.270
 1381BOLB   C3B33131  19.750  17.360   8.960
 1381BOLB   C4B33132  19.980  17.190   8.650
 1381BOLB   NC233133  21.360  16.000   7.680
 1381BOLB   PO233134  21.530  16.420   7.780
 1381BOLB   GL333135  21.170  16.670   7.930
 1381BOLB   GL433136  20.910  16.410   7.750
 1381BOLB   C1C33137  20.900  16.750   8.150
 1381BOLB   C2C33138  20.720  16.780   8.460
 1381BOLB   C3C33139  20.610  16.940   8.830
 1381BOLB   C4C33140  20.400  17.210   9.060
 1381BOLB   C1D33141  20.810  16.880   7.680
 1381BOLB   C2D33142  20.630  17.370   7.650
 1381BOLB   C3D33143  20.450  17.580   8.020
 1381BOLB   C4D33144  20.220  17.740   8.470
 1382BOLB   NC133145  15.020  26.930  14.930
 1382BOLB   PO133146  14.680  27.120  15.110
 1382BOLB   GL133147  14.680  27.500  15.180
 1382BOLB   GL233148  14.770  27.560  15.460
 1382BOLB   C1A33149  14.970  27.910  15.160
 1382BOLB   C2A33150  15.250  28.320  15.090
 1382BOLB   C3A33151  15.640  28.460  15.300
 1382BOLB   C4A33152  15.910  28.490  15.570
 1382BOLB   C1B33153  14.840  28.000  15.630
 1382BOLB   C2B33154  15.010  28.400  15.710
 1382BOLB   C3B33155  15.110  28.900  15.740
 1382BOLB   C4B33156  14.780  29.100  15.480
 1382BOLB   NC233157  16.210  30.740  16.970
 1382BOLB   PO233158  16.580  30.540  16.960
 1382BOLB   GL333159  16.690  30.130  16.920
 1382BOLB   GL433160  16.530  29.950  17.050
 1382BOLB   C1C33161  16.580  29.660  16.640
 1382BOLB   C2C33162  16.390  29.300  16.360
 1382BOLB   C3C33163  16.330  28.940  16.080
 1382BOLB   C4C33164  16.150  28.580  15.900
 1382BOLB   C1D33165  16.130  29.970  16.990
 1382BOLB   C2D33166  15.830  29.830  16.630
 1382BOLB   C3D33167  15.320  29.780  16.620
 1382BOLB   C4D33168  14.980  29.580  16.510
 1383BOLB   NC133169  12.990  23.890   8.430
 1383BOLB   PO133170  13.300  24.080   8.570
 1383BOLB   GL133171  13.700  24.290   8.360
 1383BOLB   GL233172  14.090  24.260   8.320
 1383BOLB   C1A33173  13.850  24.690   8.290
 1383BOLB   C2A33174  14.010  24.920   7.940
 1383BOLB   C3A33175  14.180  25.230   7.850
 1383BOLB   C4A33176  14.580  25.430   7.690
 1383BOLB   C1B33177  14.300  24.510   8.040
 1383BOLB   C2B33178  14.550  24.420   7.760
 1383BOLB   C3B33179  15.030  24.440   7.560
 1383BOLB   C4B33180  15.470  24.590   7.360
 1383BOLB   NC233181  14.830  27.020   6.100
 1383BOLB   PO233182  14.970  26.940   5.680
 1383BOLB   GL333183  14.900  26.510   5.810
 1383BOLB   GL433184  15.230  26.260   5.890
 1383BOLB   C1C33185  14.870  26.150   6.210
 1383BOLB   C2C33186  14.830  26.130   6.690
 1383BOLB   C3C33187  14.830  26.030   7.170
 1383BOLB   C4C33188  14.720  25.720   7.450
 1383BOLB   C1D33189  15.400  25.900   6.100
 1383BOLB   C2D33190  15.240  25.660   6.350
 1383BOLB   C3D33191  15.170  25.290   6.620
 1383BOLB   C4D33192  14.880  24.900   6.600
 1384BOLB   NC133193  15.450  26.960  14.720
 1384BOLB   PO133194  15.430  26.550  14.930
 1384BOLB   GL133195  15.770  26.820  15.120
 1384BOLB   GL233196  15.680  27.140  15.140
 1384BOLB   C1A33197  16.170  27.130  14.950
 1384BOLB   C2A33198  16.520  27.450  15.070
 1384BOLB   C3A33199  16.760  27.760  15.090
 1384BOLB   C4A33200  17.190  27.940  15.000
 1384BOLB   C1B33201  15.860  27.540  15.290
 1384BOLB   C2B33202  15.860  27.990  15.330
 1384BOLB   C3B33203  16.070  28.370  15.060
 1384BOLB   C4B33204  16.370  28.760  15.000
 1384BOLB   NC233205  19.320  28.700  14.450
 1384BOLB   PO233206  19.260  28.910  14.920
 1384BOLB   GL333207  18.820  28.790  14.930
 1384BOLB   GL433208  18.850  28.880  15.240
 1384BOLB   C1C33209  18.510  28.610  14.960
 1384BOLB   C2C33210  18.080  28.530  15.120
 1384BOLB   C3C33211  17.790  28.300  15.110
 1384BOLB   C4C33212  17.540  27.870  15.060
 1384BOLB   C1D33213  18.460  28.820  15.420
 1384BOLB   C2D33214  18.210  28.340  15.610
 1384BOLB   C3D33215  17.920  28.190  15.950
 1384BOLB   C4D33216  17.520  27.850  15.970
 1385BOLB   NC133217   3.240  25.360  16.220
 1385BOLB   PO133218   3.020  25.220  15.860
 1385BOLB   GL133219   2.590  25.440  15.950
 1385BOLB   GL233220   2.370  25.540  15.680
 1385BOLB   C1A33221   2.190  25.630  16.130
 1385BOLB   C2A33222   2.060  25.890  16.360
 1385BOLB   C3A33223   1.790  26.170  16.270
 1385BOLB   C4A33224   1.530  26.380  15.910
 1385BOLB   C1B33225   2.360  25.920  15.520
 1385BOLB   C2B33226   2.100  26.310  15.350
 1385BOLB   C3B33227   2.030  26.750  15.340
 1385BOLB   C4B33228   1.950  27.150  15.290
 1385BOLB   NC233229  36.050  27.230  15.560
 1385BOLB   PO233230  35.860  27.330  15.160
 1385BOLB   GL333231  36.360  27.120  15.200
 1385BOLB   GL433232   0.050  26.950  14.920
 1385BOLB   C1C33233   0.330  26.830  15.360
 1385BOLB   C2C33234   0.430  26.450  15.350
 1385BOLB   C3C33235   0.780  26.180  15.570
 1385BOLB   C4C33236   1.170  26.320  15.720
 1385BOLB   C1D33237   0.150  26.490  14.940
 1385BOLB   C2D33238   0.400  26.180  14.860
 1385BOLB   C3D33239   0.760  26.020  15.130
 1385BOLB   C4D33240   0.910  25.590  15.140
 1386BOLB   NC133241  11.700  19.610   6.760
 1386BOLB   PO133242  11.460  19.960   6.680
 1386BOLB   GL133243  11.570  20.090   6.270
 1386BOLB   GL233244  11.520  19.890   6.000
 1386BOLB   C1A33245  11.910  20.160   6.040
 1386BOLB   C2A33246  11.820  20.190   5.630
 1386BOLB   C3A33247  11.990  20.140   5.140
 1386BOLB   C4A33248  12.410  20.260   5.010
 1386BOLB   C1B33249  11.260  19.890   5.600
 1386BOLB   C2B33250  11.070  19.750   5.300
 1386BOLB   C3B33251  10.840  19.680   4.900
 1386BOLB   C4B33252  10.790  19.900   4.550
 1386BOLB   NC233253  13.280  21.420   2.910
 1386BOLB   PO233254  13.270  20.990   2.880
 1386BOLB   GL333255  13.110  20.920   3.290
 1386BOLB   GL433256  13.060  21.230   3.440
 1386BOLB   C1C33257  13.140  20.620   3.690
 1386BOLB   C2C33258  13.070  20.780   4.090
 1386BOLB   C3C33259  12.870  20.700   4.540
 1386BOLB   C4C33260  12.750  20.470   4.950
 1386BOLB   C1D33261  13.380  21.150   3.740
 1386BOLB   C2D33262  13.550  20.910   4.140
 1386BOLB   C3D33263  13.750  20.980   4.560
 1386BOLB   C4D33264  13.690  20.900   4.980
 1387BOLB   NC133265  12.490  25.230   9.610
 1387BOLB   PO133266  13.010  25.190   9.490
 1387BOLB   GL133267  13.130  25.210   9.060
 1387BOLB   GL233268  13.020  25.060   8.980
 1387BOLB   C1A33269  13.220  25.270   8.630
 1387BOLB   C2A33270  13.360  25.630   8.340
 1387BOLB   C3A33271  13.630  25.830   8.050
 1387BOLB   C4A33272  13.570  26.260   7.850
 1387BOLB   C1B33273  12.810  25.030   8.590
 1387BOLB   C2B33274  12.940  25.110   8.090
 1387BOLB   C3B33275  13.060  25.140   7.750
 1387BOLB   C4B33276  13.090  24.810   7.380
 1387BOLB   NC233277  13.490  26.890   5.570
 1387BOLB   PO233278  13.240  27.060   6.000
 1387BOLB   GL333279  13.360  27.100   6.390
 1387BOLB   GL433280  13.600  26.850   6.530
 1387BOLB   C1C33281  13.600  27.170   6.820
 1387BOLB   C2C33282  13.960  27.280   7.160
 1387BOLB   C3C33283  14.040  26.950   7.400
 1387BOLB   C4C33284  13.900  26.580   7.660
 1387BOLB   C1D33285  13.530  26.490   6.750
 1387BOLB   C2D33286  13.260  26.240   6.940
 1387BOLB   C3D33287  12.990  25.820   7.090
 1387BOLB   C4D33288  12.850  26.050   7.530
 1388BOLB   NC133289  14.520  11.980  11.320
 1388BOLB   PO133290  14.430  11.610  11.590
 1388BOLB   GL133291  14.690  11.420  11.360
 1388BOLB   GL233292  14.420  11.510  11.100
 1388BOLB   C1A33293  14.880  11.180  11.100
 1388BOLB   C2A33294  15.150  10.990  10.900
 1388BOLB   C3A33295  15.240  10.690  10.760
 1388BOLB   C4A33296  15.610  10.560  10.670
 1388BOLB   C1B33297  14.400  11.190  10.750
 1388BOLB   C2B33298  14.650  10.780  10.720
 1388BOLB   C3B33299  14.760  10.600  10.410
 1388BOLB   C4B33300  15.140  10.300  10.310
 1388BOLB   NC233301  16.630   9.220   9.180
 1388BOLB   PO233302  16.650   9.050   9.550
 1388BOLB   GL333303  16.540   9.280   9.810
 1388BOLB   GL433304  16.770   9.190  10.050
 1388BOLB   C1C33305  16.600   9.750   9.830
 1388BOLB   C2C33306  16.240  10.020  10.060
 1388BOLB   C3C33307  16.160  10.380  10.120
 1388BOLB   C4C33308  16.030  10.530  10.530
 1388BOLB   C1D33309  16.600   9.570  10.400
 1388BOLB   C2D33310  16.660   9.930  10.350
 1388BOLB   C3D33311  16.580  10.410  10.380
 1388BOLB   C4D33312  16.560  10.690  10.780
 1389BOLB   NC133313  12.940  23.500   8.700
 1389BOLB   PO133314  13.350  23.540   8.480
 1389BOLB   GL133315  13.330  23.860   8.080
 1389BOLB   GL233316  13.660  23.940   8.030
 1389BOLB   C1A33317  13.290  24.000   7.620
 1389BOLB   C2A33318  13.320  24.330   7.520
 1389BOLB   C3A33319  13.270  24.450   7.040
 1389BOLB   C4A33320  13.110  24.690   6.740
 1389BOLB   C1B33321  13.810  24.400   7.870
 1389BOLB   C2B33322  14.080  24.550   7.540
 1389BOLB   C3B33323  14.150  24.630   7.100
 1389BOLB   C4B33324  14.410  24.770   6.810
 1389BOLB   NC233325  14.240  25.310   4.640
 1389BOLB   PO233326  14.320  25.050   4.920
 1389BOLB   GL333327  13.970  24.840   5.170
 1389BOLB   GL433328  13.920  24.590   5.390
 1389BOLB   C1C33329  13.770  25.090   5.470
 1389BOLB   C2C33330  13.420  25.130   5.840
 1389BOLB   C3C33331  13.080  25.070   6.020
 1389BOLB   C4C33332  13.010  24.890   6.380
 1389BOLB   C1D33333  13.770  24.480   5.770
 1389BOLB   C2D33334  13.370  24.620   5.980
 1389BOLB   C3D33335  13.090  24.430   6.300
 1389BOLB   C4D33336  13.050  24.200   6.640
 1390BOLB   NC133337  12.830  10.930  12.340
 1390BOLB   PO133338  12.510  10.670  12.310
 1390BOLB   GL133339  12.810  10.630  11.980
 1390BOLB   GL233340  13.010  10.350  12.160
 1390BOLB   C1A33341  13.100  10.750  11.660
 1390BOLB   C2A33342  13.270  10.540  11.320
 1390BOLB   C3A33343  13.210  10.250  11.150
 1390BOLB   C4A33344  13.300   9.810  11.100
 1390BOLB   C1B33345  12.820  10.040  12.000
 1390BOLB   C2B33346  12.750   9.650  11.940
 1390BOLB   C3B33347  12.740   9.280  11.980
 1390BOLB   C4B33348  12.670   8.870  11.780
 1390BOLB   NC233349  14.900   7.760  11.620
 1390BOLB   PO233350  14.720   7.820  11.260
 1390BOLB   GL333351  14.220   7.900  11.180
 1390BOLB   GL433352  14.180   8.190  11.310
 1390BOLB   C1C33353  13.770   8.230  11.100
 1390BOLB   C2C33354  13.440   8.620  11.180
 1390BOLB   C3C33355  13.180   9.040  11.160
 1390BOLB   C4C33356  13.070   9.410  11.060
 1390BOLB   C1D33357  13.930   8.600  11.380
 1390BOLB   C2D33358  13.840   9.070  11.450
 1390BOLB   C3D33359  13.870   9.040  11.840
 1390BOLB   C4D33360  13.820   8.780  12.190
 1391BOLB   NC133361  18.960  21.860  10.810
 1391BOLB   PO133362  18.820  21.550  10.550
 1391BOLB   GL133363  19.170  21.650  10.330
 1391BOLB   GL233364  19.350  21.810  10.470
 1391BOLB   C1A33365  19.490  21.290  10.180
 1391BOLB   C2A33366  19.740  21.260   9.720
 1391BOLB   C3A33367  19.630  21.020   9.280
 1391BOLB   C4A33368  19.800  21.070   8.960
 1391BOLB   C1B33369  19.690  21.900  10.370
 1391BOLB   C2B33370  19.970  21.800  10.020
 1391BOLB   C3B33371  20.100  21.770   9.530
 1391BOLB   C4B33372  20.460  21.790   9.240
 1391BOLB   NC233373  20.810  21.670   6.850
 1391BOLB   PO233374  21.140  21.520   6.960
 1391BOLB   GL333375  20.930  21.350   7.250
 1391BOLB   GL433376  20.980  21.020   7.180
 1391BOLB   C1C33377  20.710  21.340   7.600
 1391BOLB   C2C33378  20.320  21.390   7.810
 1391BOLB   C3C33379  20.070  21.360   8.160
 1391BOLB   C4C33380  19.920  21.340   8.620
 1391BOLB   C1D33381  20.690  20.840   7.440
 1391BOLB   C2D33382  20.250  20.960   7.530
 1391BOLB   C3D33383  19.950  20.960   7.920
 1391BOLB   C4D33384  19.640  21.020   8.280
 1392BOLB   NC133385   4.550  21.240   9.590
 1392BOLB   PO133386   4.180  21.440   9.220
 1392BOLB   GL133387   4.240  21.610   8.840
 1392BOLB   GL233388   4.530  21.850   8.720
 1392BOLB   C1A33389   4.260  21.540   8.430
 1392BOLB   C2A33390   4.060  21.910   8.340
 1392BOLB   C3A33391   3.740  22.210   8.510
 1392BOLB   C4A33392   3.870  22.650   8.570
 1392BOLB   C1B33393   4.280  22.190   8.710
 1392BOLB   C2B33394   4.210  22.400   8.310
 1392BOLB   C3B33395   4.080  22.640   8.100
 1392BOLB   C4B33396   3.620  22.690   8.120
 1392BOLB   NC233397   3.150  24.410   6.560
 1392BOLB   PO233398   3.380  24.030   6.530
 1392BOLB   GL333399   3.450  23.950   6.940
 1392BOLB   GL433400   3.700  24.080   7.180
 1392BOLB   C1C33401   3.380  23.720   7.270
 1392BOLB   C2C33402   3.310  23.500   7.760
 1392BOLB   C3C33403   3.450  23.200   8.200
 1392BOLB   C4C33404   3.720  23.030   8.460
 1392BOLB   C1D33405   3.770  24.230   7.470
 1392BOLB   C2D33406   3.690  24.140   7.850
 1392BOLB   C3D33407   3.700  23.710   8.110
 1392BOLB   C4D33408   3.330  23.620   8.400
 1393BOLB   NC133409  15.430  18.790   8.480
 1393BOLB   PO133410  15.560  18.930   8.070
 1393BOLB   GL133411  15.740  19.030   7.570
 1393BOLB   GL233412  15.520  18.760   7.300
 1393BOLB   C1A33413  15.990  19.250   7.260
 1393BOLB   C2A33414  16.040  19.570   6.860
 1393BOLB   C3A33415  16.090  19.940   6.620
 1393BOLB   C4A33416  16.060  20.150   6.160
 1393BOLB   C1B33417  15.630  19.030   6.900
 1393BOLB   C2B33418  15.510  19.070   6.530
 1393BOLB   C3B33419  15.530  19.280   6.180
 1393BOLB   C4B33420  15.740  19.460   5.810
 1393BOLB   NC233421  16.990  19.760   3.920
 1393BOLB   PO233422  16.590  19.700   3.870
 1393BOLB   GL333423  16.300  19.810   4.230
 1393BOLB   GL433424  15.950  19.850   4.050
 1393BOLB   C1C33425  16.070  20.130   4.620
 1393BOLB   C2C33426  16.050  20.310   4.950
 1393BOLB   C3C33427  16.190  20.290   5.350
 1393BOLB   C4C33428  16.210  20.310   5.750
 1393BOLB   C1D33429  15.810  19.430   4.120
 1393BOLB   C2D33430  15.650  19.290   4.600
 1393BOLB   C3D33431  15.730  19.070   4.840
 1393BOLB   C4D33432  16.040  18.740   4.880
 1394BOLB   NC133433  10.220  10.790  12.450
 1394BOLB   PO133434   9.930  10.920  12.130
 1394BOLB   GL133435   9.860  10.740  11.790
 1394BOLB   GL233436  10.040  10.410  11.900
 1394BOLB   C1A33437   9.460  10.490  11.640
 1394BOLB   C2A33438   9.090  10.250  11.660
 1394BOLB   C3A33439   8.890   9.980  11.370
 1394BOLB   C4A33440   8.780   9.780  11.030
 1394BOLB   C1B33441  10.360  10.020  11.980
 1394BOLB   C2B33442  10.370   9.610  11.890
 1394BOLB   C3B33443  10.170   9.160  11.750
 1394BOLB   C4B33444   9.880   8.960  11.550
 1394BOLB   NC233445   7.670   7.810  10.790
 1394BOLB   PO233446   8.000   7.890  10.480
 1394BOLB   GL333447   8.140   8.240  10.560
 1394BOLB   GL433448   8.190   8.320  10.230
 1394BOLB   C1C33449   8.480   8.380  10.750
 1394BOLB   C2C33450   8.760   8.700  10.700
 1394BOLB   C3C33451   8.720   9.040  10.750
 1394BOLB   C4C33452   8.800   9.420  10.950
 1394BOLB   C1D33453   8.100   8.660  10.300
 1394BOLB   C2D33454   8.240   8.950  10.640
 1394BOLB   C3D33455   8.220   9.210  10.940
 1394BOLB   C4D33456   8.220   9.250  11.240
 1395BOLB   NC133457  14.100  11.630  17.880
 1395BOLB   PO133458  13.860  11.660  17.520
 1395BOLB   GL133459  13.950  11.240  17.610
 1395BOLB   GL233460  13.770  11.250  17.790
 1395BOLB   C1A33461  14.210  10.830  17.820
 1395BOLB   C2A33462  14.370  10.460  18.180
 1395BOLB   C3A33463  14.280  10.040  18.310
 1395BOLB   C4A33464  14.550   9.760  18.490
 1395BOLB   C1B33465  13.660  10.870  17.830
 1395BOLB   C2B33466  13.760  10.460  17.900
 1395BOLB   C3B33467  14.060  10.180  17.870
 1395BOLB   C4B33468  14.230   9.690  17.950
 1395BOLB   NC233469  16.720   8.470  18.770
 1395BOLB   PO233470  16.790   8.840  19.050
 1395BOLB   GL333471  16.540   8.950  18.910
 1395BOLB   GL433472  16.510   9.270  18.830
 1395BOLB   C1C33473  16.090   8.830  18.950
 1395BOLB   C2C33474  15.690   9.010  18.900
 1395BOLB   C3C33475  15.210   9.240  18.760
 1395BOLB   C4C33476  14.820   9.450  18.680
 1395BOLB   C1D33477  16.130   9.340  18.740
 1395BOLB   C2D33478  15.810   9.530  18.510
 1395BOLB   C3D33479  15.430   9.650  18.330
 1395BOLB   C4D33480  15.190   9.980  18.040
 1396BOLB   NC133481  15.800  14.820   9.480
 1396BOLB   PO133482  15.810  14.660   9.110
 1396BOLB   GL133483  15.890  14.460   8.650
 1396BOLB   GL233484  15.740  14.230   8.510
 1396BOLB   C1A33485  16.090  14.470   8.230
 1396BOLB   C2A33486  16.110  14.430   7.780
 1396BOLB   C3A33487  15.970  14.170   7.390
 1396BOLB   C4A33488  15.740  13.990   6.870
 1396BOLB   C1B33489  16.090  13.950   8.330
 1396BOLB   C2B33490  16.160  13.530   8.390
 1396BOLB   C3B33491  16.140  13.130   8.200
 1396BOLB   C4B33492  16.520  12.950   8.040
 1396BOLB   NC233493  17.520  13.780   5.030
 1396BOLB   PO233494  17.390  13.410   5.150
 1396BOLB   GL333495  17.340  13.430   5.590
 1396BOLB   GL433496  17.330  13.720   5.590
 1396BOLB   C1C33497  17.180  13.540   6.090
 1396BOLB   C2C33498  16.770  13.450   6.460
 1396BOLB   C3C33499  16.470  13.680   6.680
 1396BOLB   C4C33500  15.980  13.800   6.610
 1396BOLB   C1D33501  17.180  14.060   5.800
 1396BOLB   C2D33502  17.020  14.300   6.080
 1396BOLB   C3D33503  17.170  14.720   6.330
 1396BOLB   C4D33504  17.250  14.730   6.750
 1397BOLB   NC133505  10.620  27.720  14.550
 1397BOLB   PO133506  10.730  28.150  14.570
 1397BOLB   GL133507  10.640  28.480  14.300
 1397BOLB   GL233508  10.800  28.720  14.480
 1397BOLB   C1A33509  10.770  28.770  13.980
 1397BOLB   C2A33510  10.870  29.170  13.880
 1397BOLB   C3A33511  11.190  29.290  13.690
 1397BOLB   C4A33512  11.510  29.220  13.400
 1397BOLB   C1B33513  10.470  28.980  14.350
 1397BOLB   C2B33514  10.120  29.140  14.050
 1397BOLB   C3B33515   9.850  28.970  13.710
 1397BOLB   C4B33516   9.820  28.820  13.400
 1397BOLB   NC233517  11.520  31.130  11.870
 1397BOLB   PO233518  11.240  31.330  12.180
 1397BOLB   GL333519  11.440  30.910  12.360
 1397BOLB   GL433520  11.740  30.840  12.390
 1397BOLB   C1C33521  11.480  30.430  12.480
 1397BOLB   C2C33522  11.460  30.020  12.510
 1397BOLB   C3C33523  11.390  29.840  12.950
 1397BOLB   C4C33524  11.530  29.470  13.060
 1397BOLB   C1D33525  12.010  30.470  12.420
 1397BOLB   C2D33526  12.140  30.230  12.770
 1397BOLB   C3D33527  12.390  29.840  12.760
 1397BOLB   C4D33528  12.360  29.520  12.460
 1398BOLB   NC133529   3.250  23.360  12.130
 1398BOLB   PO133530   2.820  23.280  12.080
 1398BOLB   GL133531   2.700  23.500  11.740
 1398BOLB   GL233532   2.530  23.510  11.440
 1398BOLB   C1A33533   2.610  24.020  11.710
 1398BOLB   C2A33534   2.300  24.390  11.770
 1398BOLB   C3A33535   1.840  24.470  11.790
 1398BOLB   C4A33536   1.440  24.610  12.040
 1398BOLB   C1B33537   2.160  23.810  11.450
 1398BOLB   C2B33538   2.160  24.270  11.280
 1398BOLB   C3B33539   2.240  24.540  11.020
 1398BOLB   C4B33540   2.440  24.940  10.830
 1398BOLB   NC233541  35.830  25.830  11.080
 1398BOLB   PO233542  36.170  26.040  10.840
 1398BOLB   GL333543   0.000  25.720  11.090
 1398BOLB   GL433544   0.050  25.650  11.390
 1398BOLB   C1C33545   0.220  25.280  11.060
 1398BOLB   C2C33546   0.560  25.050  11.290
 1398BOLB   C3C33547   0.930  24.950  11.510
 1398BOLB   C4C33548   1.180  24.830  11.870
 1398BOLB   C1D33549   0.390  25.580  11.550
 1398BOLB   C2D33550   0.790  25.430  11.530
 1398BOLB   C3D33551   1.260  25.310  11.600
 1398BOLB   C4D33552   1.670  25.280  11.290
 1399BOLB   NC133553   3.180   9.240  14.480
 1399BOLB   PO133554   3.190   9.530  14.140
 1399BOLB   GL133555   3.510   9.860  13.890
 1399BOLB   GL233556   3.680   9.870  13.540
 1399BOLB   C1A33557   3.600  10.290  13.890
 1399BOLB   C2A33558   3.920  10.620  13.840
 1399BOLB   C3A33559   4.090  10.920  14.140
 1399BOLB   C4A33560   4.010  11.070  14.560
 1399BOLB   C1B33561   4.070  10.050  13.670
 1399BOLB   C2B33562   4.500  10.150  13.880
 1399BOLB   C3B33563   4.940  10.320  13.940
 1399BOLB   C4B33564   5.050  10.610  13.790
 1399BOLB   NC233565   2.960  10.200  16.520
 1399BOLB   PO233566   3.230  10.240  16.200
 1399BOLB   GL333567   3.480  10.410  15.910
 1399BOLB   GL433568   3.260  10.660  15.710
 1399BOLB   C1C33569   3.710  10.830  15.800
 1399BOLB   C2C33570   3.860  11.230  15.550
 1399BOLB   C3C33571   3.840  11.310  15.240
 1399BOLB   C4C33572   4.010  11.400  14.890
 1399BOLB   C1D33573   3.290  11.130  15.680
 1399BOLB   C2D33574   3.480  11.530  15.730
 1399BOLB   C3D33575   3.540  12.010  15.750
 1399BOLB   C4D33576   3.450  12.420  15.710
 1400BOLB   NC133577  12.040  11.530  11.370
 1400BOLB   PO133578  11.910  11.770  11.040
 1400BOLB   GL133579  11.940  11.480  10.760
 1400BOLB   GL233580  11.750  11.490  10.400
 1400BOLB   C1A33581  12.270  11.200  10.530
 1400BOLB   C2A33582  12.260  10.670  10.550
 1400BOLB   C3A33583  12.410  10.280  10.420
 1400BOLB   C4A33584  12.590   9.860  10.360
 1400BOLB   C1B33585  11.730  11.140  10.140
 1400BOLB   C2B33586  11.520  10.760   9.920
 1400BOLB   C3B33587  11.480  10.350  10.180
 1400BOLB   C4B33588  11.400  10.260  10.570
 1400BOLB   NC233589  13.810   7.760   9.140
 1400BOLB   PO233590  13.520   7.710   9.470
 1400BOLB   GL333591  13.540   8.180   9.430
 1400BOLB   GL433592  13.460   8.280   9.090
 1400BOLB   C1C33593  13.270   8.560   9.450
 1400BOLB   C2C33594  13.150   8.950   9.700
 1400BOLB   C3C33595  12.940   9.340   9.750
 1400BOLB   C4C33596  12.840   9.710   9.990
 1400BOLB   C1D33597  13.590   8.720   9.150
 1400BOLB   C2D33598  13.940   8.970   9.260
 1400BOLB   C3D33599  14.060   9.390   9.480
 1400BOLB   C4D33600  13.960   9.580   9.850
 1401BOLB   NC133601   5.880  25.620  11.640
 1401BOLB   PO133602   6.160  25.440  11.740
 1401BOLB   GL133603   6.310  25.810  11.460
 1401BOLB   GL233604   6.270  25.650  11.130
 1401BOLB   C1A33605   6.290  26.120  11.130
 1401BOLB   C2A33606   6.490  26.390  10.930
 1401BOLB   C3A33607   6.480  26.700  10.620
 1401BOLB   C4A33608   6.650  26.800  10.350
 1401BOLB   C1B33609   6.090  25.820  10.840
 1401BOLB   C2B33610   6.010  26.260  10.680
 1401BOLB   C3B33611   5.800  26.550  10.380
 1401BOLB   C4B33612   5.820  26.470   9.870
 1401BOLB   NC233613   6.140  29.100   9.040
 1401BOLB   PO233614   6.120  28.750   9.170
 1401BOLB   GL333615   6.370  28.450   9.110
 1401BOLB   GL433616   6.770  28.510   9.000
 1401BOLB   C1C33617   6.330  28.100   9.390
 1401BOLB   C2C33618   6.030  27.830   9.770
 1401BOLB   C3C33619   6.060  27.380  10.010
 1401BOLB   C4C33620   6.480  27.260  10.210
 1401BOLB   C1D33621   6.840  28.080   9.290
 1401BOLB   C2D33622   6.740  27.880   9.660
 1401BOLB   C3D33623   6.530  27.750  10.020
 1401BOLB   C4D33624   6.270  27.840  10.370
 1402BOLB   NC133625  19.550  19.040  10.700
 1402BOLB   PO133626  19.720  18.880  11.110
 1402BOLB   GL133627  20.240  18.890  11.050
 1402BOLB   GL233628  20.470  18.830  11.270
 1402BOLB   C1A33629  20.460  19.320  10.880
 1402BOLB   C2A33630  20.500  19.650  10.770
 1402BOLB   C3A33631  20.610  20.040  10.570
 1402BOLB   C4A33632  20.690  20.410  10.380
 1402BOLB   C1B33633  20.750  19.200  11.270
 1402BOLB   C2B33634  20.860  19.580  11.220
 1402BOLB   C3B33635  20.720  20.040  11.050
 1402BOLB   C4B33636  20.920  20.250  10.960
 1402BOLB   NC233637  22.740  20.180   9.460
 1402BOLB   PO233638  22.670  20.450   9.080
 1402BOLB   GL333639  22.340  20.500   9.280
 1402BOLB   GL433640  22.270  20.230   9.430
 1402BOLB   C1C33641  21.920  20.770   9.380
 1402BOLB   C2C33642  21.660  20.820   9.730
 1402BOLB   C3C33643  21.320  20.710  10.080
 1402BOLB   C4C33644  21.030  20.680  10.330
 1402BOLB   C1D33645  21.870  20.210   9.520
 1402BOLB   C2D33646  21.470  20.280   9.750
 1402BOLB   C3D33647  21.000  20.420   9.760
 1402BOLB   C4D33648  20.590  20.500   9.870
 1403BOLB   NC133649   2.430  24.080  16.010
 1403BOLB   PO133650   2.120  23.940  15.730
 1403BOLB   GL133651   1.730  23.980  15.740
 1403BOLB   GL233652   1.630  24.190  15.720
 1403BOLB   C1A33653   1.200  23.960  15.710
 1403BOLB   C2A33654   0.830  23.990  15.890
 1403BOLB   C3A33655   0.510  24.210  15.900
 1403BOLB   C4A33656   0.160  24.430  15.820
 1403BOLB   C1B33657   1.240  24.400  15.890
 1403BOLB   C2B33658   0.910  24.470  15.680
 1403BOLB   C3B33659   0.520  24.640  15.460
 1403BOLB   C4B33660   0.050  24.510  15.340
 1403BOLB   NC233661  34.470  24.630  15.510
 1403BOLB   PO233662  34.770  24.390  15.220
 1403BOLB   GL333663  35.130  24.420  15.130
 1403BOLB   GL433664  35.180  24.130  15.110
 1403BOLB   C1C33665  35.460  24.740  15.330
 1403BOLB   C2C33666  35.820  25.000  15.300
 1403BOLB   C3C33667  36.230  25.030  15.290
 1403BOLB   C4C33668   0.100  24.920  15.640
 1403BOLB   C1D33669  35.400  24.270  15.470
 1403BOLB   C2D33670  35.620  24.270  15.840
 1403BOLB   C3D33671  35.770  24.010  16.230
 1403BOLB   C4D33672  35.930  24.170  16.640
 1404BOLB   NC133673   7.540  12.510  12.110
 1404BOLB   PO133674   7.620  12.790  12.450
 1404BOLB   GL133675   7.770  13.130  12.650
 1404BOLB   GL233676   7.860  13.000  12.880
 1404BOLB   C1A33677   8.070  13.450  12.740
 1404BOLB   C2A33678   8.380  13.650  13.020
 1404BOLB   C3A33679   8.260  13.950  13.220
 1404BOLB   C4A33680   8.210  14.350  13.560
 1404BOLB   C1B33681   8.170  13.070  13.250
 1404BOLB   C2B33682   8.600  13.310  13.430
 1404BOLB   C3B33683   9.050  13.310  13.290
 1404BOLB   C4B33684   9.410  13.380  13.210
 1404BOLB   NC233685   6.610  13.630  14.260
 1404BOLB   PO233686   6.810  13.710  14.610
 1404BOLB   GL333687   7.110  13.880  14.570
 1404BOLB   GL433688   7.080  13.930  14.150
 1404BOLB   C1C33689   7.310  14.140  14.870
 1404BOLB   C2C33690   7.580  14.500  14.710
 1404BOLB   C3C33691   7.880  14.460  14.280
 1404BOLB   C4C33692   8.040  14.480  13.950
 1404BOLB   C1D33693   7.310  14.120  13.760
 1404BOLB   C2D33694   7.630  14.480  13.720
 1404BOLB   C3D33695   7.890  14.740  13.530
 1404BOLB   C4D33696   7.790  15.130  13.420
 1405BOLB   NC133697  13.820  20.000   7.110
 1405BOLB   PO133698  13.750  19.780   6.690
 1405BOLB   GL133699  13.850  19.740   6.260
 1405BOLB   GL233700  13.980  20.130   6.340
 1405BOLB   C1A33701  14.050  19.740   5.910
 1405BOLB   C2A33702  14.190  19.650   5.540
 1405BOLB   C3A33703  14.170  19.830   5.080
 1405BOLB   C4A33704  14.140  19.930   4.710
 1405BOLB   C1B33705  13.950  20.250   5.860
 1405BOLB   C2B33706  14.220  20.170   5.530
 1405BOLB   C3B33707  14.400  20.360   5.280
 1405BOLB   C4B33708  14.600  20.740   5.080
 1405BOLB   NC233709  14.290  19.180   2.260
 1405BOLB   PO233710  14.580  18.870   2.540
 1405BOLB   GL333711  14.420  19.050   3.010
 1405BOLB   GL433712  14.570  19.360   3.220
 1405BOLB   C1C33713  14.130  19.140   3.280
 1405BOLB   C2C33714  14.260  19.310   3.690
 1405BOLB   C3C33715  14.050  19.650   3.920
 1405BOLB   C4C33716  14.230  19.820   4.360
 1405BOLB   C1D33717  14.670  19.650   3.630
 1405BOLB   C2D33718  14.590  19.750   3.980
 1405BOLB   C3D33719  14.670  19.650   4.440
 1405BOLB   C4D33720  14.740  19.200   4.620
 1406BOLB   NC133721  12.870  16.590   7.040
 1406BOLB   PO133722  12.780  16.250   6.820
 1406BOLB   GL133723  12.990  15.980   6.480
 1406BOLB   GL233724  12.790  15.750   6.570
 1406BOLB   C1A33725  13.290  15.600   6.350
 1406BOLB   C2A33726  13.480  15.350   6.050
 1406BOLB   C3A33727  13.710  15.350   5.680
 1406BOLB   C4A33728  14.040  15.380   5.420
 1406BOLB   C1B33729  12.800  15.570   6.110
 1406BOLB   C2B33730  12.730  15.420   5.790
 1406BOLB   C3B33731  12.710  15.230   5.390
 1406BOLB   C4B33732  12.910  14.880   5.310
 1406BOLB   NC233733  14.930  15.610   3.370
 1406BOLB   PO233734  15.410  15.670   3.380
 1406BOLB   GL333735  15.310  15.730   3.870
 1406BOLB   GL433736  15.430  15.970   4.050
 1406BOLB   C1C33737  14.900  15.860   4.150
 1406BOLB   C2C33738  14.540  15.820   4.460
 1406BOLB   C3C33739  14.370  15.590   4.770
 1406BOLB   C4C33740  14.190  15.430   5.060
 1406BOLB   C1D33741  15.680  16.150   4.370
 1406BOLB   C2D33742  15.600  16.430   4.640
 1406BOLB   C3D33743  15.350  16.720   4.800
 1406BOLB   C4D33744  15.140  16.770   5.210
 1407BOLB   NC133745  14.110  24.190   9.200
 1407BOLB   PO133746  13.740  24.500   9.280
 1407BOLB   GL133747  13.630  24.870   9.130
 1407BOLB   GL233748  13.590  25.180   9.220
 1407BOLB   C1A33749  13.680  24.960   8.710
 1407BOLB   C2A33750  13.810  25.390   8.540
 1407BOLB   C3A33751  14.070  25.660   8.160
 1407BOLB   C4A33752  14.220  25.740   7.800
 1407BOLB   C1B33753  13.590  25.610   9.020
 1407BOLB   C2B33754  13.570  25.830   8.760
 1407BOLB   C3B33755  13.940  25.990   8.500
 1407BOLB   C4B33756  13.980  26.280   8.130
 1407BOLB   NC233757  14.320  27.620   6.330
 1407BOLB   PO233758  14.660  27.530   6.050
 1407BOLB   GL333759  14.550  27.270   6.540
 1407BOLB   GL433760  14.880  27.100   6.650
 1407BOLB   C1C33761  14.310  26.910   6.720
 1407BOLB   C2C33762  13.990  26.800   6.890
 1407BOLB   C3C33763  13.880  26.400   7.200
 1407BOLB   C4C33764  14.100  26.110   7.540
 1407BOLB   C1D33765  15.210  26.900   6.940
 1407BOLB   C2D33766  15.290  26.800   7.400
 1407BOLB   C3D33767  15.250  26.560   7.770
 1407BOLB   C4D33768  14.960  26.440   8.080
 1408BOLB   NC133769   9.170  12.600   9.410
 1408BOLB   PO133770   8.860  12.480   9.650
 1408BOLB   GL133771   8.740  12.190   9.540
 1408BOLB   GL233772   8.810  11.930   9.780
 1408BOLB   C1A33773   8.700  11.730   9.290
 1408BOLB   C2A33774   8.630  11.580   8.870
 1408BOLB   C3A33775   8.820  11.760   8.470
 1408BOLB   C4A33776   8.880  11.570   8.100
 1408BOLB   C1B33777   8.660  11.490   9.810
 1408BOLB   C2B33778   8.640  11.160   9.580
 1408BOLB   C3B33779   8.500  10.920   9.390
 1408BOLB   C4B33780   8.500  10.530   9.050
 1408BOLB   NC233781   8.710  10.310   6.570
 1408BOLB   PO233782   8.860  10.280   6.160
 1408BOLB   GL333783   8.880  10.810   6.370
 1408BOLB   GL433784   9.150  10.750   6.550
 1408BOLB   C1C33785   8.740  11.070   6.640
 1408BOLB   C2C33786   8.590  11.170   6.990
 1408BOLB   C3C33787   8.670  11.080   7.350
 1408BOLB   C4C33788   8.820  11.180   7.730
 1408BOLB   C1D33789   9.320  10.930   6.910
 1408BOLB   C2D33790   9.680  11.100   7.220
 1408BOLB   C3D33791   9.820  11.490   7.340
 1408BOLB   C4D33792   9.560  11.800   7.520
 1409BOLB   NC133793  20.000  18.110  12.520
 1409BOLB   PO133794  19.770  17.700  12.460
 1409BOLB   GL133795  20.060  17.480  12.290
 1409BOLB   GL233796  20.080  17.280  12.070
 1409BOLB   C1A33797  20.520  17.470  12.350
 1409BOLB   C2A33798  20.990  17.620  12.250
 1409BOLB   C3A33799  21.450  17.660  12.060
 1409BOLB   C4A33800  21.740  17.940  11.920
 1409BOLB   C1B33801  20.330  16.930  12.240
 1409BOLB   C2B33802  20.570  16.690  12.480
 1409BOLB   C3B33803  20.850  16.360  12.530
 1409BOLB   C4B33804  21.270  16.240  12.350
 1409BOLB   NC233805  23.760  16.780  11.960
 1409BOLB   PO233806  23.750  17.260  11.920
 1409BOLB   GL333807  23.340  17.080  12.030
 1409BOLB   GL433808  23.220  16.860  11.800
 1409BOLB   C1C33809  23.110  17.290  12.410
 1409BOLB   C2C33810  22.690  17.510  12.330
 1409BOLB   C3C33811  22.410  17.940  12.260
 1409BOLB   C4C33812  22.070  18.050  12.010
 1409BOLB   C1D33813  23.170  17.230  11.560
 1409BOLB   C2D33814  23.070  17.700  11.470
 1409BOLB   C3D33815  23.080  18.030  11.770
 1409BOLB   C4D33816  22.750  18.140  11.980
 1410BOLB   NC133817   3.890  24.650  12.830
 1410BOLB   PO133818   4.030  25.020  13.040
 1410BOLB   GL133819   3.790  25.380  13.240
 1410BOLB   GL233820   3.770  25.750  13.420
 1410BOLB   C1A33821   3.530  25.640  13.010
 1410BOLB   C2A33822   3.390  25.920  12.710
 1410BOLB   C3A33823   3.260  26.360  12.520
 1410BOLB   C4A33824   2.920  26.710  12.470
 1410BOLB   C1B33825   3.880  26.050  13.220
 1410BOLB   C2B33826   3.770  26.460  12.960
 1410BOLB   C3B33827   3.450  26.700  12.990
 1410BOLB   C4B33828   3.210  27.010  13.260
 1410BOLB   NC233829   1.830  28.180  11.470
 1410BOLB   PO233830   1.540  27.960  11.150
 1410BOLB   GL333831   1.810  27.630  11.310
 1410BOLB   GL433832   1.700  27.400  11.530
 1410BOLB   C1C33833   2.160  27.310  11.450
 1410BOLB   C2C33834   2.320  27.050  11.660
 1410BOLB   C3C33835   2.460  26.860  11.940
 1410BOLB   C4C33836   2.560  26.840  12.300
 1410BOLB   C1D33837   1.790  27.080  11.790
 1410BOLB   C2D33838   1.960  26.810  11.950
 1410BOLB   C3D33839   2.220  26.500  12.090
 1410BOLB   C4D33840   2.420  26.340  12.350
 1411BOLB   NC133841  16.340  20.670   8.980
 1411BOLB   PO133842  16.640  20.630   8.690
 1411BOLB   GL133843  16.690  20.780   8.320
 1411BOLB   GL233844  16.660  21.100   8.150
 1411BOLB   C1A33845  16.950  20.780   7.930
 1411BOLB   C2A33846  17.140  20.830   7.580
 1411BOLB   C3A33847  17.120  20.730   7.130
 1411BOLB   C4A33848  17.290  20.650   6.820
 1411BOLB   C1B33849  16.870  21.220   7.810
 1411BOLB   C2B33850  17.130  21.260   7.330
 1411BOLB   C3B33851  17.370  21.210   6.890
 1411BOLB   C4B33852  17.540  21.000   6.570
 1411BOLB   NC233853  18.770  20.620   4.950
 1411BOLB   PO233854  18.570  20.420   4.610
 1411BOLB   GL333855  18.280  20.540   5.060
 1411BOLB   GL433856  18.060  20.880   4.960
 1411BOLB   C1C33857  18.330  20.340   5.370
 1411BOLB   C2C33858  18.050  20.310   5.740
 1411BOLB   C3C33859  17.880  20.370   6.180
 1411BOLB   C4C33860  17.480  20.470   6.410
 1411BOLB   C1D33861  17.660  21.050   5.180
 1411BOLB   C2D33862  17.370  21.080   5.500
 1411BOLB   C3D33863  17.270  20.950   5.890
 1411BOLB   C4D33864  17.120  20.930   6.350
 1412BOLB   NC133865  10.270  24.470  20.610
 1412BOLB   PO133866  10.400  24.350  21.070
 1412BOLB   GL133867  10.400  24.680  21.460
 1412BOLB   GL233868  10.240  25.050  21.400
 1412BOLB   C1A33869  10.390  24.740  21.970
 1412BOLB   C2A33870  10.350  24.980  22.330
 1412BOLB   C3A33871  10.370  25.360  22.520
 1412BOLB   C4A33872  10.320  25.620  22.820
 1412BOLB   C1B33873  10.480  25.200  21.780
 1412BOLB   C2B33874  10.780  25.430  21.860
 1412BOLB   C3B33875  10.940  25.810  21.980
 1412BOLB   C4B33876  10.970  26.140  22.190
 1412BOLB   NC233877  10.780  26.240  25.000
 1412BOLB   PO233878  10.460  26.210  25.140
 1412BOLB   GL333879  10.220  26.250  24.760
 1412BOLB   GL433880   9.940  26.150  24.740
 1412BOLB   C1C33881  10.100  26.400  24.280
 1412BOLB   C2C33882  10.080  26.220  23.800
 1412BOLB   C3C33883   9.990  26.000  23.360
 1412BOLB   C4C33884  10.140  25.930  23.020
 1412BOLB   C1D33885  10.000  25.900  24.350
 1412BOLB   C2D33886  10.050  25.780  23.930
 1412BOLB   C3D33887  10.130  25.540  23.550
 1412BOLB   C4D33888   9.900  25.540  23.130
 1413BOLB   NC133889   2.640  24.150  17.120
 1413BOLB   PO133890   2.500  24.150  16.680
 1413BOLB   GL133891   2.140  24.290  16.690
 1413BOLB   GL233892   2.200  24.470  17.040
 1413BOLB   C1A33893   1.820  24.510  16.760
 1413BOLB   C2A33894   1.550  24.550  17.030
 1413BOLB   C3A33895   1.200  24.720  17.160
 1413BOLB   C4A33896   0.870  24.730  17.350
 1413BOLB   C1B33897   1.960  24.740  17.290
 1413BOLB   C2B33898   1.780  25.180  17.410
 1413BOLB   C3B33899   1.690  25.240  17.860
 1413BOLB   C4B33900   1.370  25.360  18.100
 1413BOLB   NC233901  35.300  26.660  17.590
 1413BOLB   PO233902  35.480  26.190  17.380
 1413BOLB   GL333903  35.840  25.870  17.580
 1413BOLB   GL433904  35.560  25.710  17.720
 1413BOLB   C1C33905  36.180  25.680  17.810
 1413BOLB   C2C33906   0.100  25.430  17.780
 1413BOLB   C3C33907   0.470  25.280  17.800
 1413BOLB   C4C33908   0.720  25.000  17.740
 1413BOLB   C1D33909  35.860  25.350  17.450
 1413BOLB   C2D33910  36.280  25.120  17.430
 1413BOLB   C3D33911   0.220  24.840  17.620
 1413BOLB   C4D33912   0.500  24.460  17.810
 1414BOLB   NC133913   9.630  27.800  14.500
 1414BOLB   PO133914   9.540  27.930  14.920
 1414BOLB   GL133915   9.300  28.110  14.570
 1414BOLB   GL233916   9.150  28.250  14.210
 1414BOLB   C1A33917   8.900  28.490  14.600
 1414BOLB   C2A33918   8.600  28.780  14.470
 1414BOLB   C3A33919   8.250  28.930  14.080
 1414BOLB   C4A33920   8.230  29.040  13.640
 1414BOLB   C1B33921   8.990  28.680  14.090
 1414BOLB   C2B33922   8.640  28.890  13.810
 1414BOLB   C3B33923   8.570  29.310  13.920
 1414BOLB   C4B33924   8.800  29.660  14.110
 1414BOLB   NC233925   8.240  31.510  12.660
 1414BOLB   PO233926   7.980  31.220  13.030
 1414BOLB   GL333927   7.970  30.880  12.980
 1414BOLB   GL433928   7.930  30.750  12.690
 1414BOLB   C1C33929   7.850  30.380  13.050
 1414BOLB   C2C33930   7.690  29.940  12.940
 1414BOLB   C3C33931   7.900  29.600  13.010
 1414BOLB   C4C33932   7.960  29.340  13.330
 1414BOLB   C1D33933   8.190  30.400  12.660
 1414BOLB   C2D33934   8.550  30.130  12.650
 1414BOLB   C3D33935   8.870  29.830  12.660
 1414BOLB   C4D33936   9.040  29.490  12.420
 1415BOLB   NC133937  13.060  18.130   6.450
 1415BOLB   PO133938  12.700  18.590   6.460
 1415BOLB   GL133939  12.740  18.280   6.040
 1415BOLB   GL233940  12.460  18.290   5.950
 1415BOLB   C1A33941  13.010  18.050   5.770
 1415BOLB   C2A33942  13.050  17.740   5.530
 1415BOLB   C3A33943  12.940  17.480   5.050
 1415BOLB   C4A33944  13.240  17.700   4.620
 1415BOLB   C1B33945  12.510  18.450   5.540
 1415BOLB   C2B33946  12.620  18.640   5.140
 1415BOLB   C3B33947  12.410  18.780   4.690
 1415BOLB   C4B33948  12.400  19.220   4.610
 1415BOLB   NC233949  13.990  17.480   2.200
 1415BOLB   PO233950  13.820  17.730   2.560
 1415BOLB   GL333951  14.100  18.030   2.930
 1415BOLB   GL433952  14.030  17.690   3.200
 1415BOLB   C1C33953  14.290  18.050   3.390
 1415BOLB   C2C33954  14.030  18.270   3.710
 1415BOLB   C3C33955  13.710  18.240   4.010
 1415BOLB   C4C33956  13.490  17.990   4.440
 1415BOLB   C1D33957  13.730  18.040   3.380
 1415BOLB   C2D33958  13.530  18.410   3.530
 1415BOLB   C3D33959  13.200  18.430   3.770
 1415BOLB   C4D33960  12.800  18.410   4.090
 1416BOLB   NC133961  16.670  19.160   8.670
 1416BOLB   PO133962  17.090  19.380   8.600
 1416BOLB   GL133963  17.350  19.510   8.330
 1416BOLB   GL233964  17.520  19.840   8.340
 1416BOLB   C1A33965  17.530  19.260   7.980
 1416BOLB   C2A33966  17.840  19.100   7.810
 1416BOLB   C3A33967  18.080  18.740   7.600
 1416BOLB   C4A33968  18.420  18.780   7.320
 1416BOLB   C1B33969  17.800  19.720   8.020
 1416BOLB   C2B33970  18.230  19.490   8.020
 1416BOLB   C3B33971  18.620  19.730   7.890
 1416BOLB   C4B33972  18.540  19.820   7.460
 1416BOLB   NC233973  20.240  17.520   5.650
 1416BOLB   PO233974  19.860  17.420   5.650
 1416BOLB   GL333975  19.590  17.660   5.940
 1416BOLB   GL433976  19.660  17.970   5.900
 1416BOLB   C1C33977  19.530  17.900   6.340
 1416BOLB   C2C33978  19.410  18.320   6.640
 1416BOLB   C3C33979  19.220  18.430   7.010
 1416BOLB   C4C33980  18.890  18.600   7.320
 1416BOLB   C1D33981  19.680  18.380   6.210
 1416BOLB   C2D33982  19.430  18.640   6.290
 1416BOLB   C3D33983  19.250  18.850   6.550
 1416BOLB   C4D33984  18.860  18.890   6.800
 1417BOLB   NC133985  18.850  20.640  10.480
 1417BOLB   PO133986  18.690  20.990  10.240
 1417BOLB   GL133987  18.830  21.270  10.000
 1417BOLB   GL233988  18.760  21.240   9.730
 1417BOLB   C1A33989  19.160  21.560   9.870
 1417BOLB   C2A33990  19.530  21.700   9.850
 1417BOLB   C3A33991  19.780  22.190   9.820
 1417BOLB   C4A33992  19.750  22.720   9.940
 1417BOLB   C1B33993  18.810  21.410   9.330
 1417BOLB   C2B33994  18.740  21.270   8.870
 1417BOLB   C3B33995  18.750  21.160   8.420
 1417BOLB   C4B33996  18.660  21.070   8.020
 1417BOLB   NC233997  21.110  24.270   8.740
 1417BOLB   PO233998  21.270  23.940   9.040
 1417BOLB   GL333999  20.970  23.710   9.000
 1417BOLB   GL434000  21.050  23.440   9.180
 1417BOLB   C1C34001  20.690  23.690   9.320
 1417BOLB   C2C34002  20.220  23.760   9.440
 1417BOLB   C3C34003  20.010  23.520   9.620
 1417BOLB   C4C34004  19.960  23.180   9.820
 1417BOLB   C1D34005  20.890  23.060   9.410
 1417BOLB   C2D34006  20.790  22.930   9.720
 1417BOLB   C3D34007  20.560  22.680   9.850
 1417BOLB   C4D34008  20.330  22.580  10.180
 1418BOLB   NC134009  10.030  10.840  16.320
 1418BOLB   PO134010   9.890  10.830  16.650
 1418BOLB   GL134011   9.770  10.440  16.840
 1418BOLB   GL234012   9.850  10.550  17.170
 1418BOLB   C1A34013   9.810  10.080  16.940
 1418BOLB   C2A34014  10.020   9.760  17.300
 1418BOLB   C3A34015  10.270   9.740  17.620
 1418BOLB   C4A34016  10.180   9.430  17.900
 1418BOLB   C1B34017  10.040  10.260  17.360
 1418BOLB   C2B34018  10.160  10.250  17.800
 1418BOLB   C3B34019  10.090   9.910  18.100
 1418BOLB   C4B34020  10.090   9.650  18.440
 1418BOLB   NC234021   9.000   7.560  18.640
 1418BOLB   PO234022   8.810   7.620  18.240
 1418BOLB   GL334023   9.150   7.830  18.140
 1418BOLB   GL434024   9.110   8.070  18.550
 1418BOLB   C1C34025   9.270   8.240  17.970
 1418BOLB   C2C34026   9.540   8.550  17.970
 1418BOLB   C3C34027   9.790   8.770  17.750
 1418BOLB   C4C34028  10.110   9.030  17.800
 1418BOLB   C1D34029   9.100   8.470  18.350
 1418BOLB   C2D34030   9.050   8.730  18.040
 1418BOLB   C3D34031   9.190   8.800  17.640
 1418BOLB   C4D34032   9.270   9.250  17.480
 1419BOLB   NC134033   8.870  22.700   8.350
 1419BOLB   PO134034   9.260  22.630   8.320
 1419BOLB   GL134035   9.090  22.880   7.930
 1419BOLB   GL234036   8.830  23.060   7.880
 1419BOLB   C1A34037   9.070  22.880   7.510
 1419BOLB   C2A34038   9.070  23.070   7.130
 1419BOLB   C3A34039   9.020  23.360   6.820
 1419BOLB   C4A34040   8.940  23.660   6.350
 1419BOLB   C1B34041   8.840  23.350   7.530
 1419BOLB   C2B34042   9.030  23.600   7.220
 1419BOLB   C3B34043   9.010  23.910   7.000
 1419BOLB   C4B34044   9.040  24.000   6.670
 1419BOLB   NC234045   8.470  24.480   4.250
 1419BOLB   PO234046   8.580  24.250   3.820
 1419BOLB   GL334047   8.420  24.030   4.270
 1419BOLB   GL434048   8.640  23.720   4.370
 1419BOLB   C1C34049   8.510  23.980   4.790
 1419BOLB   C2C34050   8.390  23.630   5.120
 1419BOLB   C3C34051   8.600  23.400   5.540
 1419BOLB   C4C34052   8.740  23.530   5.920
 1419BOLB   C1D34053   8.820  23.590   4.900
 1419BOLB   C2D34054   9.060  23.210   5.080
 1419BOLB   C3D34055   9.090  23.200   5.490
 1419BOLB   C4D34056   8.850  22.990   5.870
 1420BOLB   NC134057   0.710  19.510   7.470
 1420BOLB   PO134058   1.140  19.450   7.430
 1420BOLB   GL134059   1.270  19.240   7.720
 1420BOLB   GL234060   1.540  19.220   7.530
 1420BOLB   C1A34061   1.230  18.950   7.990
 1420BOLB   C2A34062   1.420  18.980   8.380
 1420BOLB   C3A34063   1.660  18.870   8.670
 1420BOLB   C4A34064   1.960  19.000   8.560
 1420BOLB   C1B34065   1.700  19.100   7.940
 1420BOLB   C2B34066   1.890  19.460   8.200
 1420BOLB   C3B34067   1.620  19.420   8.540
 1420BOLB   C4B34068   1.350  19.220   8.830
 1420BOLB   NC234069   3.630  18.470   9.490
 1420BOLB   PO234070   3.600  18.790   9.750
 1420BOLB   GL334071   3.320  18.860   9.430
 1420BOLB   GL434072   3.410  19.190   9.530
 1420BOLB   C1C34073   3.200  18.670   9.100
 1420BOLB   C2C34074   2.940  18.730   8.770
 1420BOLB   C3C34075   2.630  18.740   8.540
 1420BOLB   C4C34076   2.290  18.890   8.460
 1420BOLB   C1D34077   3.190  19.280   9.140
 1420BOLB   C2D34078   3.060  19.200   8.750
 1420BOLB   C3D34079   2.650  19.220   8.490
 1420BOLB   C4D34080   2.230  19.390   8.610
 1421BOLB   NC134081  18.220  22.570  11.050
 1421BOLB   PO134082  18.070  22.460  10.700
 1421BOLB   GL134083  18.480  22.520  10.590
 1421BOLB   GL234084  18.760  22.580  10.810
 1421BOLB   C1A34085  18.750  22.460  10.230
 1421BOLB   C2A34086  19.120  22.610  10.160
 1421BOLB   C3A34087  19.100  22.780   9.760
 1421BOLB   C4A34088  19.400  23.090   9.690
 1421BOLB   C1B34089  18.930  22.850  10.610
 1421BOLB   C2B34090  19.200  23.090  10.460
 1421BOLB   C3B34091  19.560  23.200  10.240
 1421BOLB   C4B34092  19.680  23.550  10.060
 1421BOLB   NC234093  20.540  24.570   8.170
 1421BOLB   PO234094  20.640  24.400   8.540
 1421BOLB   GL334095  20.550  24.330   8.830
 1421BOLB   GL434096  20.620  24.050   8.950
 1421BOLB   C1C34097  20.190  24.340   9.130
 1421BOLB   C2C34098  19.830  24.110   9.340
 1421BOLB   C3C34099  19.580  23.810   9.510
 1421BOLB   C4C34100  19.540  23.420   9.570
 1421BOLB   C1D34101  20.310  23.750   8.950
 1421BOLB   C2D34102  19.900  24.050   8.810
 1421BOLB   C3D34103  19.440  24.110   8.720
 1421BOLB   C4D34104  19.030  24.300   8.860
 1422BOLB   NC134105  12.200  27.900  15.170
 1422BOLB   PO134106  12.190  27.950  15.650
 1422BOLB   GL134107  12.300  28.370  15.300
 1422BOLB   GL234108  12.150  28.410  15.010
 1422BOLB   C1A34109  12.630  28.640  15.440
 1422BOLB   C2A34110  12.650  28.740  15.820
 1422BOLB   C3A34111  12.840  29.110  16.000
 1422BOLB   C4A34112  12.770  29.300  16.300
 1422BOLB   C1B34113  12.310  28.910  15.160
 1422BOLB   C2B34114  12.610  29.220  15.040
 1422BOLB   C3B34115  13.000  29.350  15.020
 1422BOLB   C4B34116  13.340  29.270  14.990
 1422BOLB   NC234117  13.360  31.710  17.410
 1422BOLB   PO234118  13.400  31.510  17.010
 1422BOLB   GL334119  13.230  31.170  16.830
 1422BOLB   GL434120  13.550  30.940  16.760
 1422BOLB   C1C34121  13.040  30.930  16.730
 1422BOLB   C2C34122  13.010  30.530  16.730
 1422BOLB   C3C34123  13.160  30.120  16.580
 1422BOLB   C4C34124  12.910  29.710  16.530
 1422BOLB   C1D34125  13.490  30.530  16.600
 1422BOLB   C2D34126  13.640  30.070  16.580
 1422BOLB   C3D34127  13.630  29.520  16.490
 1422BOLB   C4D34128  13.780  29.160  16.340
 1423BOLB   NC134129  11.680  21.910   7.160
 1423BOLB   PO134130  12.000  22.130   7.170
 1423BOLB   GL134131  11.940  22.510   7.120
 1423BOLB   GL234132  12.250  22.730   6.970
 1423BOLB   C1A34133  11.620  22.710   7.000
 1423BOLB   C2A34134  11.380  22.780   6.650
 1423BOLB   C3A34135  11.250  23.210   6.470
 1423BOLB   C4A34136  11.150  23.480   6.080
 1423BOLB   C1B34137  11.970  23.060   6.930
 1423BOLB   C2B34138  12.030  23.270   6.580
 1423BOLB   C3B34139  12.430  23.460   6.470
 1423BOLB   C4B34140  12.710  23.770   6.170
 1423BOLB   NC234141  10.930  24.020   3.820
 1423BOLB   PO234142  11.040  23.620   3.710
 1423BOLB   GL334143  11.080  23.710   4.160
 1423BOLB   GL434144  11.280  23.460   4.190
 1423BOLB   C1C34145  11.010  23.900   4.610
 1423BOLB   C2C34146  11.130  23.990   5.040
 1423BOLB   C3C34147  11.320  23.860   5.370
 1423BOLB   C4C34148  11.170  23.570   5.670
 1423BOLB   C1D34149  11.030  23.370   4.460
 1423BOLB   C2D34150  10.640  23.550   4.500
 1423BOLB   C3D34151  10.550  23.850   4.800
 1423BOLB   C4D34152  10.650  24.280   4.800
 1424BOLB   NC134153  14.440  21.300   7.600
 1424BOLB   PO134154  14.680  21.640   7.700
 1424BOLB   GL134155  14.980  21.960   7.390
 1424BOLB   GL234156  15.260  21.840   7.290
 1424BOLB   C1A34157  14.930  22.330   7.200
 1424BOLB   C2A34158  14.690  22.620   6.990
 1424BOLB   C3A34159  14.730  22.850   6.610
 1424BOLB   C4A34160  14.420  22.820   6.160
 1424BOLB   C1B34161  15.330  22.240   6.960
 1424BOLB   C2B34162  15.500  22.300   6.540
 1424BOLB   C3B34163  15.640  22.280   6.200
 1424BOLB   C4B34164  15.330  22.370   5.870
 1424BOLB   NC234165  14.380  24.430   3.850
 1424BOLB   PO234166  14.640  24.460   4.220
 1424BOLB   GL334167  14.520  24.320   4.650
 1424BOLB   GL434168  14.630  24.580   4.830
 1424BOLB   C1C34169  14.470  24.010   5.000
 1424BOLB   C2C34170  14.410  23.740   5.360
 1424BOLB   C3C34171  14.210  23.480   5.690
 1424BOLB   C4C34172  14.360  23.160   5.840
 1424BOLB   C1D34173  14.840  24.350   5.120
 1424BOLB   C2D34174  14.960  23.890   5.160
 1424BOLB   C3D34175  15.230  23.630   5.520
 1424BOLB   C4D34176  15.390  23.300   5.760
 1425BOLB   NC134177   8.460  24.950  10.150
 1425BOLB   PO134178   8.010  24.920  10.070
 1425BOLB   GL134179   7.960  25.250   9.870
 1425BOLB   GL234180   8.260  25.200   9.570
 1425BOLB   C1A34181   7.640  25.390   9.580
 1425BOLB   C2A34182   7.410  25.720   9.620
 1425BOLB   C3A34183   7.330  25.920   9.220
 1425BOLB   C4A34184   7.110  25.870   8.800
 1425BOLB   C1B34185   8.040  25.480   9.280
 1425BOLB   C2B34186   8.100  25.810   9.140
 1425BOLB   C3B34187   7.830  26.150   8.990
 1425BOLB   C4B34188   7.800  26.390   8.670
 1425BOLB   NC234189   6.630  27.450   6.450
 1425BOLB   PO234190   6.480  27.320   6.930
 1425BOLB   GL334191   6.610  26.980   7.120
 1425BOLB   GL434192   6.880  26.970   7.000
 1425BOLB   C1C34193   6.790  26.880   7.470
 1425BOLB   C2C34194   6.860  26.490   7.710
 1425BOLB   C3C34195   7.090  26.320   8.110
 1425BOLB   C4C34196   7.030  26.090   8.480
 1425BOLB   C1D34197   7.010  26.580   7.200
 1425BOLB   C2D34198   7.190  26.180   7.380
 1425BOLB   C3D34199   7.210  25.870   7.730
 1425BOLB   C4D34200   7.650  25.760   7.890
 1426BOLB   NC134201  11.960  20.550   7.050
 1426BOLB   PO134202  12.140  20.910   6.950
 1426BOLB   GL134203  11.940  21.130   6.630
 1426BOLB   GL234204  12.310  21.110   6.460
 1426BOLB   C1A34205  11.680  21.030   6.370
 1426BOLB   C2A34206  11.250  20.920   6.190
 1426BOLB   C3A34207  11.230  20.850   5.740
 1426BOLB   C4A34208  11.370  20.900   5.400
 1426BOLB   C1B34209  12.100  21.220   6.130
 1426BOLB   C2B34210  11.810  21.100   5.850
 1426BOLB   C3B34211  11.500  21.260   5.750
 1426BOLB   C4B34212  11.080  21.300   5.740
 1426BOLB   NC234213  10.680  21.840   2.840
 1426BOLB   PO234214  11.140  21.820   3.130
 1426BOLB   GL334215  11.110  21.730   3.570
 1426BOLB   GL434216  10.840  21.640   3.730
 1426BOLB   C1C34217  11.190  21.330   3.870
 1426BOLB   C2C34218  11.340  21.220   4.180
 1426BOLB   C3C34219  11.430  21.190   4.610
 1426BOLB   C4C34220  11.490  20.960   4.980
 1426BOLB   C1D34221  10.870  21.730   4.200
 1426BOLB   C2D34222  10.940  21.360   4.490
 1426BOLB   C3D34223  11.030  21.370   4.860
 1426BOLB   C4D34224  11.300  21.390   5.280
 1427BOLB   NC134225   8.590  21.390   7.630
 1427BOLB   PO134226   9.030  21.460   7.560
 1427BOLB   GL134227   8.970  21.830   7.360
 1427BOLB   GL234228   9.080  22.120   7.140
 1427BOLB   C1A34229   8.690  21.800   7.090
 1427BOLB   C2A34230   8.660  21.890   6.730
 1427BOLB   C3A34231   8.880  22.090   6.410
 1427BOLB   C4A34232   8.930  22.190   5.860
 1427BOLB   C1B34233   8.900  22.380   6.840
 1427BOLB   C2B34234   8.870  22.740   6.600
 1427BOLB   C3B34235   8.970  23.120   6.380
 1427BOLB   C4B34236   9.190  23.320   6.050
 1427BOLB   NC234237   9.170  23.240   3.500
 1427BOLB   PO234238   9.550  23.440   3.680
 1427BOLB   GL334239   9.320  23.260   3.960
 1427BOLB   GL434240   9.140  23.520   4.190
 1427BOLB   C1C34241   9.140  23.090   4.370
 1427BOLB   C2C34242   9.220  22.820   4.730
 1427BOLB   C3C34243   9.010  22.650   5.120
 1427BOLB   C4C34244   8.880  22.540   5.570
 1427BOLB   C1D34245   9.210  23.490   4.620
 1427BOLB   C2D34246   9.330  23.660   5.020
 1427BOLB   C3D34247   9.530  23.590   5.390
 1427BOLB   C4D34248   9.540  23.220   5.730
 1428BOLB   NC134249  16.250  18.620   8.410
 1428BOLB   PO134250  16.270  18.410   7.980
 1428BOLB   GL134251  16.610  18.430   7.760
 1428BOLB   GL234252  16.690  18.100   7.760
 1428BOLB   C1A34253  16.720  18.600   7.340
 1428BOLB   C2A34254  16.790  18.670   6.900
 1428BOLB   C3A34255  17.070  18.930   6.700
 1428BOLB   C4A34256  17.110  19.130   6.260
 1428BOLB   C1B34257  16.460  17.890   7.360
 1428BOLB   C2B34258  16.340  18.200   7.000
 1428BOLB   C3B34259  16.340  18.510   6.680
 1428BOLB   C4B34260  16.130  18.540   6.210
 1428BOLB   NC234261  18.690  19.160   4.690
 1428BOLB   PO234262  18.430  19.180   4.360
 1428BOLB   GL334263  18.180  19.210   4.740
 1428BOLB   GL434264  18.030  18.990   4.740
 1428BOLB   C1C34265  18.250  19.160   5.150
 1428BOLB   C2C34266  18.010  18.880   5.440
 1428BOLB   C3C34267  17.780  18.970   5.870
 1428BOLB   C4C34268  17.410  19.120   5.950
 1428BOLB   C1D34269  17.680  19.170   5.030
 1428BOLB   C2D34270  17.560  19.060   5.430
 1428BOLB   C3D34271  17.570  18.610   5.500
 1428BOLB   C4D34272  17.260  18.330   5.610
 1429BOLB   NC134273  11.800  13.880   8.730
 1429BOLB   PO134274  11.730  14.180   8.350
 1429BOLB   GL134275  11.530  14.030   7.970
 1429BOLB   GL234276  11.250  13.780   8.030
 1429BOLB   C1A34277  11.470  13.920   7.590
 1429BOLB   C2A34278  11.290  13.740   7.170
 1429BOLB   C3A34279  11.290  13.480   6.770
 1429BOLB   C4A34280  11.550  13.230   6.550
 1429BOLB   C1B34281  11.260  13.470   7.630
 1429BOLB   C2B34282  11.110  13.270   7.190
 1429BOLB   C3B34283  11.200  12.910   6.950
 1429BOLB   C4B34284  11.400  12.670   6.720
 1429BOLB   NC234285  12.360  11.320   5.210
 1429BOLB   PO234286  11.850  11.350   5.030
 1429BOLB   GL334287  11.960  11.640   5.310
 1429BOLB   GL434288  11.940  12.000   5.270
 1429BOLB   C1C34289  11.780  11.690   5.800
 1429BOLB   C2C34290  11.800  12.080   6.080
 1429BOLB   C3C34291  11.710  12.520   6.050
 1429BOLB   C4C34292  11.600  12.810   6.350
 1429BOLB   C1D34293  11.850  12.210   5.620
 1429BOLB   C2D34294  11.430  12.320   5.740
 1429BOLB   C3D34295  11.010  12.340   5.880
 1429BOLB   C4D34296  10.790  11.950   6.000
 1430BOLB   NC134297  10.230  20.160   7.060
 1430BOLB   PO134298  10.460  20.040   6.700
 1430BOLB   GL134299  10.300  19.920   6.310
 1430BOLB   GL234300  10.530  19.640   6.280
 1430BOLB   C1A34301  10.040  19.900   5.960
 1430BOLB   C2A34302   9.730  20.020   5.730
 1430BOLB   C3A34303   9.510  20.300   5.470
 1430BOLB   C4A34304   9.140  20.380   5.230
 1430BOLB   C1B34305  10.660  19.680   5.920
 1430BOLB   C2B34306  10.770  19.940   5.680
 1430BOLB   C3B34307  10.790  20.140   5.240
 1430BOLB   C4B34308  10.560  20.230   4.860
 1430BOLB   NC234309   9.060  20.940   3.050
 1430BOLB   PO234310   9.430  21.080   3.030
 1430BOLB   GL334311   9.550  20.840   3.350
 1430BOLB   GL434312   9.890  20.710   3.370
 1430BOLB   C1C34313   9.470  20.850   3.760
 1430BOLB   C2C34314   9.350  20.640   4.070
 1430BOLB   C3C34315   9.220  20.540   4.430
 1430BOLB   C4C34316   9.090  20.640   4.860
 1430BOLB   C1D34317   9.940  20.730   3.890
 1430BOLB   C2D34318   9.770  20.870   4.180
 1430BOLB   C3D34319   9.630  20.860   4.590
 1430BOLB   C4D34320   9.580  20.690   4.990
 1431BOLB   NC134321   8.050  24.290   9.470
 1431BOLB   PO134322   7.610  24.310   9.670
 1431BOLB   GL134323   7.410  24.660   9.570
 1431BOLB   GL234324   7.710  24.880   9.660
 1431BOLB   C1A34325   7.230  25.020   9.400
 1431BOLB   C2A34326   7.250  25.350   9.150
 1431BOLB   C3A34327   7.580  25.540   9.050
 1431BOLB   C4A34328   7.580  25.840   8.720
 1431BOLB   C1B34329   7.900  24.960   9.290
 1431BOLB   C2B34330   7.790  25.140   8.820
 1431BOLB   C3B34331   7.820  25.330   8.460
 1431BOLB   C4B34332   7.920  25.260   7.990
 1431BOLB   NC234333   6.770  27.560   7.290
 1431BOLB   PO234334   6.900  27.980   7.390
 1431BOLB   GL334335   7.130  27.560   7.580
 1431BOLB   GL434336   7.180  27.290   7.330
 1431BOLB   C1C34337   7.470  27.530   7.870
 1431BOLB   C2C34338   7.650  27.200   8.050
 1431BOLB   C3C34339   7.650  26.650   8.140
 1431BOLB   C4C34340   7.610  26.150   8.290
 1431BOLB   C1D34341   7.190  27.120   7.790
 1431BOLB   C2D34342   7.180  26.840   8.140
 1431BOLB   C3D34343   7.190  26.610   8.530
 1431BOLB   C4D34344   7.280  26.350   8.810
 1432BOLB   NC134345   8.680  25.750  10.760
 1432BOLB   PO134346   9.010  25.630  10.580
 1432BOLB   GL134347   9.070  25.920  10.380
 1432BOLB   GL234348   8.750  26.180  10.350
 1432BOLB   C1A34349   9.240  26.300  10.320
 1432BOLB   C2A34350   9.370  26.600  10.090
 1432BOLB   C3A34351   9.190  26.920   9.730
 1432BOLB   C4A34352   8.810  27.050   9.460
 1432BOLB   C1B34353   8.510  26.530  10.350
 1432BOLB   C2B34354   8.170  26.750  10.270
 1432BOLB   C3B34355   7.900  26.940   9.990
 1432BOLB   C4B34356   7.670  27.220   9.760
 1432BOLB   NC234357   8.620  28.450   7.940
 1432BOLB   PO234358   8.120  28.540   7.970
 1432BOLB   GL334359   8.260  28.290   8.340
 1432BOLB   GL434360   8.590  28.220   8.430
 1432BOLB   C1C34361   8.240  28.150   8.780
 1432BOLB   C2C34362   8.060  27.740   8.800
 1432BOLB   C3C34363   8.330  27.350   8.810
 1432BOLB   C4C34364   8.560  27.160   9.130
 1432BOLB   C1D34365   8.820  27.870   8.260
 1432BOLB   C2D34366   9.060  27.540   8.370
 1432BOLB   C3D34367   9.330  27.180   8.690
 1432BOLB   C4D34368   9.760  27.070   8.820
 1433BOLB   NC134369   9.190  11.360  12.210
 1433BOLB   PO134370   9.460  11.120  12.480
 1433BOLB   GL134371   9.080  10.860  12.430
 1433BOLB   GL234372   8.920  10.860  12.190
 1433BOLB   C1A34373   8.970  10.480  12.480
 1433BOLB   C2A34374   9.070  10.100  12.210
 1433BOLB   C3A34375   9.180   9.830  11.830
 1433BOLB   C4A34376   9.230   9.500  11.490
 1433BOLB   C1B34377   8.730  10.580  11.960
 1433BOLB   C2B34378   8.680  10.190  11.890
 1433BOLB   C3B34379   8.670   9.770  11.790
 1433BOLB   C4B34380   8.650   9.470  11.460
 1433BOLB   NC234381   8.200   7.100  11.160
 1433BOLB   PO234382   7.850   7.500  11.100
 1433BOLB   GL334383   8.030   7.740  11.220
 1433BOLB   GL434384   8.000   7.940  11.500
 1433BOLB   C1C34385   8.150   8.200  11.080
 1433BOLB   C2C34386   8.310   8.620  11.130
 1433BOLB   C3C34387   8.550   8.880  11.250
 1433BOLB   C4C34388   8.980   9.130  11.240
 1433BOLB   C1D34389   8.060   8.160  11.880
 1433BOLB   C2D34390   8.110   8.350  12.180
 1433BOLB   C3D34391   8.620   8.570  12.070
 1433BOLB   C4D34392   8.850   8.890  12.200
 1434BOLB   NC134393  14.000  18.460   6.870
 1434BOLB   PO134394  13.780  18.070   7.020
 1434BOLB   GL134395  13.990  17.930   6.630
 1434BOLB   GL234396  13.720  17.810   6.390
 1434BOLB   C1A34397  14.180  17.820   6.300
 1434BOLB   C2A34398  14.360  17.690   6.010
 1434BOLB   C3A34399  14.610  17.550   5.760
 1434BOLB   C4A34400  14.880  17.840   5.580
 1434BOLB   C1B34401  13.830  17.940   5.960
 1434BOLB   C2B34402  13.660  18.000   5.530
 1434BOLB   C3B34403  13.430  18.090   5.180
 1434BOLB   C4B34404  13.030  17.950   5.010
 1434BOLB   NC234405  15.420  19.040   3.250
 1434BOLB   PO234406  15.670  18.560   3.190
 1434BOLB   GL334407  15.490  18.600   3.680
 1434BOLB   GL434408  15.580  18.860   3.780
 1434BOLB   C1C34409  15.410  18.480   4.110
 1434BOLB   C2C34410  15.220  18.400   4.510
 1434BOLB   C3C34411  15.240  18.120   4.790
 1434BOLB   C4C34412  15.030  18.130   5.250
 1434BOLB   C1D34413  15.380  19.030   4.090
 1434BOLB   C2D34414  15.250  19.080   4.460
 1434BOLB   C3D34415  15.190  19.360   4.880
 1434BOLB   C4D34416  14.800  19.580   4.980
 1435BOLB   NC134417   2.170  22.070  13.400
 1435BOLB   PO134418   2.070  22.460  13.700
 1435BOLB   GL134419   1.660  22.680  13.580
 1435BOLB   GL234420   1.580  22.980  13.600
 1435BOLB   C1A34421   1.170  22.610  13.570
 1435BOLB   C2A34422   0.770  22.810  13.400
 1435BOLB   C3A34423   0.390  22.820  13.350
 1435BOLB   C4A34424  36.340  22.700  13.200
 1435BOLB   C1B34425   1.170  23.160  13.370
 1435BOLB   C2B34426   0.770  23.370  13.240
 1435BOLB   C3B34427   0.440  23.610  13.420
 1435BOLB   C4B34428   0.440  24.010  13.680
 1435BOLB   NC234429  34.060  22.570  12.990
 1435BOLB   PO234430  34.050  22.290  13.430
 1435BOLB   GL334431  34.480  22.250  13.360
 1435BOLB   GL434432  34.480  22.320  13.100
 1435BOLB   C1C34433  34.900  22.070  13.350
 1435BOLB   C2C34434  35.350  22.010  13.330
 1435BOLB   C3C34435  35.640  22.310  13.210
 1435BOLB   C4C34436  35.970  22.490  13.310
 1435BOLB   C1D34437  34.880  22.530  13.080
 1435BOLB   C2D34438  34.910  22.880  12.820
 1435BOLB   C3D34439  35.100  22.950  12.450
 1435BOLB   C4D34440  35.590  22.990  12.370
 1436BOLB   NC134441  14.450  11.080  15.330
 1436BOLB   PO134442  14.300  11.100  15.710
 1436BOLB   GL134443  14.380  10.640  15.830
 1436BOLB   GL234444  14.340  10.330  16.010
 1436BOLB   C1A34445  14.810  10.490  16.030
 1436BOLB   C2A34446  15.110  10.410  16.350
 1436BOLB   C3A34447  15.410  10.170  16.370
 1436BOLB   C4A34448  15.640   9.800  16.290
 1436BOLB   C1B34449  14.350  10.190  16.500
 1436BOLB   C2B34450  14.340   9.910  16.840
 1436BOLB   C3B34451  14.350   9.470  16.940
 1436BOLB   C4B34452  14.560   9.090  17.000
 1436BOLB   NC234453  16.590   7.500  16.350
 1436BOLB   PO234454  16.920   7.830  16.470
 1436BOLB   GL334455  16.590   7.980  16.120
 1436BOLB   GL434456  16.690   8.030  15.860
 1436BOLB   C1C34457  16.280   8.250  16.200
 1436BOLB   C2C34458  16.160   8.690  16.300
 1436BOLB   C3C34459  16.180   9.070  16.230
 1436BOLB   C4C34460  15.930   9.480  16.180
 1436BOLB   C1D34461  16.480   8.370  15.750
 1436BOLB   C2D34462  16.370   8.710  15.680
 1436BOLB   C3D34463  16.100   9.070  15.720
 1436BOLB   C4D34464  15.910   9.610  15.690
 1437BOLB   NC134465  16.320  13.240  11.280
 1437BOLB   PO134466  16.520  13.030  11.550
 1437BOLB   GL134467  16.940  12.760  11.300
 1437BOLB   GL234468  17.260  12.690  11.490
 1437BOLB   C1A34469  16.960  12.390  11.160
 1437BOLB   C2A34470  16.820  11.970  10.890
 1437BOLB   C3A34471  17.050  11.650  10.760
 1437BOLB   C4A34472  17.270  11.300  10.510
 1437BOLB   C1B34473  17.430  12.260  11.310
 1437BOLB   C2B34474  17.760  12.060  11.070
 1437BOLB   C3B34475  18.190  12.060  11.090
 1437BOLB   C4B34476  18.560  12.070  11.460
 1437BOLB   NC234477  18.390  10.250   8.490
 1437BOLB   PO234478  17.880  10.190   8.540
 1437BOLB   GL334479  17.850  10.520   8.800
 1437BOLB   GL434480  18.040  10.760   8.770
 1437BOLB   C1C34481  17.630  10.790   9.090
 1437BOLB   C2C34482  17.460  11.120   9.460
 1437BOLB   C3C34483  17.410  11.460   9.740
 1437BOLB   C4C34484  17.430  11.540  10.230
 1437BOLB   C1D34485  18.110  10.860   9.170
 1437BOLB   C2D34486  17.970  11.160   9.360
 1437BOLB   C3D34487  17.840  11.280   9.820
 1437BOLB   C4D34488  17.660  11.050  10.210
 1438BOLB   NC134489  13.960  11.330  15.370
 1438BOLB   PO134490  13.950  10.910  15.240
 1438BOLB   GL134491  14.270  10.590  15.330
 1438BOLB   GL234492  14.100  10.360  15.320
 1438BOLB   C1A34493  14.380  10.250  14.960
 1438BOLB   C2A34494  14.550   9.810  14.910
 1438BOLB   C3A34495  14.650   9.310  15.020
 1438BOLB   C4A34496  14.390   9.030  15.080
 1438BOLB   C1B34497  14.040  10.010  15.390
 1438BOLB   C2B34498  14.020   9.610  15.090
 1438BOLB   C3B34499  14.170   9.390  14.770
 1438BOLB   C4B34500  14.020   9.300  14.380
 1438BOLB   NC234501  14.430   6.900  13.680
 1438BOLB   PO234502  14.020   7.020  13.720
 1438BOLB   GL334503  14.190   7.290  14.020
 1438BOLB   GL434504  13.980   7.530  14.040
 1438BOLB   C1C34505  14.370   7.570  14.310
 1438BOLB   C2C34506  14.440   7.920  14.600
 1438BOLB   C3C34507  14.350   8.270  14.810
 1438BOLB   C4C34508  14.470   8.600  15.120
 1438BOLB   C1D34509  13.980   7.940  14.190
 1438BOLB   C2D34510  13.610   8.210  14.270
 1438BOLB   C3D34511  13.380   8.420  14.550
 1438BOLB   C4D34512  13.110   8.780  14.630
 1439BOLB   NC134513   8.200  11.100  13.950
 1439BOLB   PO134514   7.990  10.800  14.060
 1439BOLB   GL134515   7.690  10.540  14.070
 1439BOLB   GL234516   7.700  10.250  14.080
 1439BOLB   C1A34517   7.340  10.490  14.310
 1439BOLB   C2A34518   7.140  10.240  14.050
 1439BOLB   C3A34519   6.950   9.880  14.090
 1439BOLB   C4A34520   6.520   9.830  14.270
 1439BOLB   C1B34521   7.500  10.100  13.770
 1439BOLB   C2B34522   7.600   9.840  13.400
 1439BOLB   C3B34523   7.600   9.530  13.050
 1439BOLB   C4B34524   7.340   9.160  13.100
 1439BOLB   NC234525   5.910   7.430  14.690
 1439BOLB   PO234526   6.210   7.650  14.900
 1439BOLB   GL334527   6.280   8.060  14.800
 1439BOLB   GL434528   6.640   8.070  14.940
 1439BOLB   C1C34529   6.360   8.530  14.950
 1439BOLB   C2C34530   6.210   8.880  14.930
 1439BOLB   C3C34531   6.260   9.150  14.640
 1439BOLB   C4C34532   6.270   9.510  14.430
 1439BOLB   C1D34533   6.900   8.440  15.000
 1439BOLB   C2D34534   7.130   8.800  15.160
 1439BOLB   C3D34535   7.320   8.920  15.470
 1439BOLB   C4D34536   7.530   8.980  15.910
 1440BOLB   NC134537  12.270  18.260   6.430
 1440BOLB   PO134538  12.530  17.900   6.390
 1440BOLB   GL134539  12.520  17.760   5.990
 1440BOLB   GL234540  12.430  17.460   6.120
 1440BOLB   C1A34541  12.590  17.930   5.520
 1440BOLB   C2A34542  12.560  17.840   5.100
 1440BOLB   C3A34543  12.710  18.000   4.680
 1440BOLB   C4A34544  12.800  18.430   4.620
 1440BOLB   C1B34545  12.610  17.350   5.620
 1440BOLB   C2B34546  12.550  17.210   5.170
 1440BOLB   C3B34547  12.400  16.990   4.820
 1440BOLB   C4B34548  11.970  16.900   4.600
 1440BOLB   NC234549  12.810  18.480   2.660
 1440BOLB   PO234550  13.010  18.740   2.440
 1440BOLB   GL334551  12.880  19.040   2.880
 1440BOLB   GL434552  12.750  18.870   3.020
 1440BOLB   C1C34553  13.050  19.200   3.260
 1440BOLB   C2C34554  12.890  19.100   3.640
 1440BOLB   C3C34555  12.900  18.860   3.890
 1440BOLB   C4C34556  12.870  18.840   4.360
 1440BOLB   C1D34557  12.510  19.100   3.320
 1440BOLB   C2D34558  12.250  19.300   3.580
 1440BOLB   C3D34559  12.210  19.380   4.030
 1440BOLB   C4D34560  11.950  19.110   4.360
 1441BOLB   NC134561   1.360  20.360  15.650
 1441BOLB   PO134562   1.490  20.270  15.970
 1441BOLB   GL134563   1.080  20.200  16.100
 1441BOLB   GL234564   1.000  20.490  16.040
 1441BOLB   C1A34565   0.690  20.000  16.220
 1441BOLB   C2A34566   0.390  19.900  16.000
 1441BOLB   C3A34567  36.300  19.910  15.870
 1441BOLB   C4A34568  36.190  19.560  15.910
 1441BOLB   C1B34569   0.630  20.500  16.140
 1441BOLB   C2B34570   0.200  20.370  16.070
 1441BOLB   C3B34571   0.010  20.190  16.350
 1441BOLB   C4B34572  35.970  19.840  16.340
 1441BOLB   NC234573  34.010  20.260  15.250
 1441BOLB   PO234574  33.930  20.400  15.680
 1441BOLB   GL334575  34.250  20.310  15.890
 1441BOLB   GL434576  34.340  20.290  16.140
 1441BOLB   C1C34577  34.760  20.160  15.870
 1441BOLB   C2C34578  35.050  19.810  15.850
 1441BOLB   C3C34579  35.390  19.410  15.720
 1441BOLB   C4C34580  35.860  19.330  15.630
 1441BOLB   C1D34581  34.590  20.020  16.300
 1441BOLB   C2D34582  34.980  19.980  16.310
 1441BOLB   C3D34583  35.450  19.900  16.380
 1441BOLB   C4D34584  35.720  20.280  16.600
 1442BOLB   NC134585   9.820  23.370   9.370
 1442BOLB   PO134586   9.620  23.250   8.970
 1442BOLB   GL134587   9.640  23.560   8.530
 1442BOLB   GL234588   9.510  23.960   8.620
 1442BOLB   C1A34589   9.570  23.700   8.080
 1442BOLB   C2A34590   9.340  23.810   7.730
 1442BOLB   C3A34591   9.230  24.120   7.430
 1442BOLB   C4A34592   9.420  24.310   6.970
 1442BOLB   C1B34593   9.610  24.400   8.520
 1442BOLB   C2B34594   9.480  24.710   8.310
 1442BOLB   C3B34595   9.640  24.880   7.980
 1442BOLB   C4B34596   9.450  25.100   7.680
 1442BOLB   NC234597   8.160  25.650   5.200
 1442BOLB   PO234598   8.510  25.520   5.050
 1442BOLB   GL334599   8.690  25.450   5.390
 1442BOLB   GL434600   8.350  25.310   5.650
 1442BOLB   C1C34601   9.020  25.140   5.540
 1442BOLB   C2C34602   9.260  24.810   5.790
 1442BOLB   C3C34603   9.340  24.540   6.190
 1442BOLB   C4C34604   9.530  24.590   6.640
 1442BOLB   C1D34605   8.690  25.500   5.960
 1442BOLB   C2D34606   8.810  25.640   6.400
 1442BOLB   C3D34607   9.120  25.490   6.600
 1442BOLB   C4D34608   9.550  25.770   6.750
 1443BOLB   NC134609  17.330  14.620   9.780
 1443BOLB   PO134610  17.430  14.970   9.530
 1443BOLB   GL134611  17.760  14.610   9.420
 1443BOLB   GL234612  18.050  14.740   9.370
 1443BOLB   C1A34613  17.890  14.240   9.290
 1443BOLB   C2A34614  17.980  13.930   9.010
 1443BOLB   C3A34615  18.300  13.820   8.710
 1443BOLB   C4A34616  18.490  13.530   8.440
 1443BOLB   C1B34617  18.290  14.850   8.960
 1443BOLB   C2B34618  18.640  14.810   8.830
 1443BOLB   C3B34619  18.950  14.590   8.860
 1443BOLB   C4B34620  19.350  14.560   9.060
 1443BOLB   NC234621  21.180  13.660   8.240
 1443BOLB   PO234622  21.010  13.390   8.490
 1443BOLB   GL334623  20.610  13.330   8.610
 1443BOLB   GL434624  20.600  13.640   8.600
 1443BOLB   C1C34625  20.140  13.430   8.610
 1443BOLB   C2C34626  19.760  13.250   8.360
 1443BOLB   C3C34627  19.280  13.190   8.250
 1443BOLB   C4C34628  18.940  13.420   8.360
 1443BOLB   C1D34629  20.370  13.590   9.040
 1443BOLB   C2D34630  20.250  13.430   9.500
 1443BOLB   C3D34631  20.230  13.470   9.890
 1443BOLB   C4D34632  20.010  13.470  10.340
 1444BOLB   NC134633  10.390  13.590   8.790
 1444BOLB   PO134634  10.200  13.170   8.990
 1444BOLB   GL134635  10.160  12.750   8.710
 1444BOLB   GL234636  10.230  12.850   8.440
 1444BOLB   C1A34637  10.400  12.430   8.610
 1444BOLB   C2A34638  10.400  12.230   8.100
 1444BOLB   C3A34639  10.100  12.210   7.640
 1444BOLB   C4A34640  10.060  11.980   7.290
 1444BOLB   C1B34641   9.870  12.930   8.270
 1444BOLB   C2B34642   9.770  12.730   7.930
 1444BOLB   C3B34643   9.830  12.610   7.540
 1444BOLB   C4B34644  10.030  12.440   7.040
 1444BOLB   NC234645   9.680  11.430   4.770
 1444BOLB   PO234646   9.840  11.060   4.920
 1444BOLB   GL334647   9.690  11.430   5.270
 1444BOLB   GL434648   9.810  11.690   5.270
 1444BOLB   C1C34649   9.540  11.580   5.670
 1444BOLB   C2C34650   9.630  11.720   6.020
 1444BOLB   C3C34651   9.760  11.730   6.480
 1444BOLB   C4C34652   9.850  11.910   6.950
 1444BOLB   C1D34653   9.700  12.180   5.420
 1444BOLB   C2D34654   9.590  12.430   5.780
 1444BOLB   C3D34655   9.480  12.630   6.000
 1444BOLB   C4D34656   9.310  12.790   6.420
 1445BOLB   NC134657   3.860  21.860  10.150
 1445BOLB   PO134658   3.640  21.570   9.930
 1445BOLB   GL134659   3.640  21.680   9.450
 1445BOLB   GL234660   3.890  21.880   9.210
 1445BOLB   C1A34661   3.280  21.610   9.120
 1445BOLB   C2A34662   2.860  21.410   8.920
 1445BOLB   C3A34663   2.400  21.320   9.090
 1445BOLB   C4A34664   2.000  21.570   9.210
 1445BOLB   C1B34665   3.700  21.860   8.840
 1445BOLB   C2B34666   3.330  21.890   8.570
 1445BOLB   C3B34667   3.140  22.130   8.130
 1445BOLB   C4B34668   3.080  22.440   7.930
 1445BOLB   NC234669   0.180  20.780   7.560
 1445BOLB   PO234670   0.400  21.190   7.520
 1445BOLB   GL334671   0.570  21.130   7.950
 1445BOLB   GL434672   0.500  20.890   8.050
 1445BOLB   C1C34673   0.870  21.210   8.200
 1445BOLB   C2C34674   1.000  21.350   8.590
 1445BOLB   C3C34675   1.140  21.580   8.820
 1445BOLB   C4C34676   1.510  21.730   9.060
 1445BOLB   C1D34677   0.750  20.770   8.360
 1445BOLB   C2D34678   0.950  20.480   8.660
 1445BOLB   C3D34679   1.280  20.190   8.590
 1445BOLB   C4D34680   1.580  19.910   8.370
 1446BOLB   NC134681  17.160  14.420  11.670
 1446BOLB   PO134682  17.440  14.130  11.910
 1446BOLB   GL134683  17.870  13.810  11.860
 1446BOLB   GL234684  18.030  13.990  11.720
 1446BOLB   C1A34685  18.230  13.540  11.870
 1446BOLB   C2A34686  18.610  13.430  11.630
 1446BOLB   C3A34687  18.910  13.350  11.210
 1446BOLB   C4A34688  19.230  13.190  10.890
 1446BOLB   C1B34689  18.370  13.860  11.540
 1446BOLB   C2B34690  18.750  13.990  11.300
 1446BOLB   C3B34691  18.960  13.810  11.070
 1446BOLB   C4B34692  19.020  13.540  10.720
 1446BOLB   NC234693  20.630  12.130   9.490
 1446BOLB   PO234694  21.070  12.020   9.830
 1446BOLB   GL334695  20.790  12.180  10.030
 1446BOLB   GL434696  20.850  12.230  10.360
 1446BOLB   C1C34697  20.500  12.500  10.100
 1446BOLB   C2C34698  20.230  12.690  10.630
 1446BOLB   C3C34699  20.070  13.090  10.660
 1446BOLB   C4C34700  19.640  13.270  10.800
 1446BOLB   C1D34701  20.740  12.670  10.470
 1446BOLB   C2D34702  20.650  13.070  10.740
 1446BOLB   C3D34703  20.550  13.500  10.630
 1446BOLB   C4D34704  20.210  13.990  10.630
 1447BOLB   NC134705   5.160  23.090   9.950
 1447BOLB   PO134706   5.280  23.080   9.570
 1447BOLB   GL134707   4.900  23.350   9.500
 1447BOLB   GL234708   4.860  23.550   9.710
 1447BOLB   C1A34709   4.450  23.360   9.490
 1447BOLB   C2A34710   4.040  23.410   9.260
 1447BOLB   C3A34711   3.890  23.830   8.980
 1447BOLB   C4A34712   3.550  23.980   8.700
 1447BOLB   C1B34713   4.720  23.780   9.420
 1447BOLB   C2B34714   4.480  24.130   9.220
 1447BOLB   C3B34715   4.280  24.150   8.880
 1447BOLB   C4B34716   4.050  23.790   8.510
 1447BOLB   NC234717   3.030  23.820   6.240
 1447BOLB   PO234718   2.760  23.560   6.430
 1447BOLB   GL334719   2.670  23.500   6.860
 1447BOLB   GL434720   2.880  23.230   6.990
 1447BOLB   C1C34721   2.820  23.690   7.240
 1447BOLB   C2C34722   3.010  23.970   7.620
 1447BOLB   C3C34723   3.130  24.000   8.020
 1447BOLB   C4C34724   3.200  24.090   8.400
 1447BOLB   C1D34725   3.230  23.360   7.030
 1447BOLB   C2D34726   3.640  23.460   6.890
 1447BOLB   C3D34727   3.960  23.480   7.110
 1447BOLB   C4D34728   4.320  23.450   7.390
 1448BOLB   NC134729  16.500  23.790  11.650
 1448BOLB   PO134730  16.880  24.130  11.830
 1448BOLB   GL134731  17.040  24.470  11.760
 1448BOLB   GL234732  17.190  24.490  12.050
 1448BOLB   C1A34733  17.130  24.920  11.710
 1448BOLB   C2A34734  17.520  25.270  11.750
 1448BOLB   C3A34735  17.970  25.470  11.760
 1448BOLB   C4A34736  18.230  25.740  11.660
 1448BOLB   C1B34737  17.540  24.530  11.790
 1448BOLB   C2B34738  17.770  24.830  11.600
 1448BOLB   C3B34739  17.880  25.180  11.340
 1448BOLB   C4B34740  18.130  25.470  11.270
 1448BOLB   NC234741  19.950  27.480  10.890
 1448BOLB   PO234742  20.160  27.150  10.850
 1448BOLB   GL334743  19.660  26.930  10.890
 1448BOLB   GL434744  19.580  26.790  10.590
 1448BOLB   C1C34745  19.270  26.810  11.060
 1448BOLB   C2C34746  19.010  26.550  11.280
 1448BOLB   C3C34747  18.590  26.430  11.400
 1448BOLB   C4C34748  18.280  26.120  11.570
 1448BOLB   C1D34749  19.660  26.350  10.510
 1448BOLB   C2D34750  19.420  26.060  10.560
 1448BOLB   C3D34751  19.230  25.680  10.520
 1448BOLB   C4D34752  19.330  25.380  10.620
 1449BOLB   NC134753   3.570  25.500  17.750
 1449BOLB   PO134754   3.320  25.380  17.370
 1449BOLB   GL134755   3.230  25.820  17.600
 1449BOLB   GL234756   3.350  25.820  18.020
 1449BOLB   C1A34757   3.030  26.260  17.730
 1449BOLB   C2A34758   2.680  26.490  17.970
 1449BOLB   C3A34759   2.270  26.510  17.860
 1449BOLB   C4A34760   1.910  26.740  17.630
 1449BOLB   C1B34761   3.060  26.050  18.240
 1449BOLB   C2B34762   2.700  26.280  18.460
 1449BOLB   C3B34763   2.520  26.230  18.700
 1449BOLB   C4B34764   2.280  26.220  19.070
 1449BOLB   NC234765  36.010  27.630  16.280
 1449BOLB   PO234766  36.270  27.860  16.680
 1449BOLB   GL334767   0.220  27.590  16.890
 1449BOLB   GL434768   0.530  27.460  16.790
 1449BOLB   C1C34769   0.230  27.130  17.150
 1449BOLB   C2C34770   0.550  26.870  17.430
 1449BOLB   C3C34771   1.010  26.860  17.420
 1449BOLB   C4C34772   1.460  26.810  17.580
 1449BOLB   C1D34773   0.590  27.110  16.750
 1449BOLB   C2D34774   0.810  26.750  16.920
 1449BOLB   C3D34775   1.040  26.470  16.660
 1449BOLB   C4D34776   1.470  26.500  16.570
 1450BOLB   NC134777  10.570  26.520  19.460
 1450BOLB   PO134778  10.780  26.870  19.540
 1450BOLB   GL134779  11.120  27.050  19.800
 1450BOLB   GL234780  11.390  27.160  19.780
 1450BOLB   C1A34781  11.160  27.280  20.220
 1450BOLB   C2A34782  11.480  27.520  20.410
 1450BOLB   C3A34783  11.510  27.980  20.360
 1450BOLB   C4A34784  11.550  28.260  20.070
 1450BOLB   C1B34785  11.390  27.620  19.900
 1450BOLB   C2B34786  11.150  28.030  19.860
 1450BOLB   C3B34787  10.980  28.370  19.570
 1450BOLB   C4B34788  10.610  28.570  19.320
 1450BOLB   NC234789  12.350  30.040  21.080
 1450BOLB   PO234790  11.990  30.230  20.890
 1450BOLB   GL334791  11.810  29.880  20.890
 1450BOLB   GL434792  11.480  29.960  21.040
 1450BOLB   C1C34793  11.960  29.630  20.560
 1450BOLB   C2C34794  11.810  29.290  20.300
 1450BOLB   C3C34795  11.840  28.890  20.250
 1450BOLB   C4C34796  11.870  28.470  20.110
 1450BOLB   C1D34797  11.430  29.520  21.010
 1450BOLB   C2D34798  11.450  29.270  20.690
 1450BOLB   C3D34799  11.410  28.860  20.540
 1450BOLB   C4D34800  11.490  28.500  20.520
 1451BOLB   NC134801   9.860  18.760   7.150
 1451BOLB   PO134802   9.670  18.770   6.790
 1451BOLB   GL134803   9.400  18.610   6.560
 1451BOLB   GL234804   9.110  18.890   6.630
 1451BOLB   C1A34805   9.250  18.600   6.110
 1451BOLB   C2A34806   9.190  18.510   5.630
 1451BOLB   C3A34807   9.180  18.390   5.200
 1451BOLB   C4A34808   8.960  18.370   4.910
 1451BOLB   C1B34809   9.060  19.030   6.200
 1451BOLB   C2B34810   8.860  19.300   5.890
 1451BOLB   C3B34811   8.930  19.390   5.480
 1451BOLB   C4B34812   9.150  19.330   5.070
 1451BOLB   NC234813   8.750  19.060   2.560
 1451BOLB   PO234814   9.040  18.840   2.690
 1451BOLB   GL334815   9.040  18.810   3.040
 1451BOLB   GL434816   9.420  18.840   2.930
 1451BOLB   C1C34817   8.950  18.570   3.430
 1451BOLB   C2C34818   9.010  18.190   3.670
 1451BOLB   C3C34819   8.930  18.020   4.130
 1451BOLB   C4C34820   8.800  18.200   4.560
 1451BOLB   C1D34821   9.550  19.120   3.140
 1451BOLB   C2D34822   9.190  19.080   3.450
 1451BOLB   C3D34823   9.140  18.770   3.820
 1451BOLB   C4D34824   9.140  18.440   4.060
 1452BOLB   NC134825   7.940  24.590  21.570
 1452BOLB   PO134826   8.320  24.690  21.340
 1452BOLB   GL134827   8.530  24.920  21.660
 1452BOLB   GL234828   8.490  25.340  21.570
 1452BOLB   C1A34829   8.380  25.090  22.050
 1452BOLB   C2A34830   8.160  25.410  22.270
 1452BOLB   C3A34831   7.790  25.460  22.550
 1452BOLB   C4A34832   7.870  25.530  23.040
 1452BOLB   C1B34833   8.550  25.570  22.020
 1452BOLB   C2B34834   8.530  25.940  22.310
 1452BOLB   C3B34835   8.550  26.410  22.200
 1452BOLB   C4B34836   8.530  26.760  22.260
 1452BOLB   NC234837   7.400  25.800  25.370
 1452BOLB   PO234838   7.430  25.980  24.980
 1452BOLB   GL334839   7.380  25.570  24.850
 1452BOLB   GL434840   7.400  25.350  25.130
 1452BOLB   C1C34841   7.610  25.320  24.550
 1452BOLB   C2C34842   7.750  25.130  24.160
 1452BOLB   C3C34843   7.660  25.360  23.850
 1452BOLB   C4C34844   7.690  25.660  23.460
 1452BOLB   C1D34845   7.350  24.960  24.860
 1452BOLB   C2D34846   7.140  24.890  24.510
 1452BOLB   C3D34847   7.290  24.850  24.070
 1452BOLB   C4D34848   7.510  24.910  23.640
 1453BOLB   NC134849   7.260  19.110   7.760
 1453BOLB   PO134850   7.610  19.310   7.550
 1453BOLB   GL134851   7.360  19.270   7.230
 1453BOLB   GL234852   6.980  19.260   7.250
 1453BOLB   C1A34853   7.250  19.450   6.790
 1453BOLB   C2A34854   7.270  19.870   6.510
 1453BOLB   C3A34855   6.980  20.190   6.420
 1453BOLB   C4A34856   6.820  20.570   6.100
 1453BOLB   C1B34857   6.860  19.150   6.750
 1453BOLB   C2B34858   6.720  19.040   6.350
 1453BOLB   C3B34859   6.500  18.980   5.980
 1453BOLB   C4B34860   6.280  18.570   5.770
 1453BOLB   NC234861   5.560  21.610   4.160
 1453BOLB   PO234862   5.600  21.390   4.510
 1453BOLB   GL334863   5.880  21.180   4.660
 1453BOLB   GL434864   6.160  21.450   4.690
 1453BOLB   C1C34865   5.890  20.880   4.950
 1453BOLB   C2C34866   5.970  20.880   5.470
 1453BOLB   C3C34867   6.130  20.710   5.770
 1453BOLB   C4C34868   6.590  20.580   5.770
 1453BOLB   C1D34869   6.240  21.290   5.050
 1453BOLB   C2D34870   6.420  21.190   5.500
 1453BOLB   C3D34871   6.710  21.180   5.810
 1453BOLB   C4D34872   7.140  21.200   6.000
 1454BOLB   NC134873  14.470  22.960   8.840
 1454BOLB   PO134874  14.410  23.280   8.370
 1454BOLB   GL134875  14.840  23.460   8.330
 1454BOLB   GL234876  14.720  23.600   8.020
 1454BOLB   C1A34877  15.180  23.850   8.090
 1454BOLB   C2A34878  15.340  24.050   7.760
 1454BOLB   C3A34879  15.700  23.860   7.500
 1454BOLB   C4A34880  15.860  24.240   7.160
 1454BOLB   C1B34881  14.850  24.030   7.710
 1454BOLB   C2B34882  14.670  24.170   7.350
 1454BOLB   C3B34883  14.650  24.520   7.210
 1454BOLB   C4B34884  14.950  24.910   7.110
 1454BOLB   NC234885  16.160  25.680   5.450
 1454BOLB   PO234886  16.220  25.210   5.200
 1454BOLB   GL334887  16.140  25.250   5.670
 1454BOLB   GL434888  16.360  25.110   5.810
 1454BOLB   C1C34889  15.790  25.420   5.980
 1454BOLB   C2C34890  15.540  25.130   6.270
 1454BOLB   C3C34891  15.690  24.830   6.510
 1454BOLB   C4C34892  15.890  24.620   6.870
 1454BOLB   C1D34893  16.510  25.080   6.180
 1454BOLB   C2D34894  16.480  24.880   6.560
 1454BOLB   C3D34895  16.420  24.690   6.900
 1454BOLB   C4D34896  16.260  24.580   7.220
 1455BOLB   NC134897  11.650  21.200   7.030
 1455BOLB   PO134898  11.140  21.180   6.960
 1455BOLB   GL134899  11.180  21.380   6.630
 1455BOLB   GL234900  11.470  21.430   6.620
 1455BOLB   C1A34901  11.110  21.560   6.180
 1455BOLB   C2A34902  10.960  21.830   5.920
 1455BOLB   C3A34903  10.790  22.180   5.770
 1455BOLB   C4A34904  10.500  22.230   5.420
 1455BOLB   C1B34905  11.680  21.510   6.230
 1455BOLB   C2B34906  11.500  21.780   5.910
 1455BOLB   C3B34907  11.440  21.970   5.470
 1455BOLB   C4B34908  11.210  22.250   5.250
 1455BOLB   NC234909   9.430  22.610   3.030
 1455BOLB   PO234910   9.400  22.760   3.420
 1455BOLB   GL334911   9.260  22.760   3.850
 1455BOLB   GL434912   8.930  22.850   3.810
 1455BOLB   C1C34913   9.500  22.800   4.270
 1455BOLB   C2C34914   9.800  22.570   4.600
 1455BOLB   C3C34915   9.970  22.240   4.780
 1455BOLB   C4C34916  10.210  22.100   5.120
 1455BOLB   C1D34917   8.890  22.680   4.250
 1455BOLB   C2D34918   8.680  22.680   4.610
 1455BOLB   C3D34919   8.320  22.760   4.550
 1455BOLB   C4D34920   8.020  22.650   4.860
 1456BOLB   NC134921  18.930  16.980  12.760
 1456BOLB   PO134922  19.230  16.770  12.560
 1456BOLB   GL134923  19.580  16.650  12.320
 1456BOLB   GL234924  19.620  16.380  12.310
 1456BOLB   C1A34925  20.050  16.530  12.120
 1456BOLB   C2A34926  20.430  16.380  12.050
 1456BOLB   C3A34927  20.710  15.960  12.130
 1456BOLB   C4A34928  21.160  15.730  12.260
 1456BOLB   C1B34929  19.920  16.320  12.560
 1456BOLB   C2B34930  20.370  16.140  12.540
 1456BOLB   C3B34931  20.710  15.710  12.660
 1456BOLB   C4B34932  20.890  15.340  12.390
 1456BOLB   NC234933  22.460  13.920  12.140
 1456BOLB   PO234934  22.180  13.690  12.360
 1456BOLB   GL334935  22.060  14.120  12.430
 1456BOLB   GL434936  21.990  14.140  12.090
 1456BOLB   C1C34937  21.710  14.190  12.470
 1456BOLB   C2C34938  21.500  14.510  12.590
 1456BOLB   C3C34939  21.270  14.810  12.390
 1456BOLB   C4C34940  21.350  15.260  12.280
 1456BOLB   C1D34941  21.650  14.290  11.960
 1456BOLB   C2D34942  21.500  14.550  12.040
 1456BOLB   C3D34943  21.480  14.980  11.910
 1456BOLB   C4D34944  21.620  15.370  11.890
 1457BOLB   NC134945  16.800  24.830  16.770
 1457BOLB   PO134946  17.020  25.220  16.710
 1457BOLB   GL134947  17.180  25.640  16.770
 1457BOLB   GL234948  17.550  25.730  16.930
 1457BOLB   C1A34949  16.910  25.990  16.970
 1457BOLB   C2A34950  16.910  26.390  17.240
 1457BOLB   C3A34951  17.210  26.760  17.400
 1457BOLB   C4A34952  17.660  26.870  17.360
 1457BOLB   C1B34953  17.750  25.990  17.160
 1457BOLB   C2B34954  18.060  26.020  17.480
 1457BOLB   C3B34955  18.350  26.340  17.590
 1457BOLB   C4B34956  18.460  26.790  17.710
 1457BOLB   NC234957  19.660  28.340  18.090
 1457BOLB   PO234958  19.260  28.500  17.970
 1457BOLB   GL334959  19.100  28.050  18.070
 1457BOLB   GL434960  19.050  28.000  18.350
 1457BOLB   C1C34961  19.060  27.630  17.960
 1457BOLB   C2C34962  18.740  27.230  17.800
 1457BOLB   C3C34963  18.260  27.260  17.720
 1457BOLB   C4C34964  17.930  26.990  17.630
 1457BOLB   C1D34965  18.840  27.740  18.600
 1457BOLB   C2D34966  18.780  27.760  18.930
 1457BOLB   C3D34967  18.500  27.830  19.300
 1457BOLB   C4D34968  18.400  27.560  19.750
 1458BOLB   NC134969  11.630  23.890   8.530
 1458BOLB   PO134970  11.780  23.940   8.230
 1458BOLB   GL134971  11.610  24.090   7.980
 1458BOLB   GL234972  11.640  23.840   7.770
 1458BOLB   C1A34973  11.610  24.440   7.770
 1458BOLB   C2A34974  11.470  24.620   7.460
 1458BOLB   C3A34975  11.410  24.950   7.140
 1458BOLB   C4A34976  11.350  25.360   7.050
 1458BOLB   C1B34977  11.340  24.110   7.560
 1458BOLB   C2B34978  11.090  24.290   7.350
 1458BOLB   C3B34979  10.890  24.290   6.960
 1458BOLB   C4B34980  10.780  23.940   6.810
 1458BOLB   NC234981  12.170  26.460   5.290
 1458BOLB   PO234982  12.410  26.140   5.020
 1458BOLB   GL334983  12.220  25.890   5.310
 1458BOLB   GL434984  12.360  25.540   5.130
 1458BOLB   C1C34985  12.040  25.930   5.760
 1458BOLB   C2C34986  11.710  25.940   5.930
 1458BOLB   C3C34987  11.470  25.800   6.390
 1458BOLB   C4C34988  11.210  25.690   6.670
 1458BOLB   C1D34989  12.230  25.500   5.580
 1458BOLB   C2D34990  11.980  25.440   5.870
 1458BOLB   C3D34991  11.680  25.350   6.230
 1458BOLB   C4D34992  11.780  25.390   6.660
 1459BOLB   NC134993  19.030  17.000  11.220
 1459BOLB   PO134994  18.810  16.640  11.240
 1459BOLB   GL134995  19.000  16.460  10.890
 1459BOLB   GL234996  19.170  16.730  10.800
 1459BOLB   C1A34997  19.170  16.320  10.470
 1459BOLB   C2A34998  19.650  16.210  10.300
 1459BOLB   C3A34999  20.040  15.950  10.210
 1459BOLB   C4A35000  20.320  15.660  10.180
 1459BOLB   C1B35001  19.490  16.540  10.760
 1459BOLB   C2B35002  19.870  16.790  10.730
 1459BOLB   C3B35003  20.040  17.140  10.550
 1459BOLB   C4B35004  20.230  17.430  10.340
 1459BOLB   NC235005  21.990  14.680   9.170
 1459BOLB   PO235006  22.170  15.090   9.170
 1459BOLB   GL335007  21.860  15.070   9.460
 1459BOLB   GL435008  21.550  14.930   9.150
 1459BOLB   C1C35009  21.610  14.950   9.720
 1459BOLB   C2C35010  21.380  15.170  10.130
 1459BOLB   C3C35011  21.000  15.250  10.160
 1459BOLB   C4C35012  20.580  15.460  10.190
 1459BOLB   C1D35013  21.110  15.030   9.300
 1459BOLB   C2D35014  20.770  15.240   9.350
 1459BOLB   C3D35015  20.420  15.320   9.430
 1459BOLB   C4D35016  20.090  15.220   9.410
 1460BOLB   NC135017   8.950  20.740   8.160
 1460BOLB   PO135018   8.780  20.990   7.750
 1460BOLB   GL135019   8.800  20.970   7.300
 1460BOLB   GL235020   8.860  21.230   7.120
 1460BOLB   C1A35021   8.840  20.850   6.830
 1460BOLB   C2A35022   8.630  21.030   6.420
 1460BOLB   C3A35023   8.430  21.110   6.030
 1460BOLB   C4A35024   8.390  21.510   5.730
 1460BOLB   C1B35025   8.750  21.410   6.740
 1460BOLB   C2B35026   8.720  21.600   6.340
 1460BOLB   C3B35027   8.920  21.680   5.880
 1460BOLB   C4B35028   8.710  21.930   5.470
 1460BOLB   NC235029   6.720  22.360   4.240
 1460BOLB   PO235030   7.150  22.470   3.990
 1460BOLB   GL335031   7.320  22.280   4.340
 1460BOLB   GL435032   7.250  22.460   4.630
 1460BOLB   C1C35033   7.680  22.000   4.370
 1460BOLB   C2C35034   7.880  21.730   4.530
 1460BOLB   C3C35035   8.080  21.610   4.910
 1460BOLB   C4C35036   8.250  21.670   5.350
 1460BOLB   C1D35037   7.550  22.420   5.040
 1460BOLB   C2D35038   7.400  22.290   5.460
 1460BOLB   C3D35039   7.590  22.110   5.810
 1460BOLB   C4D35040   7.620  21.860   6.170
 1461BOLB   NC135041   2.200  23.760  16.590
 1461BOLB   PO135042   2.150  23.900  17.020
 1461BOLB   GL135043   1.860  24.060  17.150
 1461BOLB   GL235044   1.840  24.260  17.350
 1461BOLB   C1A35045   1.390  23.980  17.100
 1461BOLB   C2A35046   0.930  24.110  17.250
 1461BOLB   C3A35047   0.670  24.240  17.350
 1461BOLB   C4A35048   0.370  24.580  17.190
 1461BOLB   C1B35049   1.530  24.620  17.580
 1461BOLB   C2B35050   1.280  24.990  17.730
 1461BOLB   C3B35051   1.080  25.340  17.710
 1461BOLB   C4B35052   1.000  25.770  17.930
 1461BOLB   NC235053  35.140  24.860  17.850
 1461BOLB   PO235054  34.870  24.550  17.810
 1461BOLB   GL335055  35.280  24.350  17.730
 1461BOLB   GL435056  35.470  24.560  17.800
 1461BOLB   C1C35057  35.440  24.500  17.290
 1461BOLB   C2C35058  35.700  24.670  17.070
 1461BOLB   C3C35059  36.000  24.870  17.060
 1461BOLB   C4C35060   0.090  24.910  17.020
 1461BOLB   C1D35061  35.830  24.390  17.680
 1461BOLB   C2D35062  36.190  24.560  17.380
 1461BOLB   C3D35063  36.240  24.390  16.930
 1461BOLB   C4D35064  36.340  24.000  16.830
 1462BOLB   NC135065   3.960  19.900   9.240
 1462BOLB   PO135066   4.340  19.640   9.130
 1462BOLB   GL135067   4.080  19.590   8.740
 1462BOLB   GL235068   4.160  19.330   8.580
 1462BOLB   C1A35069   3.990  19.780   8.350
 1462BOLB   C2A35070   3.570  19.860   8.160
 1462BOLB   C3A35071   3.270  19.870   7.930
 1462BOLB   C4A35072   3.060  20.110   7.590
 1462BOLB   C1B35073   3.890  19.310   8.250
 1462BOLB   C2B35074   3.700  19.270   7.850
 1462BOLB   C3B35075   3.660  18.960   7.580
 1462BOLB   C4B35076   3.420  18.700   7.210
 1462BOLB   NC235077   1.300  20.750   5.630
 1462BOLB   PO235078   1.840  20.580   5.670
 1462BOLB   GL335079   2.240  20.600   6.010
 1462BOLB   GL435080   2.570  20.760   5.990
 1462BOLB   C1C35081   2.260  20.420   6.390
 1462BOLB   C2C35082   2.140  20.430   6.840
 1462BOLB   C3C35083   2.390  20.280   7.130
 1462BOLB   C4C35084   2.710  20.280   7.490
 1462BOLB   C1D35085   2.790  20.490   6.320
 1462BOLB   C2D35086   3.070  20.170   6.520
 1462BOLB   C3D35087   3.490  20.070   6.590
 1462BOLB   C4D35088   3.930  20.020   6.670
 1463BOLB   NC135089  12.990  13.690   3.780
 1463BOLB   PO135090  13.180  14.040   3.860
 1463BOLB   GL135091  13.030  14.010   4.210
 1463BOLB   GL235092  12.970  13.720   4.390
 1463BOLB   C1A35093  12.810  14.240   4.520
 1463BOLB   C2A35094  12.660  14.350   4.960
 1463BOLB   C3A35095  12.660  14.450   5.420
 1463BOLB   C4A35096  12.450  14.360   5.810
 1463BOLB   C1B35097  13.050  13.900   4.780
 1463BOLB   C2B35098  12.940  14.040   5.230
 1463BOLB   C3B35099  12.930  14.120   5.650
 1463BOLB   C4B35100  12.940  14.390   6.010
 1463BOLB   NC235101  12.010  11.760   4.760
 1463BOLB   PO235102  11.820  12.180   4.780
 1463BOLB   GL335103  11.790  12.460   5.210
 1463BOLB   GL435104  11.820  12.790   5.090
 1463BOLB   C1C35105  11.600  12.750   5.620
 1463BOLB   C2C35106  11.600  13.180   5.960
 1463BOLB   C3C35107  11.750  13.650   6.080
 1463BOLB   C4C35108  12.040  14.060   6.030
 1463BOLB   C1D35109  12.000  13.070   5.270
 1463BOLB   C2D35110  12.030  13.160   5.710
 1463BOLB   C3D35111  12.100  13.130   6.170
 1463BOLB   C4D35112  12.090  13.150   6.600
 1464BOLB   NC135113  17.590  28.910  10.350
 1464BOLB   PO135114  17.170  29.040  10.370
 1464BOLB   GL135115  17.100  28.870  10.670
 1464BOLB   GL235116  17.280  28.760  10.860
 1464BOLB   C1A35117  16.800  28.550  10.870
 1464BOLB   C2A35118  16.440  28.280  10.960
 1464BOLB   C3A35119  16.230  28.100  10.610
 1464BOLB   C4A35120  15.850  27.950  10.280
 1464BOLB   C1B35121  17.600  28.590  11.000
 1464BOLB   C2B35122  17.810  28.120  10.860
 1464BOLB   C3B35123  17.820  27.680  11.050
 1464BOLB   C4B35124  17.500  27.340  11.140
 1464BOLB   NC235125  15.590  28.940   8.750
 1464BOLB   PO235126  15.980  28.890   8.910
 1464BOLB   GL335127  15.940  28.580   9.260
 1464BOLB   GL435128  16.050  28.370   9.010
 1464BOLB   C1C35129  15.990  28.100   9.400
 1464BOLB   C2C35130  15.610  27.920   9.610
 1464BOLB   C3C35131  15.550  27.560   9.770
 1464BOLB   C4C35132  15.550  27.740  10.250
 1464BOLB   C1D35133  15.980  27.930   8.820
 1464BOLB   C2D35134  15.830  27.470   8.670
 1464BOLB   C3D35135  15.530  27.430   8.390
 1464BOLB   C4D35136  15.440  27.490   7.950
 1465BOLB   NC135137   9.440  22.320   7.940
 1465BOLB   PO135138   9.050  22.200   7.970
 1465BOLB   GL135139   8.980  22.410   7.610
 1465BOLB   GL235140   9.300  22.370   7.460
 1465BOLB   C1A35141   8.670  22.360   7.320
 1465BOLB   C2A35142   8.440  22.200   7.030
 1465BOLB   C3A35143   8.150  22.090   6.730
 1465BOLB   C4A35144   7.990  22.230   6.350
 1465BOLB   C1B35145   9.270  22.640   7.070
 1465BOLB   C2B35146   9.390  22.860   6.620
 1465BOLB   C3B35147   9.730  23.050   6.410
 1465BOLB   C4B35148  10.160  23.270   6.370
 1465BOLB   NC235149   7.290  23.030   4.170
 1465BOLB   PO235150   7.710  23.020   4.200
 1465BOLB   GL335151   7.600  22.940   4.590
 1465BOLB   GL435152   7.230  23.030   4.690
 1465BOLB   C1C35153   7.590  22.970   5.020
 1465BOLB   C2C35154   7.620  22.790   5.430
 1465BOLB   C3C35155   7.820  22.840   5.810
 1465BOLB   C4C35156   7.970  22.530   6.070
 1465BOLB   C1D35157   7.160  22.740   5.040
 1465BOLB   C2D35158   7.180  22.720   5.490
 1465BOLB   C3D35159   7.390  22.560   5.910
 1465BOLB   C4D35160   7.510  22.430   6.230
 1466BOLB   NC135161  19.640  19.300  12.120
 1466BOLB   PO135162  19.520  19.780  12.100
 1466BOLB   GL135163  19.860  20.040  12.060
 1466BOLB   GL235164  19.780  20.190  11.740
 1466BOLB   C1A35165  20.340  20.050  11.840
 1466BOLB   C2A35166  20.800  20.010  11.920
 1466BOLB   C3A35167  21.260  20.000  11.850
 1466BOLB   C4A35168  21.550  19.720  12.060
 1466BOLB   C1B35169  20.170  20.450  11.770
 1466BOLB   C2B35170  20.540  20.590  11.790
 1466BOLB   C3B35171  21.040  20.580  11.910
 1466BOLB   C4B35172  21.450  20.440  11.760
 1466BOLB   NC235173  24.100  18.170  11.500
 1466BOLB   PO235174  23.740  18.340  11.270
 1466BOLB   GL335175  23.280  18.530  11.250
 1466BOLB   GL435176  23.020  18.300  11.350
 1466BOLB   C1C35177  23.020  18.890  11.340
 1466BOLB   C2C35178  22.610  19.240  11.340
 1466BOLB   C3C35179  22.270  19.340  11.630
 1466BOLB   C4C35180  21.990  19.650  11.920
 1466BOLB   C1D35181  22.630  18.260  11.010
 1466BOLB   C2D35182  22.260  18.400  10.930
 1466BOLB   C3D35183  21.860  18.580  11.070
 1466BOLB   C4D35184  21.520  18.810  11.340
 1467BOLB   NC135185  12.990  22.510   8.330
 1467BOLB   PO135186  12.810  22.900   8.030
 1467BOLB   GL135187  12.820  23.110   7.700
 1467BOLB   GL235188  12.500  23.310   7.870
 1467BOLB   C1A35189  12.860  23.290   7.300
 1467BOLB   C2A35190  12.950  23.510   7.010
 1467BOLB   C3A35191  12.950  23.710   6.650
 1467BOLB   C4A35192  13.200  23.840   6.300
 1467BOLB   C1B35193  12.480  23.550   7.530
 1467BOLB   C2B35194  12.310  23.980   7.300
 1467BOLB   C3B35195  12.250  24.240   7.030
 1467BOLB   C4B35196  12.150  24.340   6.560
 1467BOLB   NC235197  13.610  26.090   4.550
 1467BOLB   PO235198  13.310  25.930   5.020
 1467BOLB   GL335199  13.510  25.630   5.320
 1467BOLB   GL435200  13.460  25.650   5.620
 1467BOLB   C1C35201  13.290  25.230   5.340
 1467BOLB   C2C35202  13.410  24.720   5.510
 1467BOLB   C3C35203  13.300  24.240   5.590
 1467BOLB   C4C35204  13.290  24.130   5.950
 1467BOLB   C1D35205  13.140  25.560   5.890
 1467BOLB   C2D35206  12.790  25.430   6.280
 1467BOLB   C3D35207  12.270  25.380   6.400
 1467BOLB   C4D35208  12.030  25.720   6.280
 1468BOLB   NC135209   5.330  26.440  14.560
 1468BOLB   PO135210   5.350  26.720  14.980
 1468BOLB   GL135211   5.230  27.070  14.970
 1468BOLB   GL235212   5.270  27.350  15.160
 1468BOLB   C1A35213   4.990  27.330  14.540
 1468BOLB   C2A35214   4.930  27.660  14.510
 1468BOLB   C3A35215   4.690  27.980  14.520
 1468BOLB   C4A35216   4.520  28.310  14.510
 1468BOLB   C1B35217   5.320  27.640  14.830
 1468BOLB   C2B35218   5.100  27.960  14.870
 1468BOLB   C3B35219   5.130  28.290  14.660
 1468BOLB   C4B35220   4.960  28.570  14.490
 1468BOLB   NC235221   4.390  31.110  14.730
 1468BOLB   PO235222   4.690  30.740  14.640
 1468BOLB   GL335223   4.610  30.350  14.660
 1468BOLB   GL435224   4.330  30.190  14.590
 1468BOLB   C1C35225   4.900  29.990  14.520
 1468BOLB   C2C35226   4.820  29.530  14.500
 1468BOLB   C3C35227   4.750  29.090  14.460
 1468BOLB   C4C35228   4.540  28.810  14.660
 1468BOLB   C1D35229   4.400  29.770  14.630
 1468BOLB   C2D35230   4.270  29.290  14.570
 1468BOLB   C3D35231   4.090  28.950  14.640
 1468BOLB   C4D35232   4.170  28.610  14.330
 1469BOLB   NC135233   8.470  21.630   8.070
 1469BOLB   PO135234   8.200  21.670   7.790
 1469BOLB   GL135235   8.230  21.740   7.330
 1469BOLB   GL235236   8.120  22.080   7.390
 1469BOLB   C1A35237   8.170  21.590   6.900
 1469BOLB   C2A35238   8.280  21.530   6.500
 1469BOLB   C3A35239   8.380  21.930   6.140
 1469BOLB   C4A35240   8.400  22.330   5.850
 1469BOLB   C1B35241   7.860  22.120   7.100
 1469BOLB   C2B35242   7.920  22.540   6.770
 1469BOLB   C3B35243   8.000  22.820   6.560
 1469BOLB   C4B35244   8.280  22.850   6.270
 1469BOLB   NC235245   8.330  23.480   3.480
 1469BOLB   PO235246   8.780  23.350   3.850
 1469BOLB   GL335247   8.720  23.230   4.250
 1469BOLB   GL435248   8.340  23.330   4.310
 1469BOLB   C1C35249   8.700  23.160   4.660
 1469BOLB   C2C35250   8.540  22.930   5.070
 1469BOLB   C3C35251   8.640  22.940   5.430
 1469BOLB   C4C35252   8.430  22.720   5.780
 1469BOLB   C1D35253   8.230  23.160   4.800
 1469BOLB   C2D35254   8.060  23.140   5.130
 1469BOLB   C3D35255   8.170  23.140   5.480
 1469BOLB   C4D35256   8.170  23.190   5.910
 1470BOLB   NC135257  18.090  23.890  16.150
 1470BOLB   PO135258  18.440  23.710  16.080
 1470BOLB   GL135259  18.870  23.790  16.160
 1470BOLB   GL235260  18.900  24.080  16.080
 1470BOLB   C1A35261  19.350  23.740  16.470
 1470BOLB   C2A35262  19.710  23.910  16.680
 1470BOLB   C3A35263  20.060  24.130  16.660
 1470BOLB   C4A35264  20.160  24.500  16.630
 1470BOLB   C1B35265  19.370  24.170  16.060
 1470BOLB   C2B35266  19.730  23.950  16.100
 1470BOLB   C3B35267  20.010  23.700  16.260
 1470BOLB   C4B35268  20.220  23.560  16.610
 1470BOLB   NC235269  22.030  25.570  15.590
 1470BOLB   PO235270  21.750  25.850  15.710
 1470BOLB   GL335271  21.340  25.730  15.650
 1470BOLB   GL435272  21.220  25.850  15.920
 1470BOLB   C1C35273  20.890  25.450  15.520
 1470BOLB   C2C35274  20.560  25.130  15.570
 1470BOLB   C3C35275  20.670  25.000  15.970
 1470BOLB   C4C35276  20.360  24.730  16.270
 1470BOLB   C1D35277  20.780  25.860  15.700
 1470BOLB   C2D35278  20.440  25.650  15.640
 1470BOLB   C3D35279  20.110  25.840  15.330
 1470BOLB   C4D35280  19.650  26.060  15.170
 1471BOLB   NC135281  20.770  26.460  18.900
 1471BOLB   PO135282  20.260  26.630  18.970
 1471BOLB   GL135283  19.960  26.570  18.600
 1471BOLB   GL235284  19.830  26.750  18.370
 1471BOLB   C1A35285  19.590  26.340  18.540
 1471BOLB   C2A35286  19.150  26.120  18.550
 1471BOLB   C3A35287  19.040  25.750  18.690
 1471BOLB   C4A35288  18.600  25.700  18.920
 1471BOLB   C1B35289  19.380  26.620  18.140
 1471BOLB   C2B35290  19.200  26.230  17.990
 1471BOLB   C3B35291  18.890  25.870  18.180
 1471BOLB   C4B35292  18.560  25.570  18.360
 1471BOLB   NC235293  19.800  26.780  19.900
 1471BOLB   PO235294  19.430  26.920  19.920
 1471BOLB   GL335295  19.140  26.940  19.680
 1471BOLB   GL435296  19.310  27.120  19.430
 1471BOLB   C1C35297  18.720  26.940  19.450
 1471BOLB   C2C35298  18.330  26.650  19.310
 1471BOLB   C3C35299  18.010  26.480  18.980
 1471BOLB   C4C35300  18.140  26.020  18.930
 1471BOLB   C1D35301  19.100  26.770  19.190
 1471BOLB   C2D35302  18.730  26.830  18.950
 1471BOLB   C3D35303  18.300  26.770  18.800
 1471BOLB   C4D35304  17.900  26.940  18.610
 1472BOLB   NC135305  13.320  27.320  14.750
 1472BOLB   PO135306  13.110  27.660  14.990
 1472BOLB   GL135307  13.190  28.040  14.890
 1472BOLB   GL235308  13.470  28.050  15.180
 1472BOLB   C1A35309  13.560  28.270  14.640
 1472BOLB   C2A35310  13.900  28.570  14.680
 1472BOLB   C3A35311  14.080  28.880  14.470
 1472BOLB   C4A35312  14.140  29.310  14.480
 1472BOLB   C1B35313  13.490  28.340  15.530
 1472BOLB   C2B35314  13.580  28.750  15.430
 1472BOLB   C3B35315  13.780  28.910  15.080
 1472BOLB   C4B35316  14.100  29.190  15.030
 1472BOLB   NC235317  15.450  31.700  14.510
 1472BOLB   PO235318  15.040  31.630  14.700
 1472BOLB   GL335319  14.860  31.230  14.820
 1472BOLB   GL435320  14.470  31.180  14.910
 1472BOLB   C1C35321  14.780  30.790  15.000
 1472BOLB   C2C35322  14.420  30.470  15.170
 1472BOLB   C3C35323  14.360  30.180  14.930
 1472BOLB   C4C35324  14.250  29.740  14.700
 1472BOLB   C1D35325  14.550  30.930  14.600
 1472BOLB   C2D35326  14.410  30.480  14.550
 1472BOLB   C3D35327  14.290  30.110  14.350
 1472BOLB   C4D35328  14.030  29.710  14.250
 1473BOLB   NC135329  13.530  31.660  16.540
 1473BOLB   PO135330  13.830  31.930  16.280
 1473BOLB   GL135331  13.860  31.480  16.090
 1473BOLB   GL235332  14.180  31.400  15.930
 1473BOLB   C1A35333  13.560  31.240  15.810
 1473BOLB   C2A35334  13.580  30.760  15.650
 1473BOLB   C3A35335  13.670  30.390  15.600
 1473BOLB   C4A35336  14.030  30.180  15.820
 1473BOLB   C1B35337  13.980  31.060  15.600
 1473BOLB   C2B35338  13.960  30.720  15.280
 1473BOLB   C3B35339  14.000  30.160  15.240
 1473BOLB   C4B35340  14.180  29.820  15.530
 1473BOLB   NC235341  15.120  31.430  16.270
 1473BOLB   PO235342  15.180  31.450  15.780
 1473BOLB   GL335343  15.440  31.020  15.840
 1473BOLB   GL435344  15.040  31.000  15.980
 1473BOLB   C1C35345  15.280  30.530  15.820
 1473BOLB   C2C35346  14.980  30.260  15.890
 1473BOLB   C3C35347  14.760  29.970  16.140
 1473BOLB   C4C35348  14.340  29.880  16.030
 1473BOLB   C1D35349  14.770  30.680  16.210
 1473BOLB   C2D35350  14.390  30.470  16.110
 1473BOLB   C3D35351  13.900  30.580  16.050
 1473BOLB   C4D35352  13.660  30.150  16.120
 1474BOLB   NC135353  14.190  12.710  11.200
 1474BOLB   PO135354  14.070  12.280  11.160
 1474BOLB   GL135355  14.160  11.990  10.800
 1474BOLB   GL235356  14.510  11.850  10.800
 1474BOLB   C1A35357  14.030  11.600  10.660
 1474BOLB   C2A35358  14.100  11.240  10.380
 1474BOLB   C3A35359  14.280  10.840  10.340
 1474BOLB   C4A35360  14.320  10.430  10.510
 1474BOLB   C1B35361  14.770  11.500  10.670
 1474BOLB   C2B35362  14.930  11.160  10.440
 1474BOLB   C3B35363  15.180  10.790  10.200
 1474BOLB   C4B35364  15.240  10.660   9.830
 1474BOLB   NC235365  14.420   7.880   9.780
 1474BOLB   PO235366  14.380   8.280   9.820
 1474BOLB   GL335367  14.200   8.710   9.860
 1474BOLB   GL435368  14.450   8.870   9.650
 1474BOLB   C1C35369  14.030   9.050   9.970
 1474BOLB   C2C35370  13.910   9.200  10.420
 1474BOLB   C3C35371  13.980   9.640  10.670
 1474BOLB   C4C35372  14.270  10.050  10.620
 1474BOLB   C1D35373  14.580   9.360   9.600
 1474BOLB   C2D35374  14.380   9.740   9.680
 1474BOLB   C3D35375  14.120  10.070   9.800
 1474BOLB   C4D35376  14.000  10.320  10.150
 1475BOLB   NC135377   9.380  15.970   8.270
 1475BOLB   PO135378   9.550  15.900   7.820
 1475BOLB   GL135379   9.420  15.790   7.340
 1475BOLB   GL235380   9.230  15.520   7.310
 1475BOLB   C1A35381   9.400  15.870   6.900
 1475BOLB   C2A35382   9.390  15.700   6.470
 1475BOLB   C3A35383   9.060  15.640   6.150
 1475BOLB   C4A35384   8.930  15.850   5.830
 1475BOLB   C1B35385   9.200  15.370   6.890
 1475BOLB   C2B35386   9.160  15.250   6.470
 1475BOLB   C3B35387   9.350  15.120   6.080
 1475BOLB   C4B35388   9.700  14.800   5.900
 1475BOLB   NC235389   7.850  14.930   3.360
 1475BOLB   PO235390   7.820  15.260   3.620
 1475BOLB   GL335391   7.930  15.350   4.070
 1475BOLB   GL435392   7.740  15.580   4.070
 1475BOLB   C1C35393   8.270  15.540   4.290
 1475BOLB   C2C35394   8.690  15.420   4.690
 1475BOLB   C3C35395   8.790  15.810   4.950
 1475BOLB   C4C35396   8.850  15.990   5.380
 1475BOLB   C1D35397   7.670  15.330   4.460
 1475BOLB   C2D35398   7.860  15.390   4.830
 1475BOLB   C3D35399   8.250  15.670   4.780
 1475BOLB   C4D35400   8.560  15.910   4.460
 1476BOLB   NC135401  17.740  13.500  13.510
 1476BOLB   PO135402  18.110  13.770  13.630
 1476BOLB   GL135403  18.570  14.000  13.840
 1476BOLB   GL235404  18.770  13.880  13.660
 1476BOLB   C1A35405  19.060  14.050  13.990
 1476BOLB   C2A35406  19.410  13.810  13.830
 1476BOLB   C3A35407  19.750  13.510  13.510
 1476BOLB   C4A35408  19.970  13.150  13.490
 1476BOLB   C1B35409  19.130  13.910  13.410
 1476BOLB   C2B35410  19.520  13.930  13.300
 1476BOLB   C3B35411  19.940  13.840  13.170
 1476BOLB   C4B35412  20.250  13.500  13.360
 1476BOLB   NC235413  21.600  11.570  14.120
 1476BOLB   PO235414  21.770  11.980  14.210
 1476BOLB   GL335415  21.360  12.130  14.080
 1476BOLB   GL435416  21.350  12.370  14.240
 1476BOLB   C1C35417  21.210  12.240  13.690
 1476BOLB   C2C35418  20.800  12.360  13.560
 1476BOLB   C3C35419  20.520  12.580  13.390
 1476BOLB   C4C35420  20.210  12.840  13.300
 1476BOLB   C1D35421  21.140  12.700  13.920
 1476BOLB   C2D35422  20.960  12.840  13.450
 1476BOLB   C3D35423  21.150  12.940  13.090
 1476BOLB   C4D35424  21.560  13.030  13.140
 1477BOLB   NC135425  18.170  22.930  18.120
 1477BOLB   PO135426  17.830  23.260  18.150
 1477BOLB   GL135427  18.230  23.300  18.410
 1477BOLB   GL235428  18.090  23.330  18.720
 1477BOLB   C1A35429  18.630  23.510  18.480
 1477BOLB   C2A35430  18.910  23.790  18.520
 1477BOLB   C3A35431  19.210  23.880  18.750
 1477BOLB   C4A35432  19.570  24.140  18.800
 1477BOLB   C1B35433  18.390  23.030  18.790
 1477BOLB   C2B35434  18.770  22.940  18.870
 1477BOLB   C3B35435  19.140  22.920  18.940
 1477BOLB   C4B35436  19.430  22.880  18.600
 1477BOLB   NC235437  20.650  25.310  20.470
 1477BOLB   PO235438  20.670  24.870  20.610
 1477BOLB   GL335439  20.480  24.570  20.390
 1477BOLB   GL435440  20.110  24.670  20.320
 1477BOLB   C1C35441  20.500  24.350  20.020
 1477BOLB   C2C35442  20.560  24.280  19.580
 1477BOLB   C3C35443  20.280  24.220  19.220
 1477BOLB   C4C35444  19.940  24.160  18.930
 1477BOLB   C1D35445  19.830  24.470  20.560
 1477BOLB   C2D35446  19.630  24.050  20.460
 1477BOLB   C3D35447  19.190  23.920  20.430
 1477BOLB   C4D35448  18.770  24.180  20.240
 1478BOLB   NC135449   8.300  27.260  17.040
 1478BOLB   PO135450   8.120  27.050  17.330
 1478BOLB   GL135451   8.210  27.330  17.700
 1478BOLB   GL235452   8.120  27.280  18.060
 1478BOLB   C1A35453   8.080  27.790  17.810
 1478BOLB   C2A35454   7.920  28.020  18.000
 1478BOLB   C3A35455   8.130  28.220  18.360
 1478BOLB   C4A35456   8.300  28.620  18.390
 1478BOLB   C1B35457   8.040  27.620  18.290
 1478BOLB   C2B35458   7.700  27.830  18.430
 1478BOLB   C3B35459   7.510  28.170  18.580
 1478BOLB   C4B35460   7.310  28.570  18.650
 1478BOLB   NC235461   9.080  30.570  18.730
 1478BOLB   PO235462   8.990  30.170  19.100
 1478BOLB   GL335463   9.380  30.200  18.800
 1478BOLB   GL435464   9.340  30.200  18.440
 1478BOLB   C1C35465   9.390  29.730  18.540
 1478BOLB   C2C35466   9.030  29.540  18.290
 1478BOLB   C3C35467   8.870  29.140  18.170
 1478BOLB   C4C35468   8.640  28.850  18.310
 1478BOLB   C1D35469   9.330  29.940  18.030
 1478BOLB   C2D35470   9.610  29.610  18.090
 1478BOLB   C3D35471   9.940  29.410  18.200
 1478BOLB   C4D35472  10.230  29.040  18.230
 1479BOLB   NC135473  11.020  13.090   8.470
 1479BOLB   PO135474  10.680  13.310   8.470
 1479BOLB   GL135475  10.820  13.500   8.110
 1479BOLB   GL235476  10.990  13.230   7.980
 1479BOLB   C1A35477  10.700  13.520   7.670
 1479BOLB   C2A35478  10.580  13.140   7.530
 1479BOLB   C3A35479  10.770  12.800   7.380
 1479BOLB   C4A35480  10.800  12.620   7.100
 1479BOLB   C1B35481  10.650  12.900   8.020
 1479BOLB   C2B35482  10.290  12.640   7.980
 1479BOLB   C3B35483   9.980  12.470   8.330
 1479BOLB   C4B35484   9.600  12.450   8.650
 1479BOLB   NC235485  11.050  11.250   5.340
 1479BOLB   PO235486  10.830  10.860   5.380
 1479BOLB   GL335487  10.610  11.300   5.610
 1479BOLB   GL435488  10.400  11.580   5.600
 1479BOLB   C1C35489  10.600  11.450   6.070
 1479BOLB   C2C35490  10.710  11.800   6.460
 1479BOLB   C3C35491  10.880  12.020   6.560
 1479BOLB   C4C35492  10.960  12.300   6.790
 1479BOLB   C1D35493  10.060  11.900   5.740
 1479BOLB   C2D35494   9.960  12.160   6.050
 1479BOLB   C3D35495  10.130  12.370   6.450
 1479BOLB   C4D35496  10.470  12.370   6.700
 1480BOLB   NC135497   5.410  26.940  15.460
 1480BOLB   PO135498   5.430  27.300  15.820
 1480BOLB   GL135499   5.270  27.660  15.630
 1480BOLB   GL235500   5.330  27.800  15.810
 1480BOLB   C1A35501   5.080  27.890  15.360
 1480BOLB   C2A35502   4.770  28.240  15.220
 1480BOLB   C3A35503   4.890  28.640  15.010
 1480BOLB   C4A35504   5.080  29.120  14.790
 1480BOLB   C1B35505   5.250  28.110  16.110
 1480BOLB   C2B35506   5.110  28.300  16.410
 1480BOLB   C3B35507   4.890  28.110  16.780
 1480BOLB   C4B35508   4.920  27.920  17.160
 1480BOLB   NC235509   4.110  30.390  13.800
 1480BOLB   PO235510   4.190  30.280  14.090
 1480BOLB   GL335511   4.390  29.920  14.050
 1480BOLB   GL435512   4.150  29.580  14.150
 1480BOLB   C1C35513   4.740  29.820  13.730
 1480BOLB   C2C35514   5.120  29.770  13.780
 1480BOLB   C3C35515   5.190  29.610  14.160
 1480BOLB   C4C35516   5.230  29.160  14.430
 1480BOLB   C1D35517   4.600  29.500  14.070
 1480BOLB   C2D35518   4.910  29.170  13.990
 1480BOLB   C3D35519   5.030  28.700  13.960
 1480BOLB   C4D35520   5.360  28.340  14.020
 1481BOLB   NC135521  11.640  26.820  14.040
 1481BOLB   PO135522  11.540  27.080  13.610
 1481BOLB   GL135523  11.540  27.520  13.530
 1481BOLB   GL235524  11.680  27.580  13.220
 1481BOLB   C1A35525  11.640  28.010  13.450
 1481BOLB   C2A35526  11.770  28.350  13.200
 1481BOLB   C3A35527  11.900  28.720  12.950
 1481BOLB   C4A35528  11.940  29.220  13.000
 1481BOLB   C1B35529  11.680  27.940  12.960
 1481BOLB   C2B35530  11.630  28.380  12.710
 1481BOLB   C3B35531  11.760  28.510  12.310
 1481BOLB   C4B35532  11.870  28.580  11.860
 1481BOLB   NC235533  11.410  30.680  11.140
 1481BOLB   PO235534  11.540  30.750  11.560
 1481BOLB   GL335535  11.820  30.570  11.790
 1481BOLB   GL435536  11.980  30.380  11.570
 1481BOLB   C1C35537  11.720  30.240  12.010
 1481BOLB   C2C35538  11.920  29.940  12.370
 1481BOLB   C3C35539  11.850  29.680  12.710
 1481BOLB   C4C35540  12.020  29.540  13.090
 1481BOLB   C1D35541  11.850  29.910  11.660
 1481BOLB   C2D35542  11.640  29.510  11.670
 1481BOLB   C3D35543  11.460  29.170  11.560
 1481BOLB   C4D35544  11.450  28.810  11.700
 1482BOLB   NC135545   7.300  20.150   7.650
 1482BOLB   PO135546   7.120  20.600   7.890
 1482BOLB   GL135547   7.070  20.900   7.650
 1482BOLB   GL235548   6.850  21.010   7.800
 1482BOLB   C1A35549   6.910  21.110   7.230
 1482BOLB   C2A35550   6.770  21.390   6.910
 1482BOLB   C3A35551   6.410  21.580   6.640
 1482BOLB   C4A35552   6.220  21.760   6.280
 1482BOLB   C1B35553   6.520  21.270   7.540
 1482BOLB   C2B35554   6.320  21.340   7.190
 1482BOLB   C3B35555   6.060  21.370   6.890
 1482BOLB   C4B35556   6.080  21.300   6.390
 1482BOLB   NC235557   4.750  22.840   4.980
 1482BOLB   PO235558   4.650  22.490   4.970
 1482BOLB   GL335559   5.090  22.470   5.050
 1482BOLB   GL435560   5.110  22.280   4.840
 1482BOLB   C1C35561   5.380  22.570   5.340
 1482BOLB   C2C35562   5.740  22.560   5.710
 1482BOLB   C3C35563   5.820  22.220   5.940
 1482BOLB   C4C35564   6.080  22.090   6.200
 1482BOLB   C1D35565   5.550  22.310   4.910
 1482BOLB   C2D35566   5.840  22.240   5.240
 1482BOLB   C3D35567   6.110  22.100   5.500
 1482BOLB   C4D35568   6.470  22.100   5.810
 1483BOLB   NC135569   9.440  25.860  10.760
 1483BOLB   PO135570   9.040  25.730  11.070
 1483BOLB   GL135571   9.020  26.150  10.950
 1483BOLB   GL235572   9.350  26.350  11.030
 1483BOLB   C1A35573   8.870  26.530  10.660
 1483BOLB   C2A35574   8.830  27.040  10.390
 1483BOLB   C3A35575   8.610  27.440  10.270
 1483BOLB   C4A35576   8.390  27.790  10.420
 1483BOLB   C1B35577   9.450  26.530  10.740
 1483BOLB   C2B35578   9.370  26.850  10.540
 1483BOLB   C3B35579   9.320  27.180  10.320
 1483BOLB   C4B35580   9.090  27.320  10.060
 1483BOLB   NC235581   7.100  29.700   9.110
 1483BOLB   PO235582   7.420  29.340   9.250
 1483BOLB   GL335583   7.470  29.260   9.700
 1483BOLB   GL435584   7.130  29.180   9.880
 1483BOLB   C1C35585   7.760  29.020   9.830
 1483BOLB   C2C35586   8.160  28.900  10.160
 1483BOLB   C3C35587   8.430  28.650  10.360
 1483BOLB   C4C35588   8.480  28.260  10.420
 1483BOLB   C1D35589   7.250  28.760   9.810
 1483BOLB   C2D35590   7.470  28.370  10.050
 1483BOLB   C3D35591   7.530  28.080  10.290
 1483BOLB   C4D35592   7.750  28.010  10.700
 1484BOLB   NC135593  14.230   7.380  18.720
 1484BOLB   PO135594  13.720   7.460  18.660
 1484BOLB   GL135595  13.840   7.740  18.340
 1484BOLB   GL235596  14.160   7.790  18.510
 1484BOLB   C1A35597  14.150   8.020  18.020
 1484BOLB   C2A35598  14.360   8.370  17.850
 1484BOLB   C3A35599  14.320   8.630  17.540
 1484BOLB   C4A35600  14.320   9.020  17.450
 1484BOLB   C1B35601  14.210   8.230  18.470
 1484BOLB   C2B35602  14.170   8.630  18.390
 1484BOLB   C3B35603  14.140   8.820  18.020
 1484BOLB   C4B35604  14.070   9.130  17.860
 1484BOLB   NC235605  13.650  11.410  16.920
 1484BOLB   PO235606  14.140  11.450  16.980
 1484BOLB   GL335607  14.300  11.070  17.080
 1484BOLB   GL435608  14.480  11.060  17.370
 1484BOLB   C1C35609  14.370  10.630  17.060
 1484BOLB   C2C35610  14.350  10.190  17.230
 1484BOLB   C3C35611  14.340   9.890  17.460
 1484BOLB   C4C35612  14.400   9.450  17.500
 1484BOLB   C1D35613  14.740  10.790  17.600
 1484BOLB   C2D35614  15.020  10.430  17.820
 1484BOLB   C3D35615  15.260  10.490  18.090
 1484BOLB   C4D35616  15.650  10.670  18.130
 1485BOLB   NC135617   6.840  23.750   9.610
 1485BOLB   PO135618   7.130  24.050   9.390
 1485BOLB   GL135619   7.390  24.270   9.000
 1485BOLB   GL235620   7.710  24.440   9.120
 1485BOLB   C1A35621   7.640  24.550   8.650
 1485BOLB   C2A35622   7.500  24.790   8.330
 1485BOLB   C3A35623   7.390  25.190   8.200
 1485BOLB   C4A35624   7.440  25.300   7.830
 1485BOLB   C1B35625   7.440  24.760   9.040
 1485BOLB   C2B35626   7.340  25.060   8.690
 1485BOLB   C3B35627   7.260  25.490   8.600
 1485BOLB   C4B35628   7.340  25.690   8.240
 1485BOLB   NC235629   5.580  25.980   6.500
 1485BOLB   PO235630   5.950  25.840   6.420
 1485BOLB   GL335631   6.350  25.960   6.580
 1485BOLB   GL435632   6.480  25.680   6.780
 1485BOLB   C1C35633   6.810  25.980   6.540
 1485BOLB   C2C35634   7.180  25.760   6.730
 1485BOLB   C3C35635   7.250  25.650   7.130
 1485BOLB   C4C35636   7.420  25.540   7.480
 1485BOLB   C1D35637   6.790  25.500   7.040
 1485BOLB   C2D35638   6.880  25.220   7.180
 1485BOLB   C3D35639   7.020  24.830   7.210
 1485BOLB   C4D35640   7.310  24.570   7.560
 1486BOLB   NC135641   9.830  25.340  10.800
 1486BOLB   PO135642  10.130  25.700  10.550
 1486BOLB   GL135643   9.950  26.050  10.490
 1486BOLB   GL235644   9.720  25.960  10.230
 1486BOLB   C1A35645   9.850  26.490  10.310
 1486BOLB   C2A35646   9.780  26.930  10.270
 1486BOLB   C3A35647   9.880  27.300  10.150
 1486BOLB   C4A35648   9.640  27.660  10.220
 1486BOLB   C1B35649   9.560  26.230   9.890
 1486BOLB   C2B35650   9.420  26.470   9.570
 1486BOLB   C3B35651   9.050  26.460   9.460
 1486BOLB   C4B35652   8.590  26.430   9.490
 1486BOLB   NC235653   8.300  29.830   9.550
 1486BOLB   PO235654   8.640  30.130   9.820
 1486BOLB   GL335655   8.740  29.690   9.940
 1486BOLB   GL435656   8.560  29.420   9.940
 1486BOLB   C1C35657   9.100  29.260  10.000
 1486BOLB   C2C35658   9.330  28.990  10.130
 1486BOLB   C3C35659   9.630  28.600  10.210
 1486BOLB   C4C35660   9.520  28.140  10.310
 1486BOLB   C1D35661   8.660  29.010  10.160
 1486BOLB   C2D35662   8.900  28.910  10.410
 1486BOLB   C3D35663   8.880  28.610  10.680
 1486BOLB   C4D35664   8.550  28.650  10.930
 1487BOLB   NC135665  10.560  10.920  14.930
 1487BOLB   PO135666  10.830  11.010  15.260
 1487BOLB   GL135667  10.860  10.490  15.400
 1487BOLB   GL235668  10.600  10.470  15.200
 1487BOLB   C1A35669  10.820  10.220  15.740
 1487BOLB   C2A35670  10.810   9.720  15.890
 1487BOLB   C3A35671  10.460   9.390  15.950
 1487BOLB   C4A35672  10.410   8.930  15.900
 1487BOLB   C1B35673  10.600  10.030  15.090
 1487BOLB   C2B35674  10.780   9.670  14.970
 1487BOLB   C3B35675  10.810   9.280  14.700
 1487BOLB   C4B35676  10.990   8.850  14.710
 1487BOLB   NC235677   9.420   6.980  17.010
 1487BOLB   PO235678   9.220   7.040  16.670
 1487BOLB   GL335679   9.380   7.260  16.350
 1487BOLB   GL435680   9.270   7.290  16.110
 1487BOLB   C1C35681   9.700   7.670  16.160
 1487BOLB   C2C35682  10.010   7.910  16.010
 1487BOLB   C3C35683  10.320   8.160  15.770
 1487BOLB   C4C35684  10.350   8.610  15.850
 1487BOLB   C1D35685   9.280   7.590  15.830
 1487BOLB   C2D35686   9.010   7.880  15.620
 1487BOLB   C3D35687   9.110   8.010  15.220
 1487BOLB   C4D35688   9.380   8.360  15.040
 1488BOLB   NC135689  14.690  27.040  14.600
 1488BOLB   PO135690  14.590  27.050  14.250
 1488BOLB   GL135691  14.410  27.390  14.060
 1488BOLB   GL235692  14.140  27.420  14.320
 1488BOLB   C1A35693  14.380  27.640  13.690
 1488BOLB   C2A35694  14.400  27.930  13.280
 1488BOLB   C3A35695  14.650  28.060  12.940
 1488BOLB   C4A35696  14.970  28.120  12.630
 1488BOLB   C1B35697  14.270  27.860  14.220
 1488BOLB   C2B35698  14.580  28.130  14.230
 1488BOLB   C3B35699  14.570  28.500  14.390
 1488BOLB   C4B35700  14.550  28.920  14.550
 1488BOLB   NC235701  16.230  30.130  12.560
 1488BOLB   PO235702  16.600  30.030  12.280
 1488BOLB   GL335703  16.470  29.580  12.530
 1488BOLB   GL435704  16.450  29.340  12.220
 1488BOLB   C1C35705  16.320  29.190  12.730
 1488BOLB   C2C35706  16.060  28.900  12.520
 1488BOLB   C3C35707  15.600  28.690  12.520
 1488BOLB   C4C35708  15.270  28.380  12.710
 1488BOLB   C1D35709  15.990  29.460  12.390
 1488BOLB   C2D35710  15.690  29.220  12.610
 1488BOLB   C3D35711  15.510  28.940  12.920
 1488BOLB   C4D35712  15.700  28.590  13.180
 1489BOLB   NC135713   5.730  26.010  12.290
 1489BOLB   PO135714   5.600  25.800  12.020
 1489BOLB   GL135715   5.460  26.140  11.770
 1489BOLB   GL235716   5.570  25.980  11.460
 1489BOLB   C1A35717   5.320  26.610  11.830
 1489BOLB   C2A35718   4.980  26.710  11.820
 1489BOLB   C3A35719   4.630  26.850  11.590
 1489BOLB   C4A35720   4.280  26.900  11.300
 1489BOLB   C1B35721   5.380  26.390  11.310
 1489BOLB   C2B35722   5.000  26.700  11.300
 1489BOLB   C3B35723   4.870  27.120  11.190
 1489BOLB   C4B35724   4.680  27.460  11.010
 1489BOLB   NC235725   2.440  27.110   9.340
 1489BOLB   PO235726   2.410  26.830   9.670
 1489BOLB   GL335727   2.670  26.580   9.910
 1489BOLB   GL435728   2.520  26.240   9.800
 1489BOLB   C1C35729   2.870  26.580  10.350
 1489BOLB   C2C35730   3.210  26.760  10.670
 1489BOLB   C3C35731   3.480  27.080  10.860
 1489BOLB   C4C35732   3.830  26.880  11.120
 1489BOLB   C1D35733   2.810  26.110   9.990
 1489BOLB   C2D35734   3.160  25.850  10.210
 1489BOLB   C3D35735   3.530  25.660  10.130
 1489BOLB   C4D35736   4.090  25.600  10.090
 1490BOLB   NC135737  13.990  19.090   7.000
 1490BOLB   PO135738  14.300  18.790   7.090
 1490BOLB   GL135739  14.210  18.900   6.600
 1490BOLB   GL235740  14.340  18.580   6.540
 1490BOLB   C1A35741  14.080  18.960   6.140
 1490BOLB   C2A35742  14.360  18.680   5.830
 1490BOLB   C3A35743  14.470  18.420   5.430
 1490BOLB   C4A35744  14.580  18.110   5.110
 1490BOLB   C1B35745  14.380  18.330   6.290
 1490BOLB   C2B35746  14.560  18.170   5.900
 1490BOLB   C3B35747  14.340  17.930   5.480
 1490BOLB   C4B35748  14.550  17.630   5.210
 1490BOLB   NC235749  14.950  16.560   2.960
 1490BOLB   PO235750  15.150  16.900   3.180
 1490BOLB   GL335751  15.090  17.120   3.530
 1490BOLB   GL435752  14.980  17.340   3.470
 1490BOLB   C1C35753  15.170  17.110   3.930
 1490BOLB   C2C35754  15.150  17.330   4.360
 1490BOLB   C3C35755  14.930  17.470   4.780
 1490BOLB   C4C35756  14.860  17.810   4.880
 1490BOLB   C1D35757  14.520  17.210   3.470
 1490BOLB   C2D35758  14.200  17.190   3.650
 1490BOLB   C3D35759  14.220  17.360   4.140
 1490BOLB   C4D35760  14.040  17.280   4.520
 1491BOLB   NC135761  16.090  17.590   8.420
 1491BOLB   PO135762  15.850  17.740   8.120
 1491BOLB   GL135763  16.100  17.500   7.750
 1491BOLB   GL235764  16.340  17.350   7.910
 1491BOLB   C1A35765  16.220  17.320   7.320
 1491BOLB   C2A35766  16.470  17.220   7.060
 1491BOLB   C3A35767  16.540  17.300   6.680
 1491BOLB   C4A35768  16.770  17.660   6.430
 1491BOLB   C1B35769  16.660  17.180   7.580
 1491BOLB   C2B35770  16.820  16.910   7.220
 1491BOLB   C3B35771  17.130  16.670   7.080
 1491BOLB   C4B35772  17.560  16.650   7.160
 1491BOLB   NC235773  18.080  17.430   4.160
 1491BOLB   PO235774  17.990  17.830   4.520
 1491BOLB   GL335775  18.040  17.740   5.010
 1491BOLB   GL435776  18.190  17.470   5.240
 1491BOLB   C1C35777  17.680  17.660   5.360
 1491BOLB   C2C35778  17.230  17.850   5.450
 1491BOLB   C3C35779  17.020  17.790   5.710
 1491BOLB   C4C35780  16.800  17.690   6.020
 1491BOLB   C1D35781  17.990  17.460   5.660
 1491BOLB   C2D35782  17.900  17.720   5.940
 1491BOLB   C3D35783  17.550  17.740   6.460
 1491BOLB   C4D35784  17.780  17.540   6.760
 1492BOLB   NC135785  10.570  25.550  10.390
 1492BOLB   PO135786  10.770  25.530  10.020
 1492BOLB   GL135787  10.600  25.720   9.670
 1492BOLB   GL235788  10.840  25.930   9.570
 1492BOLB   C1A35789  10.300  25.990   9.500
 1492BOLB   C2A35790   9.910  26.250   9.390
 1492BOLB   C3A35791   9.780  26.670   9.260
 1492BOLB   C4A35792   9.370  26.910   9.240
 1492BOLB   C1B35793  10.740  26.300   9.320
 1492BOLB   C2B35794  10.650  26.430   8.880
 1492BOLB   C3B35795  10.880  26.250   8.590
 1492BOLB   C4B35796  10.950  26.450   8.130
 1492BOLB   NC235797   9.960  29.470   8.490
 1492BOLB   PO235798   9.570  29.290   8.380
 1492BOLB   GL335799   9.630  28.900   8.630
 1492BOLB   GL435800   9.920  28.850   8.850
 1492BOLB   C1C35801   9.480  28.510   8.900
 1492BOLB   C2C35802   9.500  28.090   8.960
 1492BOLB   C3C35803   9.490  27.680   9.170
 1492BOLB   C4C35804   9.430  27.310   9.170
 1492BOLB   C1D35805   9.950  28.350   8.890
 1492BOLB   C2D35806  10.330  28.140   8.960
 1492BOLB   C3D35807  10.750  28.020   9.210
 1492BOLB   C4D35808  11.230  27.820   9.230
 1493BOLB   NC135809   8.210  14.870   8.980
 1493BOLB   PO135810   8.140  14.580   8.670
 1493BOLB   GL135811   8.220  14.630   8.210
 1493BOLB   GL235812   8.550  14.630   8.060
 1493BOLB   C1A35813   8.140  14.440   7.830
 1493BOLB   C2A35814   8.370  14.370   7.390
 1493BOLB   C3A35815   8.580  14.330   6.990
 1493BOLB   C4A35816   8.790  13.990   6.690
 1493BOLB   C1B35817   8.690  14.360   7.790
 1493BOLB   C2B35818   9.160  14.190   7.680
 1493BOLB   C3B35819   9.050  13.860   7.440
 1493BOLB   C4B35820   8.790  13.690   7.180
 1493BOLB   NC235821   8.260  12.450   5.000
 1493BOLB   PO235822   8.260  12.800   4.740
 1493BOLB   GL335823   8.200  13.030   5.110
 1493BOLB   GL435824   7.980  12.810   5.290
 1493BOLB   C1C35825   8.410  13.070   5.440
 1493BOLB   C2C35826   8.640  13.080   5.770
 1493BOLB   C3C35827   8.580  13.280   6.080
 1493BOLB   C4C35828   8.700  13.660   6.380
 1493BOLB   C1D35829   7.990  13.120   5.670
 1493BOLB   C2D35830   8.160  13.460   5.830
 1493BOLB   C3D35831   8.250  13.870   6.040
 1493BOLB   C4D35832   8.660  14.080   6.040
 1494BOLB   NC135833   7.690  15.950   8.380
 1494BOLB   PO135834   7.980  15.830   8.120
 1494BOLB   GL135835   7.900  15.770   7.740
 1494BOLB   GL235836   7.690  15.450   7.750
 1494BOLB   C1A35837   8.150  15.410   7.460
 1494BOLB   C2A35838   8.280  15.280   7.190
 1494BOLB   C3A35839   8.150  15.200   6.820
 1494BOLB   C4A35840   8.270  14.830   6.500
 1494BOLB   C1B35841   7.780  15.140   7.360
 1494BOLB   C2B35842   7.590  15.130   7.020
 1494BOLB   C3B35843   7.290  14.920   6.760
 1494BOLB   C4B35844   6.980  14.650   6.490
 1494BOLB   NC235845   6.280  14.460   4.590
 1494BOLB   PO235846   6.610  14.210   4.620
 1494BOLB   GL335847   6.840  14.140   4.970
 1494BOLB   GL435848   7.210  13.940   4.940
 1494BOLB   C1C35849   7.250  14.280   5.420
 1494BOLB   C2C35850   7.400  14.560   5.790
 1494BOLB   C3C35851   7.800  14.810   5.980
 1494BOLB   C4C35852   8.250  14.730   6.100
 1494BOLB   C1D35853   7.280  14.410   4.920
 1494BOLB   C2D35854   7.580  14.600   5.160
 1494BOLB   C3D35855   7.950  14.780   5.080
 1494BOLB   C4D35856   8.020  15.050   5.230
 1495BOLB   NC135857  15.070  19.070   7.210
 1495BOLB   PO135858  15.390  19.360   7.430
 1495BOLB   GL135859  15.500  19.510   7.010
 1495BOLB   GL235860  15.660  19.840   7.010
 1495BOLB   C1A35861  15.600  19.610   6.570
 1495BOLB   C2A35862  15.910  19.570   6.280
 1495BOLB   C3A35863  16.170  19.240   6.000
 1495BOLB   C4A35864  16.160  18.920   5.660
 1495BOLB   C1B35865  15.520  20.100   6.730
 1495BOLB   C2B35866  15.450  20.310   6.400
 1495BOLB   C3B35867  15.740  20.540   6.240
 1495BOLB   C4B35868  16.170  20.690   6.080
 1495BOLB   NC235869  17.180  17.230   3.990
 1495BOLB   PO235870  16.890  17.090   4.160
 1495BOLB   GL335871  17.020  17.210   4.650
 1495BOLB   GL435872  17.110  17.000   4.770
 1495BOLB   C1C35873  16.790  17.350   4.860
 1495BOLB   C2C35874  16.670  17.750   4.960
 1495BOLB   C3C35875  16.470  18.100   5.250
 1495BOLB   C4C35876  16.190  18.540   5.370
 1495BOLB   C1D35877  16.690  16.880   4.870
 1495BOLB   C2D35878  16.410  16.680   5.110
 1495BOLB   C3D35879  15.960  16.450   5.120
 1495BOLB   C4D35880  15.470  16.450   5.200
 1496BOLB   NC135881   9.550  22.610   8.900
 1496BOLB   PO135882   9.590  22.910   8.570
 1496BOLB   GL135883   9.440  23.160   8.350
 1496BOLB   GL235884   9.150  23.140   8.360
 1496BOLB   C1A35885   9.360  23.300   7.900
 1496BOLB   C2A35886   9.440  23.310   7.510
 1496BOLB   C3A35887   9.550  23.570   7.320
 1496BOLB   C4A35888   9.500  23.800   6.940
 1496BOLB   C1B35889   9.120  23.610   8.390
 1496BOLB   C2B35890   9.190  23.980   8.190
 1496BOLB   C3B35891   9.050  24.320   7.940
 1496BOLB   C4B35892   9.080  24.750   7.860
 1496BOLB   NC235893   9.650  25.380   4.440
 1496BOLB   PO235894   9.610  25.430   4.910
 1496BOLB   GL335895   9.620  25.060   5.210
 1496BOLB   GL435896   9.340  24.940   5.090
 1496BOLB   C1C35897   9.780  24.800   5.580
 1496BOLB   C2C35898   9.650  24.510   5.830
 1496BOLB   C3C35899   9.640  24.170   6.050
 1496BOLB   C4C35900   9.510  24.080   6.520
 1496BOLB   C1D35901   9.440  24.530   5.330
 1496BOLB   C2D35902   9.680  24.150   5.480
 1496BOLB   C3D35903   9.960  23.940   5.750
 1496BOLB   C4D35904  10.180  23.620   5.980
 1497BOLB   NC135905   7.450  21.480   8.020
 1497BOLB   PO135906   7.230  21.860   8.090
 1497BOLB   GL135907   6.870  22.080   7.810
 1497BOLB   GL235908   6.610  22.100   7.990
 1497BOLB   C1A35909   6.780  22.220   7.390
 1497BOLB   C2A35910   6.450  22.290   7.190
 1497BOLB   C3A35911   6.020  22.390   7.080
 1497BOLB   C4A35912   5.520  22.270   7.060
 1497BOLB   C1B35913   6.430  22.320   7.680
 1497BOLB   C2B35914   6.140  22.610   7.490
 1497BOLB   C3B35915   6.130  22.860   7.250
 1497BOLB   C4B35916   6.330  23.270   7.380
 1497BOLB   NC235917   3.800  23.050   5.470
 1497BOLB   PO235918   3.680  22.650   5.630
 1497BOLB   GL335919   4.060  22.600   5.730
 1497BOLB   GL435920   4.350  22.890   5.770
 1497BOLB   C1C35921   4.430  22.390   5.930
 1497BOLB   C2C35922   4.720  22.400   6.240
 1497BOLB   C3C35923   4.830  22.320   6.560
 1497BOLB   C4C35924   5.190  22.150   6.810
 1497BOLB   C1D35925   4.750  22.850   5.980
 1497BOLB   C2D35926   5.080  22.730   6.300
 1497BOLB   C3D35927   5.290  22.580   6.590
 1497BOLB   C4D35928   5.680  22.320   6.480
 1498BOLB   NC135929   3.550  24.400  14.440
 1498BOLB   PO135930   3.250  24.730  14.490
 1498BOLB   GL135931   2.980  25.050  14.440
 1498BOLB   GL235932   2.780  25.170  14.660
 1498BOLB   C1A35933   2.830  25.330  14.130
 1498BOLB   C2A35934   2.510  25.640  14.050
 1498BOLB   C3A35935   2.190  25.970  14.100
 1498BOLB   C4A35936   2.110  26.340  14.230
 1498BOLB   C1B35937   2.520  25.400  14.560
 1498BOLB   C2B35938   2.320  25.830  14.680
 1498BOLB   C3B35939   2.010  26.220  14.780
 1498BOLB   C4B35940   1.730  26.460  14.930
 1498BOLB   NC235941   0.960  28.430  13.600
 1498BOLB   PO235942   1.020  28.490  13.960
 1498BOLB   GL335943   1.110  28.210  14.240
 1498BOLB   GL435944   1.480  28.200  14.170
 1498BOLB   C1C35945   1.270  27.810  14.360
 1498BOLB   C2C35946   1.570  27.460  14.350
 1498BOLB   C3C35947   1.810  27.090  14.230
 1498BOLB   C4C35948   1.800  26.640  14.370
 1498BOLB   C1D35949   1.710  27.830  14.020
 1498BOLB   C2D35950   2.100  27.520  13.990
 1498BOLB   C3D35951   2.520  27.560  14.030
 1498BOLB   C4D35952   2.780  27.750  13.750
 1499BOLB   NC135953  11.740  27.350  16.340
 1499BOLB   PO135954  12.110  27.580  16.530
 1499BOLB   GL135955  12.330  27.980  16.580
 1499BOLB   GL235956  12.750  28.140  16.660
 1499BOLB   C1A35957  12.300  28.270  16.850
 1499BOLB   C2A35958  12.120  28.580  17.030
 1499BOLB   C3A35959  12.140  29.060  17.020
 1499BOLB   C4A35960  12.170  29.490  17.150
 1499BOLB   C1B35961  12.630  28.630  16.730
 1499BOLB   C2B35962  12.620  29.110  16.820
 1499BOLB   C3B35963  12.740  29.510  17.110
 1499BOLB   C4B35964  12.880  29.920  17.180
 1499BOLB   NC235965  11.410  31.670  17.670
 1499BOLB   PO235966  11.770  31.540  17.880
 1499BOLB   GL335967  11.980  31.320  17.950
 1499BOLB   GL435968  11.820  31.060  18.120
 1499BOLB   C1C35969  12.300  30.910  17.950
 1499BOLB   C2C35970  12.200  30.480  17.770
 1499BOLB   C3C35971  12.120  30.060  17.810
 1499BOLB   C4C35972  12.050  29.620  17.600
 1499BOLB   C1D35973  11.820  30.570  18.130
 1499BOLB   C2D35974  11.850  30.240  18.200
 1499BOLB   C3D35975  12.000  29.900  18.520
 1499BOLB   C4D35976  11.830  29.580  18.700
 1500BOLB   NC135977  15.110  26.810  16.060
 1500BOLB   PO135978  15.390  26.630  16.450
 1500BOLB   GL135979  15.480  27.100  16.490
 1500BOLB   GL235980  15.430  27.260  16.790
 1500BOLB   C1A35981  15.590  27.380  16.220
 1500BOLB   C2A35982  15.620  27.760  16.190
 1500BOLB   C3A35983  15.570  28.120  16.400
 1500BOLB   C4A35984  15.530  28.490  16.490
 1500BOLB   C1B35985  15.750  27.530  16.670
 1500BOLB   C2B35986  15.990  27.890  16.770
 1500BOLB   C3B35987  15.940  28.210  16.970
 1500BOLB   C4B35988  15.830  28.560  17.030
 1500BOLB   NC235989  15.680  31.160  16.370
 1500BOLB   PO235990  15.460  30.760  16.390
 1500BOLB   GL335991  15.210  30.490  16.310
 1500BOLB   GL435992  15.050  30.430  16.570
 1500BOLB   C1C35993  15.360  30.100  16.180
 1500BOLB   C2C35994  15.550  29.650  16.100
 1500BOLB   C3C35995  15.440  29.310  16.510
 1500BOLB   C4C35996  15.430  28.890  16.580
 1500BOLB   C1D35997  14.590  30.220  16.560
 1500BOLB   C2D35998  14.560  29.830  16.590
 1500BOLB   C3D35999  14.600  29.480  16.260
 1500BOLB   C4D36000  14.510  29.450  15.790
 1501BOLB   NC136001  18.240  15.470  13.250
 1501BOLB   PO136002  18.630  15.170  13.260
 1501BOLB   GL136003  19.050  15.030  13.080
 1501BOLB   GL236004  19.110  14.920  12.810
 1501BOLB   C1A36005  19.510  14.850  13.110
 1501BOLB   C2A36006  19.870  14.740  12.830
 1501BOLB   C3A36007  20.320  14.660  12.820
 1501BOLB   C4A36008  20.630  14.450  12.690
 1501BOLB   C1B36009  19.520  14.850  12.410
 1501BOLB   C2B36010  19.980  14.830  12.210
 1501BOLB   C3B36011  20.150  14.590  11.900
 1501BOLB   C4B36012  20.420  14.310  11.900
 1501BOLB   NC236013  21.950  12.620  11.430
 1501BOLB   PO236014  21.640  12.950  11.240
 1501BOLB   GL336015  21.210  13.180  11.460
 1501BOLB   GL436016  21.160  13.000  11.740
 1501BOLB   C1C36017  20.840  13.440  11.450
 1501BOLB   C2C36018  20.710  13.650  11.760
 1501BOLB   C3C36019  20.840  13.970  11.980
 1501BOLB   C4C36020  20.600  14.080  12.430
 1501BOLB   C1D36021  20.860  13.250  11.960
 1501BOLB   C2D36022  20.470  13.240  12.090
 1501BOLB   C3D36023  20.040  13.390  12.010
 1501BOLB   C4D36024  19.550  13.440  12.240
 1502BOLB   NC136025   8.570  23.530   8.940
 1502BOLB   PO136026   8.240  23.200   8.930
 1502BOLB   GL136027   8.190  23.330   8.400
 1502BOLB   GL236028   8.130  23.120   8.230
 1502BOLB   C1A36029   8.000  23.540   8.060
 1502BOLB   C2A36030   7.910  23.560   7.610
 1502BOLB   C3A36031   7.960  23.790   7.230
 1502BOLB   C4A36032   8.110  23.780   6.830
 1502BOLB   C1B36033   7.980  23.050   7.850
 1502BOLB   C2B36034   8.180  23.130   7.440
 1502BOLB   C3B36035   8.030  23.120   7.000
 1502BOLB   C4B36036   7.740  23.320   6.660
 1502BOLB   NC236037   7.510  23.870   4.330
 1502BOLB   PO236038   7.080  23.990   4.590
 1502BOLB   GL336039   7.380  24.060   4.860
 1502BOLB   GL436040   7.700  24.190   4.740
 1502BOLB   C1C36041   7.490  23.840   5.210
 1502BOLB   C2C36042   7.510  23.920   5.690
 1502BOLB   C3C36043   7.760  23.750   6.050
 1502BOLB   C4C36044   7.960  23.820   6.390
 1502BOLB   C1D36045   7.960  23.990   5.050
 1502BOLB   C2D36046   8.010  24.190   5.360
 1502BOLB   C3D36047   7.750  24.380   5.760
 1502BOLB   C4D36048   7.320  24.390   5.780
 1503BOLB   NC136049  19.580  20.660  14.100
 1503BOLB   PO136050  19.830  20.300  14.030
 1503BOLB   GL136051  20.010  20.540  14.330
 1503BOLB   GL236052  20.300  20.490  14.320
 1503BOLB   C1A36053  20.270  20.790  14.690
 1503BOLB   C2A36054  20.760  20.820  14.850
 1503BOLB   C3A36055  20.990  20.640  15.160
 1503BOLB   C4A36056  21.420  20.570  15.190
 1503BOLB   C1B36057  20.660  20.760  14.310
 1503BOLB   C2B36058  21.130  20.790  14.190
 1503BOLB   C3B36059  21.550  20.940  14.290
 1503BOLB   C4B36060  21.860  20.740  14.420
 1503BOLB   NC236061  24.210  19.920  15.620
 1503BOLB   PO236062  24.130  20.210  15.170
 1503BOLB   GL336063  23.700  20.110  15.070
 1503BOLB   GL436064  23.530  20.240  14.690
 1503BOLB   C1C36065  23.190  20.180  15.060
 1503BOLB   C2C36066  22.710  20.390  15.180
 1503BOLB   C3C36067  22.260  20.460  15.410
 1503BOLB   C4C36068  21.800  20.590  15.400
 1503BOLB   C1D36069  23.180  19.920  14.600
 1503BOLB   C2D36070  22.790  19.930  14.720
 1503BOLB   C3D36071  22.420  19.760  14.530
 1503BOLB   C4D36072  21.940  19.630  14.450
 1504BOLB   NC136073  16.030  23.750   9.850
 1504BOLB   PO136074  16.150  24.170   9.870
 1504BOLB   GL136075  16.300  24.490   9.540
 1504BOLB   GL236076  16.230  24.320   9.190
 1504BOLB   C1A36077  16.460  24.750   9.240
 1504BOLB   C2A36078  16.660  24.830   8.830
 1504BOLB   C3A36079  16.620  24.790   8.340
 1504BOLB   C4A36080  16.780  24.620   8.000
 1504BOLB   C1B36081  16.170  24.600   8.900
 1504BOLB   C2B36082  16.190  24.930   8.610
 1504BOLB   C3B36083  16.030  25.270   8.400
 1504BOLB   C4B36084  16.050  25.500   8.080
 1504BOLB   NC236085  18.060  26.270   7.030
 1504BOLB   PO236086  18.430  26.240   7.250
 1504BOLB   GL336087  18.080  26.080   7.500
 1504BOLB   GL436088  17.910  26.190   7.800
 1504BOLB   C1C36089  17.710  25.790   7.520
 1504BOLB   C2C36090  17.500  25.280   7.400
 1504BOLB   C3C36091  17.540  24.860   7.600
 1504BOLB   C4C36092  17.210  24.570   7.850
 1504BOLB   C1D36093  18.160  25.920   8.000
 1504BOLB   C2D36094  18.480  25.680   8.290
 1504BOLB   C3D36095  18.330  25.520   8.690
 1504BOLB   C4D36096  18.030  25.170   8.760
 1505BOLB   NC136097   7.840  16.780   7.900
 1505BOLB   PO136098   7.880  16.380   8.060
 1505BOLB   GL136099   7.800  16.230   7.670
 1505BOLB   GL236100   8.100  16.350   7.540
 1505BOLB   C1A36101   8.060  15.900   7.300
 1505BOLB   C2A36102   7.860  15.540   7.020
 1505BOLB   C3A36103   7.730  15.320   6.630
 1505BOLB   C4A36104   7.720  14.920   6.490
 1505BOLB   C1B36105   8.070  16.350   7.090
 1505BOLB   C2B36106   8.180  16.080   6.790
 1505BOLB   C3B36107   8.090  15.930   6.340
 1505BOLB   C4B36108   7.890  15.740   5.920
 1505BOLB   NC236109   7.720  13.140   5.020
 1505BOLB   PO236110   7.320  12.930   5.010
 1505BOLB   GL336111   7.310  13.270   5.370
 1505BOLB   GL436112   7.580  13.350   5.470
 1505BOLB   C1C36113   7.150  13.380   5.750
 1505BOLB   C2C36114   7.150  13.780   6.070
 1505BOLB   C3C36115   7.380  14.160   6.180
 1505BOLB   C4C36116   7.470  14.570   6.350
 1505BOLB   C1D36117   7.890  13.640   5.430
 1505BOLB   C2D36118   8.210  13.920   5.590
 1505BOLB   C3D36119   8.300  14.290   5.710
 1505BOLB   C4D36120   8.610  14.530   5.710
 1506BOLB   NC136121  14.330  19.230   7.350
 1506BOLB   PO136122  14.610  19.240   7.080
 1506BOLB   GL136123  14.600  19.200   6.680
 1506BOLB   GL236124  14.650  19.470   6.640
 1506BOLB   C1A36125  14.540  18.960   6.250
 1506BOLB   C2A36126  14.700  19.090   5.910
 1506BOLB   C3A36127  14.650  19.460   5.670
 1506BOLB   C4A36128  14.670  19.880   5.350
 1506BOLB   C1B36129  14.710  19.600   6.130
 1506BOLB   C2B36130  14.960  19.820   5.820
 1506BOLB   C3B36131  15.180  20.250   5.850
 1506BOLB   C4B36132  15.660  20.210   5.880
 1506BOLB   NC236133  15.050  19.070   2.620
 1506BOLB   PO236134  15.280  19.350   2.860
 1506BOLB   GL336135  15.060  19.470   3.250
 1506BOLB   GL436136  14.920  19.250   3.510
 1506BOLB   C1C36137  15.080  19.890   3.650
 1506BOLB   C2C36138  15.000  20.050   4.010
 1506BOLB   C3C36139  14.770  20.220   4.400
 1506BOLB   C4C36140  14.600  20.040   4.830
 1506BOLB   C1D36141  14.580  18.960   3.490
 1506BOLB   C2D36142  14.250  18.610   3.350
 1506BOLB   C3D36143  13.980  18.490   3.090
 1506BOLB   C4D36144  13.440  18.380   3.050
 1507BOLB   NC136145  13.740  26.770  14.600
 1507BOLB   PO136146  13.650  27.080  14.350
 1507BOLB   GL136147  13.580  27.440  14.270
 1507BOLB   GL236148  13.380  27.590  14.080
 1507BOLB   C1A36149  13.760  27.970  14.260
 1507BOLB   C2A36150  13.970  28.310  14.280
 1507BOLB   C3A36151  14.150  28.540  14.010
 1507BOLB   C4A36152  14.400  28.980  14.060
 1507BOLB   C1B36153  13.250  28.080  14.170
 1507BOLB   C2B36154  13.390  28.450  14.200
 1507BOLB   C3B36155  13.710  28.790  14.230
 1507BOLB   C4B36156  13.950  29.100  13.970
 1507BOLB   NC236157  15.450  31.140  13.690
 1507BOLB   PO236158  14.940  31.270  13.870
 1507BOLB   GL336159  14.650  30.980  14.040
 1507BOLB   GL436160  14.370  30.890  13.790
 1507BOLB   C1C36161  14.730  30.570  14.150
 1507BOLB   C2C36162  14.650  30.190  14.020
 1507BOLB   C3C36163  14.580  29.810  14.100
 1507BOLB   C4C36164  14.590  29.440  14.220
 1507BOLB   C1D36165  14.660  30.670  13.630
 1507BOLB   C2D36166  14.740  30.340  13.450
 1507BOLB   C3D36167  14.510  30.060  13.460
 1507BOLB   C4D36168  14.140  29.980  13.250
 1508BOLB   NC136169  21.290  26.550  12.260
 1508BOLB   PO136170  21.510  26.340  12.570
 1508BOLB   GL136171  21.180  26.020  12.420
 1508BOLB   GL236172  21.110  25.750  12.540
 1508BOLB   C1A36173  20.780  25.950  12.280
 1508BOLB   C2A36174  20.460  25.680  12.050
 1508BOLB   C3A36175  20.080  25.410  12.110
 1508BOLB   C4A36176  19.990  25.300  12.590
 1508BOLB   C1B36177  21.250  25.600  12.910
 1508BOLB   C2B36178  21.010  25.630  13.210
 1508BOLB   C3B36179  20.770  25.340  13.530
 1508BOLB   C4B36180  20.460  25.630  13.650
 1508BOLB   NC236181  21.670  26.170  13.040
 1508BOLB   PO236182  21.450  26.440  13.430
 1508BOLB   GL336183  21.320  26.050  13.650
 1508BOLB   GL436184  21.500  26.020  13.950
 1508BOLB   C1C36185  20.880  25.900  13.710
 1508BOLB   C2C36186  20.480  26.110  13.470
 1508BOLB   C3C36187  20.250  25.880  13.200
 1508BOLB   C4C36188  20.200  25.520  12.960
 1508BOLB   C1D36189  21.100  25.880  14.180
 1508BOLB   C2D36190  20.950  25.600  14.600
 1508BOLB   C3D36191  20.540  25.370  14.590
 1508BOLB   C4D36192  20.400  24.870  14.680
 1509BOLB   NC136193  18.660  23.140  12.580
 1509BOLB   PO136194  18.890  23.110  12.920
 1509BOLB   GL136195  18.990  23.520  12.800
 1509BOLB   GL236196  18.840  23.830  12.840
 1509BOLB   C1A36197  19.330  23.820  12.740
 1509BOLB   C2A36198  19.500  24.160  12.660
 1509BOLB   C3A36199  19.680  24.500  12.570
 1509BOLB   C4A36200  19.910  24.880  12.240
 1509BOLB   C1B36201  18.990  24.090  13.080
 1509BOLB   C2B36202  19.370  24.450  13.050
 1509BOLB   C3B36203  19.450  24.800  12.860
 1509BOLB   C4B36204  19.490  25.100  12.540
 1509BOLB   NC236205  20.990  25.460  10.260
 1509BOLB   PO236206  21.370  25.590  10.610
 1509BOLB   GL336207  21.220  25.380  10.910
 1509BOLB   GL436208  20.940  25.240  10.820
 1509BOLB   C1C36209  20.980  25.260  11.320
 1509BOLB   C2C36210  20.870  25.120  11.680
 1509BOLB   C3C36211  20.500  24.950  11.650
 1509BOLB   C4C36212  20.180  24.850  11.880
 1509BOLB   C1D36213  20.650  25.000  10.920
 1509BOLB   C2D36214  20.420  24.650  10.730
 1509BOLB   C3D36215  20.150  24.510  10.410
 1509BOLB   C4D36216  19.820  24.420  10.060
 1510BOLB   NC136217  13.220  26.830  19.210
 1510BOLB   PO136218  13.420  27.090  18.810
 1510BOLB   GL136219  13.810  27.220  18.770
 1510BOLB   GL236220  13.850  27.340  18.470
 1510BOLB   C1A36221  13.950  27.480  19.130
 1510BOLB   C2A36222  14.100  27.770  19.430
 1510BOLB   C3A36223  14.380  27.980  19.540
 1510BOLB   C4A36224  14.800  28.000  19.810
 1510BOLB   C1B36225  14.230  27.430  18.270
 1510BOLB   C2B36226  14.590  27.480  18.450
 1510BOLB   C3B36227  14.740  27.920  18.590
 1510BOLB   C4B36228  15.060  28.100  18.780
 1510BOLB   NC236229  16.470  28.500  21.360
 1510BOLB   PO236230  16.300  28.680  20.970
 1510BOLB   GL336231  16.200  28.190  21.050
 1510BOLB   GL436232  16.570  28.170  20.950
 1510BOLB   C1C36233  15.930  28.080  20.710
 1510BOLB   C2C36234  15.810  27.880  20.260
 1510BOLB   C3C36235  15.380  27.640  20.390
 1510BOLB   C4C36236  14.960  27.800  20.250
 1510BOLB   C1D36237  16.350  27.790  20.820
 1510BOLB   C2D36238  16.040  27.540  20.660
 1510BOLB   C3D36239  15.790  27.420  20.330
 1510BOLB   C4D36240  15.680  27.520  19.900
 1511BOLB   NC136241  14.540  11.070  16.150
 1511BOLB   PO136242  14.180  10.980  16.200
 1511BOLB   GL136243  14.370  10.680  16.470
 1511BOLB   GL236244  14.090  10.580  16.610
 1511BOLB   C1A36245  14.680  10.470  16.680
 1511BOLB   C2A36246  14.780  10.020  16.830
 1511BOLB   C3A36247  14.840   9.660  17.040
 1511BOLB   C4A36248  14.830   9.630  17.470
 1511BOLB   C1B36249  13.960  10.310  16.870
 1511BOLB   C2B36250  13.760   9.990  17.140
 1511BOLB   C3B36251  13.730   9.810  17.540
 1511BOLB   C4B36252  13.660   9.360  17.690
 1511BOLB   NC236253  15.820   8.270  19.280
 1511BOLB   PO236254  16.060   7.980  18.970
 1511BOLB   GL336255  15.830   8.410  18.800
 1511BOLB   GL436256  15.490   8.260  18.850
 1511BOLB   C1C36257  15.550   8.670  18.520
 1511BOLB   C2C36258  15.590   9.100  18.400
 1511BOLB   C3C36259  15.470   9.240  18.050
 1511BOLB   C4C36260  15.130   9.510  17.760
 1511BOLB   C1D36261  15.220   8.650  18.900
 1511BOLB   C2D36262  14.810   8.810  18.780
 1511BOLB   C3D36263  14.630   8.830  18.340
 1511BOLB   C4D36264  14.610   9.130  17.920
 1512BOLB   NC136265   4.750  24.810  11.770
 1512BOLB   PO136266   4.710  24.500  11.530
 1512BOLB   GL136267   4.380  24.770  11.390
 1512BOLB   GL236268   4.100  24.610  11.540
 1512BOLB   C1A36269   4.460  25.120  11.150
 1512BOLB   C2A36270   4.310  25.360  10.860
 1512BOLB   C3A36271   4.530  25.520  10.470
 1512BOLB   C4A36272   4.570  25.860  10.150
 1512BOLB   C1B36273   3.970  24.910  11.150
 1512BOLB   C2B36274   3.820  25.220  11.060
 1512BOLB   C3B36275   3.760  25.650  10.970
 1512BOLB   C4B36276   3.760  26.120  11.070
 1512BOLB   NC236277   4.140  27.690   8.870
 1512BOLB   PO236278   4.320  27.380   8.550
 1512BOLB   GL336279   4.540  26.930   8.510
 1512BOLB   GL436280   4.580  26.740   8.210
 1512BOLB   C1C36281   4.400  26.600   8.650
 1512BOLB   C2C36282   4.100  26.380   8.990
 1512BOLB   C3C36283   4.410  26.280   9.340
 1512BOLB   C4C36284   4.400  25.890   9.700
 1512BOLB   C1D36285   4.880  26.590   8.650
 1512BOLB   C2D36286   5.120  26.230   8.880
 1512BOLB   C3D36287   5.420  26.030   9.190
 1512BOLB   C4D36288   5.690  26.230   9.400
 1513BOLB   NC136289  15.220  16.640   8.310
 1513BOLB   PO136290  14.940  16.850   7.870
 1513BOLB   GL136291  15.030  16.640   7.400
 1513BOLB   GL236292  14.810  16.390   7.260
 1513BOLB   C1A36293  15.280  16.520   7.070
 1513BOLB   C2A36294  15.690  16.590   6.820
 1513BOLB   C3A36295  16.050  16.580   6.440
 1513BOLB   C4A36296  16.110  16.610   6.020
 1513BOLB   C1B36297  14.830  16.300   6.920
 1513BOLB   C2B36298  14.920  16.390   6.540
 1513BOLB   C3B36299  15.170  16.340   6.210
 1513BOLB   C4B36300  15.460  16.350   5.760
 1513BOLB   NC236301  16.420  15.200   3.710
 1513BOLB   PO236302  16.280  15.410   4.100
 1513BOLB   GL336303  16.140  15.200   4.470
 1513BOLB   GL436304  16.270  14.890   4.540
 1513BOLB   C1C36305  15.960  15.230   4.840
 1513BOLB   C2C36306  15.870  15.580   5.140
 1513BOLB   C3C36307  15.760  16.020   5.310
 1513BOLB   C4C36308  15.990  16.350   5.620
 1513BOLB   C1D36309  16.130  14.640   4.910
 1513BOLB   C2D36310  16.070  14.860   5.350
 1513BOLB   C3D36311  15.780  14.610   5.640
 1513BOLB   C4D36312  15.840  14.070   5.520
 1514BOLB   NC136313  15.960  25.250  17.620
 1514BOLB   PO136314  16.220  25.460  17.280
 1514BOLB   GL136315  16.510  25.790  17.310
 1514BOLB   GL236316  16.740  25.640  17.430
 1514BOLB   C1A36317  16.420  26.190  17.260
 1514BOLB   C2A36318  16.510  26.530  17.510
 1514BOLB   C3A36319  16.760  26.850  17.590
 1514BOLB   C4A36320  17.030  27.290  17.530
 1514BOLB   C1B36321  16.800  26.100  17.570
 1514BOLB   C2B36322  16.950  26.390  17.890
 1514BOLB   C3B36323  17.420  26.570  17.870
 1514BOLB   C4B36324  17.870  26.470  17.540
 1514BOLB   NC236325  18.480  28.980  19.160
 1514BOLB   PO236326  18.160  28.780  19.130
 1514BOLB   GL336327  17.770  28.790  18.760
 1514BOLB   GL436328  17.630  29.010  18.650
 1514BOLB   C1C36329  17.510  28.510  18.550
 1514BOLB   C2C36330  17.530  28.230  18.170
 1514BOLB   C3C36331  17.550  27.840  18.000
 1514BOLB   C4C36332  17.310  27.670  17.730
 1514BOLB   C1D36333  17.130  28.990  18.470
 1514BOLB   C2D36334  16.910  28.630  18.180
 1514BOLB   C3D36335  16.460  28.430  18.190
 1514BOLB   C4D36336  16.380  28.190  17.890
 1515BOLB   NC136337  14.420  26.660  13.260
 1515BOLB   PO136338  14.730  26.900  13.400
 1515BOLB   GL136339  14.980  27.140  13.110
 1515BOLB   GL236340  15.180  27.110  13.200
 1515BOLB   C1A36341  15.020  27.280  12.700
 1515BOLB   C2A36342  15.130  27.550  12.420
 1515BOLB   C3A36343  15.020  27.910  12.100
 1515BOLB   C4A36344  14.950  28.190  11.640
 1515BOLB   C1B36345  15.470  27.170  12.870
 1515BOLB   C2B36346  15.610  27.450  12.600
 1515BOLB   C3B36347  15.510  27.960  12.650
 1515BOLB   C4B36348  15.810  28.310  12.750
 1515BOLB   NC236349  15.180  30.590  10.520
 1515BOLB   PO236350  14.810  30.340  10.310
 1515BOLB   GL336351  14.800  29.950  10.720
 1515BOLB   GL436352  14.900  30.020  11.020
 1515BOLB   C1C36353  14.810  29.510  10.860
 1515BOLB   C2C36354  15.010  29.080  10.990
 1515BOLB   C3C36355  14.870  28.790  11.110
 1515BOLB   C4C36356  15.030  28.580  11.430
 1515BOLB   C1D36357  15.040  29.810  11.240
 1515BOLB   C2D36358  14.770  29.330  11.330
 1515BOLB   C3D36359  14.630  28.860  11.560
 1515BOLB   C4D36360  14.760  28.620  11.920
 1516BOLB   NC136361   6.440  23.340   9.750
 1516BOLB   PO136362   6.390  23.440   9.380
 1516BOLB   GL136363   6.530  23.760   9.210
 1516BOLB   GL236364   6.530  24.080   9.330
 1516BOLB   C1A36365   6.510  23.920   8.800
 1516BOLB   C2A36366   6.630  24.220   8.530
 1516BOLB   C3A36367   6.710  24.340   8.090
 1516BOLB   C4A36368   6.820  24.650   7.730
 1516BOLB   C1B36369   6.770  24.390   8.970
 1516BOLB   C2B36370   7.030  24.570   8.750
 1516BOLB   C3B36371   7.240  24.340   8.460
 1516BOLB   C4B36372   7.210  24.330   7.960
 1516BOLB   NC236373   5.730  24.330   5.450
 1516BOLB   PO236374   6.090  24.490   5.430
 1516BOLB   GL336375   6.410  24.520   5.800
 1516BOLB   GL436376   6.300  24.170   6.020
 1516BOLB   C1C36377   6.750  24.470   6.060
 1516BOLB   C2C36378   6.960  24.180   6.430
 1516BOLB   C3C36379   6.940  24.090   6.920
 1516BOLB   C4C36380   6.860  24.410   7.290
 1516BOLB   C1D36381   6.380  24.120   6.420
 1516BOLB   C2D36382   6.440  24.080   6.810
 1516BOLB   C3D36383   6.290  24.030   7.170
 1516BOLB   C4D36384   6.410  23.780   7.500
 1517BOLB   NC136385  19.150  22.320  12.920
 1517BOLB   PO136386  19.100  22.440  13.250
 1517BOLB   GL136387  19.380  22.790  13.310
 1517BOLB   GL236388  19.560  22.550  13.470
 1517BOLB   C1A36389  19.770  22.940  13.070
 1517BOLB   C2A36390  20.060  23.180  12.940
 1517BOLB   C3A36391  20.230  23.610  13.140
 1517BOLB   C4A36392  20.310  24.130  13.030
 1517BOLB   C1B36393  19.990  22.750  13.470
 1517BOLB   C2B36394  20.290  22.960  13.320
 1517BOLB   C3B36395  20.700  22.910  13.350
 1517BOLB   C4B36396  21.120  23.060  13.440
 1517BOLB   NC236397  22.210  24.870  11.980
 1517BOLB   PO236398  22.420  24.710  12.220
 1517BOLB   GL336399  22.130  24.530  12.380
 1517BOLB   GL436400  22.290  24.290  12.570
 1517BOLB   C1C36401  21.770  24.500  12.510
 1517BOLB   C2C36402  21.410  24.310  12.590
 1517BOLB   C3C36403  21.010  24.260  12.480
 1517BOLB   C4C36404  20.570  24.250  12.660
 1517BOLB   C1D36405  22.040  24.050  12.210
 1517BOLB   C2D36406  21.740  23.970  11.890
 1517BOLB   C3D36407  21.420  24.060  11.660
 1517BOLB   C4D36408  21.190  24.260  11.370
 1518BOLB   NC136409   8.170  11.140  12.830
 1518BOLB   PO136410   7.740  11.290  13.190
 1518BOLB   GL136411   7.690  10.780  12.990
 1518BOLB   GL236412   7.950  10.690  12.800
 1518BOLB   C1A36413   7.470  10.510  12.650
 1518BOLB   C2A36414   7.380  10.150  12.560
 1518BOLB   C3A36415   7.260   9.720  12.680
 1518BOLB   C4A36416   7.010   9.360  12.760
 1518BOLB   C1B36417   7.940  10.280  12.550
 1518BOLB   C2B36418   7.940   9.790  12.420
 1518BOLB   C3B36419   8.000   9.370  12.280
 1518BOLB   C4B36420   8.110   9.080  12.020
 1518BOLB   NC236421   4.920   8.300  12.810
 1518BOLB   PO236422   5.290   8.080  12.700
 1518BOLB   GL336423   5.440   8.440  12.570
 1518BOLB   GL436424   5.420   8.650  12.240
 1518BOLB   C1C36425   5.890   8.690  12.410
 1518BOLB   C2C36426   6.290   8.460  12.290
 1518BOLB   C3C36427   6.650   8.630  12.510
 1518BOLB   C4C36428   6.960   8.960  12.620
 1518BOLB   C1D36429   5.490   9.220  12.230
 1518BOLB   C2D36430   5.730   9.720  12.150
 1518BOLB   C3D36431   5.970  10.060  12.110
 1518BOLB   C4D36432   6.280  10.260  12.040
 1519BOLB   NC136433   4.490  21.870  20.860
 1519BOLB   PO136434   4.890  21.910  21.030
 1519BOLB   GL136435   4.850  22.120  21.380
 1519BOLB   GL236436   4.840  22.450  21.650
 1519BOLB   C1A36437   4.530  21.970  21.750
 1519BOLB   C2A36438   4.320  22.060  22.140
 1519BOLB   C3A36439   4.150  22.290  22.380
 1519BOLB   C4A36440   4.220  22.580  22.730
 1519BOLB   C1B36441   4.410  22.430  21.730
 1519BOLB   C2B36442   3.980  22.490  21.910
 1519BOLB   C3B36443   3.650  22.360  22.170
 1519BOLB   C4B36444   3.230  22.450  22.370
 1519BOLB   NC236445   2.780  23.130  24.590
 1519BOLB   PO236446   2.540  22.810  24.320
 1519BOLB   GL336447   2.970  22.880  24.170
 1519BOLB   GL436448   2.860  22.850  23.820
 1519BOLB   C1C36449   3.430  22.760  23.980
 1519BOLB   C2C36450   3.770  22.760  23.670
 1519BOLB   C3C36451   4.020  22.680  23.360
 1519BOLB   C4C36452   4.380  22.580  23.100
 1519BOLB   C1D36453   3.070  22.810  23.460
 1519BOLB   C2D36454   3.400  22.780  23.340
 1519BOLB   C3D36455   3.720  22.650  22.970
 1519BOLB   C4D36456   3.670  22.380  22.670
 1520BOLB   NC136457  14.510  12.630  10.220
 1520BOLB   PO136458  14.930  12.630  10.220
 1520BOLB   GL136459  15.010  12.170  10.270
 1520BOLB   GL236460  14.840  12.080  10.500
 1520BOLB   C1A36461  14.960  11.660  10.210
 1520BOLB   C2A36462  15.310  11.350  10.210
 1520BOLB   C3A36463  15.580  11.020  10.150
 1520BOLB   C4A36464  15.710  10.560  10.160
 1520BOLB   C1B36465  15.250  11.940  10.600
 1520BOLB   C2B36466  15.480  11.740  10.400
 1520BOLB   C3B36467  15.820  11.480  10.190
 1520BOLB   C4B36468  16.100  11.680   9.860
 1520BOLB   NC236469  17.810   9.670   8.780
 1520BOLB   PO236470  17.320   9.610   8.820
 1520BOLB   GL336471  17.190   9.970   8.950
 1520BOLB   GL436472  17.400  10.160   8.860
 1520BOLB   C1C36473  16.950  10.250   9.140
 1520BOLB   C2C36474  16.670  10.170   9.440
 1520BOLB   C3C36475  16.280  10.290   9.630
 1520BOLB   C4C36476  15.830  10.370   9.780
 1520BOLB   C1D36477  17.290  10.520   8.810
 1520BOLB   C2D36478  17.150  10.840   9.110
 1520BOLB   C3D36479  17.300  11.260   9.050
 1520BOLB   C4D36480  17.720  11.340   8.980
 1521BOLB   NC136481  13.550  17.200   7.210
 1521BOLB   PO136482  13.450  17.120   6.790
 1521BOLB   GL136483  13.620  17.220   6.380
 1521BOLB   GL236484  13.480  17.150   6.120
 1521BOLB   C1A36485  13.970  17.320   6.000
 1521BOLB   C2A36486  14.010  17.490   5.590
 1521BOLB   C3A36487  13.970  17.760   5.200
 1521BOLB   C4A36488  14.080  18.010   4.740
 1521BOLB   C1B36489  13.690  17.050   5.700
 1521BOLB   C2B36490  13.800  17.170   5.260
 1521BOLB   C3B36491  14.060  17.320   5.030
 1521BOLB   C4B36492  14.360  17.620   4.760
 1521BOLB   NC236493  13.750  18.930   2.010
 1521BOLB   PO236494  13.700  18.930   2.340
 1521BOLB   GL336495  13.590  18.870   2.770
 1521BOLB   GL436496  13.330  18.890   2.890
 1521BOLB   C1C36497  13.680  18.880   3.230
 1521BOLB   C2C36498  13.820  18.850   3.640
 1521BOLB   C3C36499  13.990  18.670   4.030
 1521BOLB   C4C36500  13.970  18.470   4.470
 1521BOLB   C1D36501  13.180  18.750   3.340
 1521BOLB   C2D36502  13.360  18.900   3.720
 1521BOLB   C3D36503  13.520  18.670   4.060
 1521BOLB   C4D36504  13.360  18.510   4.450
 1522BOLB   NC136505  15.590  20.180   8.590
 1522BOLB   PO136506  15.780  20.190   8.280
 1522BOLB   GL136507  15.990  20.440   7.900
 1522BOLB   GL236508  15.990  20.680   7.630
 1522BOLB   C1A36509  16.300  20.360   7.460
 1522BOLB   C2A36510  16.520  20.050   7.100
 1522BOLB   C3A36511  16.530  19.720   6.840
 1522BOLB   C4A36512  16.550  19.930   6.490
 1522BOLB   C1B36513  16.030  20.730   7.180
 1522BOLB   C2B36514  16.170  21.110   7.010
 1522BOLB   C3B36515  16.260  21.200   6.660
 1522BOLB   C4B36516  16.260  21.200   6.060
 1522BOLB   NC236517  17.990  19.150   4.180
 1522BOLB   PO236518  18.020  19.580   4.350
 1522BOLB   GL336519  17.910  19.690   4.860
 1522BOLB   GL436520  18.150  19.610   5.040
 1522BOLB   C1C36521  17.490  19.760   5.100
 1522BOLB   C2C36522  17.160  19.870   5.420
 1522BOLB   C3C36523  17.080  20.080   5.720
 1522BOLB   C4C36524  16.640  20.150   6.100
 1522BOLB   C1D36525  17.810  19.500   5.410
 1522BOLB   C2D36526  17.560  19.580   5.780
 1522BOLB   C3D36527  17.230  19.650   6.090
 1522BOLB   C4D36528  17.060  20.030   6.290
 1523BOLB   NC136529  13.140  27.790  16.480
 1523BOLB   PO136530  13.510  27.610  16.600
 1523BOLB   GL136531  13.850  27.720  16.600
 1523BOLB   GL236532  13.900  27.940  16.390
 1523BOLB   C1A36533  14.170  27.940  16.860
 1523BOLB   C2A36534  14.580  28.220  16.790
 1523BOLB   C3A36535  14.760  28.450  17.100
 1523BOLB   C4A36536  14.910  28.730  17.390
 1523BOLB   C1B36537  14.040  28.300  16.500
 1523BOLB   C2B36538  14.120  28.720  16.580
 1523BOLB   C3B36539  14.450  28.910  16.640
 1523BOLB   C4B36540  14.610  29.290  16.750
 1523BOLB   NC236541  16.740  30.170  18.480
 1523BOLB   PO236542  16.340  29.850  18.350
 1523BOLB   GL336543  16.170  29.890  17.930
 1523BOLB   GL436544  16.300  29.850  17.640
 1523BOLB   C1C36545  15.770  29.980  17.890
 1523BOLB   C2C36546  15.620  29.630  17.840
 1523BOLB   C3C36547  15.270  29.370  17.640
 1523BOLB   C4C36548  15.110  29.010  17.480
 1523BOLB   C1D36549  16.310  29.580  17.290
 1523BOLB   C2D36550  16.060  29.420  16.920
 1523BOLB   C3D36551  15.910  29.120  16.570
 1523BOLB   C4D36552  16.030  28.760  16.620
 1524BOLB   NC136553   7.660  18.260   7.510
 1524BOLB   PO136554   7.440  18.020   7.360
 1524BOLB   GL136555   7.380  17.900   6.930
 1524BOLB   GL236556   7.660  17.800   6.800
 1524BOLB   C1A36557   7.150  17.820   6.630
 1524BOLB   C2A36558   6.960  17.630   6.300
 1524BOLB   C3A36559   6.530  17.600   6.220
 1524BOLB   C4A36560   6.250  17.370   6.060
 1524BOLB   C1B36561   7.490  17.470   6.550
 1524BOLB   C2B36562   7.400  17.070   6.300
 1524BOLB   C3B36563   7.100  16.680   6.100
 1524BOLB   C4B36564   7.130  16.440   5.890
 1524BOLB   NC236565   5.680  16.780   3.960
 1524BOLB   PO236566   5.430  17.100   4.120
 1524BOLB   GL336567   5.610  17.350   4.470
 1524BOLB   GL436568   5.880  17.560   4.390
 1524BOLB   C1C36569   5.560  17.560   4.790
 1524BOLB   C2C36570   5.540  17.590   5.120
 1524BOLB   C3C36571   5.720  17.650   5.520
 1524BOLB   C4C36572   5.860  17.470   5.970
 1524BOLB   C1D36573   6.030  17.440   4.760
 1524BOLB   C2D36574   6.010  17.510   5.090
 1524BOLB   C3D36575   6.240  17.560   5.480
 1524BOLB   C4D36576   6.640  17.500   5.750
 1525BOLB   NC136577   1.920  18.010  16.260
 1525BOLB   PO136578   2.050  18.340  16.470
 1525BOLB   GL136579   1.610  18.260  16.540
 1525BOLB   GL236580   1.480  18.300  16.830
 1525BOLB   C1A36581   1.230  18.360  16.300
 1525BOLB   C2A36582   0.900  18.610  16.230
 1525BOLB   C3A36583   0.560  18.580  16.510
 1525BOLB   C4A36584   0.070  18.510  16.710
 1525BOLB   C1B36585   1.210  18.070  17.120
 1525BOLB   C2B36586   0.810  18.000  17.350
 1525BOLB   C3B36587   0.400  18.150  17.560
 1525BOLB   C4B36588   0.210  18.370  17.850
 1525BOLB   NC236589  34.620  18.200  18.060
 1525BOLB   PO236590  34.320  18.180  17.700
 1525BOLB   GL336591  34.590  18.320  17.530
 1525BOLB   GL436592  34.600  18.320  17.200
 1525BOLB   C1C36593  34.940  18.590  17.430
 1525BOLB   C2C36594  35.330  18.680  17.220
 1525BOLB   C3C36595  35.760  18.680  17.040
 1525BOLB   C4C36596  36.180  18.640  16.970
 1525BOLB   C1D36597  34.970  18.500  16.900
 1525BOLB   C2D36598  35.370  18.720  16.670
 1525BOLB   C3D36599  35.720  19.060  16.570
 1525BOLB   C4D36600  35.990  18.980  16.110
 1526BOLB   NC136601   4.420  23.500  11.620
 1526BOLB   PO136602   4.480  23.680  11.290
 1526BOLB   GL136603   4.520  23.700  10.860
 1526BOLB   GL236604   4.450  23.580  10.580
 1526BOLB   C1A36605   4.300  24.040  10.580
 1526BOLB   C2A36606   4.390  24.120  10.130
 1526BOLB   C3A36607   4.240  24.320   9.730
 1526BOLB   C4A36608   4.040  24.280   9.390
 1526BOLB   C1B36609   4.110  23.740  10.250
 1526BOLB   C2B36610   3.880  24.040   9.920
 1526BOLB   C3B36611   3.630  24.350   9.930
 1526BOLB   C4B36612   3.750  24.850   9.910
 1526BOLB   NC236613   2.830  25.310   7.510
 1526BOLB   PO236614   3.150  24.940   7.440
 1526BOLB   GL336615   2.990  24.920   7.830
 1526BOLB   GL436616   3.010  25.160   8.050
 1526BOLB   C1C36617   2.980  24.550   8.180
 1526BOLB   C2C36618   3.050  24.520   8.700
 1526BOLB   C3C36619   3.460  24.510   8.900
 1526BOLB   C4C36620   3.910  24.430   9.030
 1526BOLB   C1D36621   3.140  24.960   8.450
 1526BOLB   C2D36622   3.370  25.000   8.890
 1526BOLB   C3D36623   3.720  24.930   9.110
 1526BOLB   C4D36624   3.960  24.760   9.420
 1527BOLB   NC136625  17.480  18.240   9.760
 1527BOLB   PO136626  17.940  18.080   9.740
 1527BOLB   GL136627  18.260  18.000   9.490
 1527BOLB   GL236628  18.490  17.770   9.500
 1527BOLB   C1A36629  18.410  17.950   9.020
 1527BOLB   C2A36630  18.560  17.580   8.820
 1527BOLB   C3A36631  18.810  17.650   8.480
 1527BOLB   C4A36632  18.740  17.270   8.150
 1527BOLB   C1B36633  18.760  17.380   9.220
 1527BOLB   C2B36634  18.970  17.320   8.830
 1527BOLB   C3B36635  19.250  17.330   8.340
 1527BOLB   C4B36636  19.600  17.210   8.140
 1527BOLB   NC236637  20.610  16.950   6.540
 1527BOLB   PO236638  20.590  16.460   6.560
 1527BOLB   GL336639  20.300  16.610   6.810
 1527BOLB   GL436640  20.220  16.930   6.900
 1527BOLB   C1C36641  19.840  16.540   6.900
 1527BOLB   C2C36642  19.530  16.730   7.160
 1527BOLB   C3C36643  19.270  17.010   7.410
 1527BOLB   C4C36644  19.190  17.110   7.860
 1527BOLB   C1D36645  19.890  17.050   7.020
 1527BOLB   C2D36646  19.740  17.160   7.430
 1527BOLB   C3D36647  19.520  17.410   7.700
 1527BOLB   C4D36648  19.210  17.620   7.810
 1528BOLB   NC136649   7.460  27.160  15.610
 1528BOLB   PO136650   7.840  27.390  15.790
 1528BOLB   GL136651   7.860  27.790  15.980
 1528BOLB   GL236652   8.070  27.910  16.130
 1528BOLB   C1A36653   7.710  28.180  15.860
 1528BOLB   C2A36654   7.660  28.650  16.000
 1528BOLB   C3A36655   7.380  29.000  16.220
 1528BOLB   C4A36656   7.220  29.280  16.500
 1528BOLB   C1B36657   7.540  27.980  16.290
 1528BOLB   C2B36658   7.270  28.330  16.120
 1528BOLB   C3B36659   7.090  28.720  15.980
 1528BOLB   C4B36660   6.850  29.150  16.180
 1528BOLB   NC236661   5.740  31.110  15.400
 1528BOLB   PO236662   6.120  31.190  15.540
 1528BOLB   GL336663   6.370  30.880  15.720
 1528BOLB   GL436664   6.640  30.910  15.710
 1528BOLB   C1C36665   6.440  30.470  15.710
 1528BOLB   C2C36666   6.440  30.090  16.050
 1528BOLB   C3C36667   6.670  29.970  16.310
 1528BOLB   C4C36668   7.070  29.800  16.380
 1528BOLB   C1D36669   6.850  30.670  15.580
 1528BOLB   C2D36670   7.200  30.380  15.660
 1528BOLB   C3D36671   7.330  30.010  15.910
 1528BOLB   C4D36672   6.930  29.820  15.920
 1529BOLB   NC136673   2.720  18.860  10.700
 1529BOLB   PO136674   3.050  18.630  10.500
 1529BOLB   GL136675   2.850  18.570  10.110
 1529BOLB   GL236676   2.590  18.750  10.190
 1529BOLB   C1A36677   2.600  18.450   9.840
 1529BOLB   C2A36678   2.490  18.470   9.290
 1529BOLB   C3A36679   2.220  18.520   8.970
 1529BOLB   C4A36680   2.130  18.430   8.670
 1529BOLB   C1B36681   2.120  18.690   9.970
 1529BOLB   C2B36682   1.830  18.380  10.010
 1529BOLB   C3B36683   1.420  18.450  10.060
 1529BOLB   C4B36684   1.010  18.570  10.020
 1529BOLB   NC236685  36.080  17.680   7.520
 1529BOLB   PO236686   0.050  18.040   7.600
 1529BOLB   GL336687   0.380  18.010   7.840
 1529BOLB   GL436688   0.500  17.850   8.030
 1529BOLB   C1C36689   0.740  18.200   7.830
 1529BOLB   C2C36690   1.160  18.430   7.860
 1529BOLB   C3C36691   1.520  18.550   8.040
 1529BOLB   C4C36692   1.830  18.630   8.290
 1529BOLB   C1D36693   0.940  17.740   8.170
 1529BOLB   C2D36694   1.180  17.960   7.930
 1529BOLB   C3D36695   1.530  18.090   8.110
 1529BOLB   C4D36696   1.970  18.090   8.090
 1530BOLB   NC136697   6.870  24.660  11.010
 1530BOLB   PO136698   6.760  24.760  10.650
 1530BOLB   GL136699   6.580  24.840  10.280
 1530BOLB   GL236700   6.300  24.890  10.290
 1530BOLB   C1A36701   6.630  25.200   9.940
 1530BOLB   C2A36702   6.440  25.600   9.820
 1530BOLB   C3A36703   6.320  25.860   9.410
 1530BOLB   C4A36704   6.430  26.010   8.990
 1530BOLB   C1B36705   5.930  25.170  10.110
 1530BOLB   C2B36706   5.710  25.400   9.980
 1530BOLB   C3B36707   5.440  25.710   9.900
 1530BOLB   C4B36708   5.340  26.100   9.810
 1530BOLB   NC236709   5.420  27.060   7.610
 1530BOLB   PO236710   5.660  27.470   7.440
 1530BOLB   GL336711   5.920  27.230   7.790
 1530BOLB   GL436712   5.970  27.330   8.140
 1530BOLB   C1C36713   5.890  26.850   7.970
 1530BOLB   C2C36714   5.950  26.380   7.980
 1530BOLB   C3C36715   6.150  26.010   8.130
 1530BOLB   C4C36716   6.540  26.030   8.490
 1530BOLB   C1D36717   6.370  27.120   8.160
 1530BOLB   C2D36718   6.690  26.790   8.420
 1530BOLB   C3D36719   6.760  26.430   8.750
 1530BOLB   C4D36720   6.900  26.260   9.120
 1531BOLB   NC136721  11.950  10.700  13.160
 1531BOLB   PO136722  11.890  10.800  13.600
 1531BOLB   GL136723  11.980  10.350  13.550
 1531BOLB   GL236724  11.740  10.160  13.230
 1531BOLB   C1A36725  12.060   9.870  13.500
 1531BOLB   C2A36726  12.290   9.440  13.460
 1531BOLB   C3A36727  12.590   9.100  13.400
 1531BOLB   C4A36728  12.830   8.880  13.600
 1531BOLB   C1B36729  11.830   9.620  13.170
 1531BOLB   C2B36730  11.900   9.190  13.030
 1531BOLB   C3B36731  11.740   8.770  12.810
 1531BOLB   C4B36732  11.460   8.430  12.750
 1531BOLB   NC236733  14.550   7.600  12.120
 1531BOLB   PO236734  14.190   7.560  12.080
 1531BOLB   GL336735  14.270   7.790  12.470
 1531BOLB   GL436736  14.550   8.050  12.500
 1531BOLB   C1C36737  14.010   8.030  12.580
 1531BOLB   C2C36738  13.740   8.310  12.820
 1531BOLB   C3C36739  13.480   8.520  13.130
 1531BOLB   C4C36740  13.110   8.590  13.490
 1531BOLB   C1D36741  14.540   8.440  12.280
 1531BOLB   C2D36742  14.280   8.640  12.000
 1531BOLB   C3D36743  14.350   8.910  11.690
 1531BOLB   C4D36744  14.390   9.070  11.300
 1532BOLB   NC136745  13.040  15.080   7.580
 1532BOLB   PO136746  12.870  14.630   7.750
 1532BOLB   GL136747  12.990  14.570   7.370
 1532BOLB   GL236748  13.100  14.760   7.220
 1532BOLB   C1A36749  12.880  14.410   6.920
 1532BOLB   C2A36750  13.060  14.190   6.620
 1532BOLB   C3A36751  13.120  13.820   6.410
 1532BOLB   C4A36752  13.390  13.590   6.250
 1532BOLB   C1B36753  13.340  14.620   6.840
 1532BOLB   C2B36754  13.720  14.390   6.790
 1532BOLB   C3B36755  14.070  14.210   6.840
 1532BOLB   C4B36756  14.370  13.830   6.810
 1532BOLB   NC236757  12.960  11.500   4.680
 1532BOLB   PO236758  13.180  11.850   4.880
 1532BOLB   GL336759  13.450  11.860   5.270
 1532BOLB   GL436760  13.230  11.820   5.470
 1532BOLB   C1C36761  13.600  12.150   5.470
 1532BOLB   C2C36762  13.710  12.350   5.860
 1532BOLB   C3C36763  13.610  12.730   6.080
 1532BOLB   C4C36764  13.520  13.160   6.320
 1532BOLB   C1D36765  13.240  12.090   5.780
 1532BOLB   C2D36766  13.220  12.320   6.080
 1532BOLB   C3D36767  13.000  12.360   6.400
 1532BOLB   C4D36768  12.620  12.350   6.620
 1533BOLB   NC136769  15.170  16.000   8.140
 1533BOLB   PO136770  14.920  15.800   7.860
 1533BOLB   GL136771  14.930  15.970   7.560
 1533BOLB   GL236772  14.800  15.710   7.340
 1533BOLB   C1A36773  15.140  16.020   7.150
 1533BOLB   C2A36774  15.330  16.030   6.730
 1533BOLB   C3A36775  15.510  16.000   6.350
 1533BOLB   C4A36776  15.520  15.880   5.970
 1533BOLB   C1B36777  14.630  15.780   6.930
 1533BOLB   C2B36778  14.910  15.900   6.520
 1533BOLB   C3B36779  15.040  15.710   6.260
 1533BOLB   C4B36780  15.100  15.450   5.810
 1533BOLB   NC236781  15.520  14.290   3.830
 1533BOLB   PO236782  15.840  14.650   3.950
 1533BOLB   GL336783  15.840  14.720   4.350
 1533BOLB   GL436784  15.990  14.440   4.420
 1533BOLB   C1C36785  15.600  14.760   4.720
 1533BOLB   C2C36786  15.650  14.890   5.050
 1533BOLB   C3C36787  15.580  15.240   5.450
 1533BOLB   C4C36788  15.530  15.620   5.570
 1533BOLB   C1D36789  15.720  14.300   4.760
 1533BOLB   C2D36790  15.720  14.420   5.150
 1533BOLB   C3D36791  15.390  14.510   5.380
 1533BOLB   C4D36792  15.080  14.440   5.750
 1534BOLB   NC136793   3.690  22.990  10.800
 1534BOLB   PO136794   3.700  23.180  11.210
 1534BOLB   GL136795   3.660  23.550  10.850
 1534BOLB   GL236796   3.790  23.540  10.590
 1534BOLB   C1A36797   3.460  24.000  10.640
 1534BOLB   C2A36798   3.250  24.310  10.350
 1534BOLB   C3A36799   3.170  24.750  10.220
 1534BOLB   C4A36800   3.110  25.050   9.940
 1534BOLB   C1B36801   3.460  23.680  10.220
 1534BOLB   C2B36802   3.270  23.950   9.880
 1534BOLB   C3B36803   3.050  24.260   9.480
 1534BOLB   C4B36804   3.180  24.140   9.030
 1534BOLB   NC236805   0.600  25.210   8.720
 1534BOLB   PO236806   1.070  25.330   8.750
 1534BOLB   GL336807   1.460  25.370   8.950
 1534BOLB   GL436808   1.730  25.180   8.880
 1534BOLB   C1C36809   1.680  25.340   9.370
 1534BOLB   C2C36810   2.050  25.300   9.640
 1534BOLB   C3C36811   2.410  25.260   9.760
 1534BOLB   C4C36812   2.870  25.230   9.680
 1534BOLB   C1D36813   1.900  24.890   9.180
 1534BOLB   C2D36814   2.200  24.770   9.530
 1534BOLB   C3D36815   2.290  24.770   9.860
 1534BOLB   C4D36816   2.210  24.800  10.240
 1535BOLB   NC136817  18.090  14.150  15.280
 1535BOLB   PO136818  17.780  13.920  15.090
 1535BOLB   GL136819  18.170  13.680  15.010
 1535BOLB   GL236820  18.430  13.680  14.810
 1535BOLB   C1A36821  18.300  13.200  15.110
 1535BOLB   C2A36822  18.330  12.790  15.070
 1535BOLB   C3A36823  18.540  12.350  15.040
 1535BOLB   C4A36824  18.970  12.290  14.820
 1535BOLB   C1B36825  18.830  13.570  14.850
 1535BOLB   C2B36826  19.090  13.320  14.800
 1535BOLB   C3B36827  19.520  13.380  14.610
 1535BOLB   C4B36828  19.950  13.400  14.430
 1535BOLB   NC236829  20.610  10.210  13.890
 1535BOLB   PO236830  20.720  10.630  14.190
 1535BOLB   GL336831  20.460  11.000  14.270
 1535BOLB   GL436832  20.490  11.360  14.090
 1535BOLB   C1C36833  20.140  11.140  14.580
 1535BOLB   C2C36834  19.930  11.620  14.680
 1535BOLB   C3C36835  19.690  11.860  14.730
 1535BOLB   C4C36836  19.340  12.140  14.760
 1535BOLB   C1D36837  20.080  11.460  14.110
 1535BOLB   C2D36838  19.680  11.590  14.190
 1535BOLB   C3D36839  19.360  11.760  14.370
 1535BOLB   C4D36840  19.050  11.760  14.710
 1536BOLB   NC136841  10.890  19.560   6.660
 1536BOLB   PO136842  11.270  19.280   6.760
 1536BOLB   GL136843  11.440  19.420   6.390
 1536BOLB   GL236844  11.250  19.590   6.380
 1536BOLB   C1A36845  11.530  19.280   5.990
 1536BOLB   C2A36846  11.660  19.510   5.560
 1536BOLB   C3A36847  11.580  19.900   5.200
 1536BOLB   C4A36848  11.240  20.030   4.920
 1536BOLB   C1B36849  11.090  19.560   6.000
 1536BOLB   C2B36850  11.030  19.280   5.760
 1536BOLB   C3B36851  11.140  19.210   5.360
 1536BOLB   C4B36852  11.350  19.460   4.950
 1536BOLB   NC236853  12.300  19.650   2.470
 1536BOLB   PO236854  11.870  19.870   2.590
 1536BOLB   GL336855  11.630  19.760   2.990
 1536BOLB   GL436856  11.860  19.430   2.840
 1536BOLB   C1C36857  11.240  19.880   3.320
 1536BOLB   C2C36858  11.100  20.050   3.610
 1536BOLB   C3C36859  10.960  20.100   4.110
 1536BOLB   C4C36860  11.220  20.190   4.470
 1536BOLB   C1D36861  11.740  19.220   3.220
 1536BOLB   C2D36862  11.640  18.780   3.500
 1536BOLB   C3D36863  11.980  18.910   3.830
 1536BOLB   C4D36864  12.420  18.910   3.880
 1537BOLB   NC136865  13.880  13.450   8.780
 1537BOLB   PO136866  13.660  13.240   9.050
 1537BOLB   GL136867  13.670  13.040   8.580
 1537BOLB   GL236868  13.420  13.050   8.470
 1537BOLB   C1A36869  13.910  12.820   8.270
 1537BOLB   C2A36870  14.050  12.490   7.970
 1537BOLB   C3A36871  14.390  12.250   7.990
 1537BOLB   C4A36872  14.520  11.950   8.060
 1537BOLB   C1B36873  13.430  12.630   8.390
 1537BOLB   C2B36874  13.430  12.220   8.190
 1537BOLB   C3B36875  13.600  11.900   7.930
 1537BOLB   C4B36876  13.790  11.500   8.130
 1537BOLB   NC236877  14.240  10.220   6.470
 1537BOLB   PO236878  14.580  10.060   6.630
 1537BOLB   GL336879  14.410  10.530   6.870
 1537BOLB   GL436880  14.420  10.840   6.760
 1537BOLB   C1C36881  14.580  10.660   7.350
 1537BOLB   C2C36882  14.800  10.890   7.610
 1537BOLB   C3C36883  14.740  11.210   7.900
 1537BOLB   C4C36884  14.660  11.620   7.820
 1537BOLB   C1D36885  14.280  11.070   7.080
 1537BOLB   C2D36886  14.230  11.020   7.530
 1537BOLB   C3D36887  14.250  11.380   7.890
 1537BOLB   C4D36888  14.140  11.850   7.770
 1538BOLB   NC136889   5.270  26.200  12.890
 1538BOLB   PO136890   4.850  26.000  12.790
 1538BOLB   GL136891   4.760  26.380  12.720
 1538BOLB   GL236892   4.990  26.590  12.930
 1538BOLB   C1A36893   4.590  26.670  12.440
 1538BOLB   C2A36894   4.600  26.900  12.150
 1538BOLB   C3A36895   4.820  27.210  11.920
 1538BOLB   C4A36896   5.170  27.260  11.600
 1538BOLB   C1B36897   4.850  27.040  12.740
 1538BOLB   C2B36898   5.060  26.920  12.350
 1538BOLB   C3B36899   5.370  27.030  12.040
 1538BOLB   C4B36900   5.650  27.340  11.880
 1538BOLB   NC236901   4.490  28.640  10.070
 1538BOLB   PO236902   4.160  28.520   9.890
 1538BOLB   GL336903   4.240  28.270  10.230
 1538BOLB   GL436904   4.030  28.130  10.530
 1538BOLB   C1C36905   4.580  27.790  10.250
 1538BOLB   C2C36906   4.950  27.590  10.350
 1538BOLB   C3C36907   5.030  27.210  10.690
 1538BOLB   C4C36908   5.240  27.410  11.140
 1538BOLB   C1D36909   3.950  27.870  10.890
 1538BOLB   C2D36910   3.920  27.670  11.230
 1538BOLB   C3D36911   4.160  27.390  11.570
 1538BOLB   C4D36912   4.650  27.390  11.510
 1539BOLB   NC136913  18.030  23.410  12.560
 1539BOLB   PO136914  18.260  23.120  12.300
 1539BOLB   GL136915  18.430  23.360  12.100
 1539BOLB   GL236916  18.710  23.200  12.050
 1539BOLB   C1A36917  18.590  23.670  11.930
 1539BOLB   C2A36918  18.990  23.950  11.920
 1539BOLB   C3A36919  19.380  23.890  11.940
 1539BOLB   C4A36920  19.600  24.190  11.680
 1539BOLB   C1B36921  19.070  23.400  11.820
 1539BOLB   C2B36922  19.280  23.620  11.510
 1539BOLB   C3B36923  19.700  23.680  11.530
 1539BOLB   C4B36924  20.120  23.510  11.700
 1539BOLB   NC236925  20.920  25.740  10.720
 1539BOLB   PO236926  20.620  25.850  10.400
 1539BOLB   GL336927  20.360  25.710  10.650
 1539BOLB   GL436928  20.340  26.020  10.780
 1539BOLB   C1C36929  20.100  25.740  11.080
 1539BOLB   C2C36930  19.850  25.430  11.250
 1539BOLB   C3C36931  19.590  25.010  11.410
 1539BOLB   C4C36932  19.700  24.640  11.570
 1539BOLB   C1D36933  19.870  25.950  10.750
 1539BOLB   C2D36934  19.490  25.730  10.980
 1539BOLB   C3D36935  19.350  25.320  11.150
 1539BOLB   C4D36936  19.060  25.030  11.350
 1540BOLB   NC136937  13.570  14.000   8.210
 1540BOLB   PO136938  13.590  13.600   8.380
 1540BOLB   GL136939  13.840  13.420   8.200
 1540BOLB   GL236940  14.130  13.420   8.250
 1540BOLB   C1A36941  13.750  13.050   7.870
 1540BOLB   C2A36942  13.680  12.870   7.590
 1540BOLB   C3A36943  13.690  12.610   7.200
 1540BOLB   C4A36944  13.340  12.520   7.000
 1540BOLB   C1B36945  14.250  13.100   8.080
 1540BOLB   C2B36946  14.560  12.720   8.060
 1540BOLB   C3B36947  14.810  12.300   8.260
 1540BOLB   C4B36948  14.980  11.990   8.100
 1540BOLB   NC236949  12.630  13.360   8.550
 1540BOLB   PO236950  12.340  13.100   8.670
 1540BOLB   GL336951  12.390  12.920   8.300
 1540BOLB   GL436952  12.270  13.220   8.150
 1540BOLB   C1C36953  12.430  12.770   7.880
 1540BOLB   C2C36954  12.580  12.680   7.480
 1540BOLB   C3C36955  12.580  12.650   7.030
 1540BOLB   C4C36956  12.950  12.560   6.900
 1540BOLB   C1D36957  12.000  13.040   7.880
 1540BOLB   C2D36958  12.010  12.710   7.480
 1540BOLB   C3D36959  11.650  12.640   7.250
 1540BOLB   C4D36960  11.220  12.460   7.290
 1541BOLB   NC136961   8.100  18.010   8.100
 1541BOLB   PO136962   8.080  18.040   7.650
 1541BOLB   GL136963   8.120  17.980   7.180
 1541BOLB   GL236964   7.850  18.220   7.050
 1541BOLB   C1A36965   8.150  17.850   6.660
 1541BOLB   C2A36966   8.100  17.690   6.360
 1541BOLB   C3A36967   7.900  17.370   6.030
 1541BOLB   C4A36968   7.630  17.110   5.740
 1541BOLB   C1B36969   8.100  18.340   6.600
 1541BOLB   C2B36970   8.190  18.480   6.160
 1541BOLB   C3B36971   8.250  18.640   5.790
 1541BOLB   C4B36972   8.270  18.740   5.300
 1541BOLB   NC236973   6.440  17.260   3.740
 1541BOLB   PO236974   6.100  16.920   3.610
 1541BOLB   GL336975   6.250  16.720   4.090
 1541BOLB   GL436976   6.200  16.950   4.390
 1541BOLB   C1C36977   6.570  16.670   4.470
 1541BOLB   C2C36978   6.700  16.740   4.870
 1541BOLB   C3C36979   6.840  16.910   5.310
 1541BOLB   C4C36980   7.310  16.850   5.570
 1541BOLB   C1D36981   6.330  17.040   4.720
 1541BOLB   C2D36982   6.210  17.080   5.140
 1541BOLB   C3D36983   6.250  17.100   5.590
 1541BOLB   C4D36984   6.710  16.950   5.770
 1542BOLB   NC136985  10.320  17.220   6.760
 1542BOLB   PO136986  10.640  17.370   6.700
 1542BOLB   GL136987  10.480  17.340   6.220
 1542BOLB   GL236988  10.110  17.350   6.210
 1542BOLB   C1A36989  10.560  17.360   5.840
 1542BOLB   C2A36990  10.730  17.650   5.470
 1542BOLB   C3A36991  10.700  17.680   5.090
 1542BOLB   C4A36992  10.620  17.540   4.710
 1542BOLB   C1B36993  10.040  17.470   5.840
 1542BOLB   C2B36994   9.770  17.640   5.530
 1542BOLB   C3B36995   9.440  17.430   5.250
 1542BOLB   C4B36996   9.050  17.460   5.240
 1542BOLB   NC236997  11.300  17.930   2.790
 1542BOLB   PO236998  11.180  18.080   2.470
 1542BOLB   GL336999  11.100  18.400   2.920
 1542BOLB   GL437000  11.270  18.340   3.180
 1542BOLB   C1C37001  10.800  18.470   3.320
 1542BOLB   C2C37002  10.470  18.220   3.510
 1542BOLB   C3C37003  10.350  18.090   3.890
 1542BOLB   C4C37004  10.450  17.880   4.340
 1542BOLB   C1D37005  11.230  18.550   3.500
 1542BOLB   C2D37006  11.380  18.680   3.920
 1542BOLB   C3D37007  11.590  18.740   4.290
 1542BOLB   C4D37008  11.530  18.810   4.800
 1543BOLB   NC137009  15.560  25.000  11.910
 1543BOLB   PO137010  15.740  25.120  11.380
 1543BOLB   GL137011  16.020  25.370  11.330
 1543BOLB   GL237012  16.070  25.400  11.050
 1543BOLB   C1A37013  15.970  25.770  11.520
 1543BOLB   C2A37014  16.170  26.100  11.320
 1543BOLB   C3A37015  16.320  26.490  11.250
 1543BOLB   C4A37016  16.500  26.890  11.080
 1543BOLB   C1B37017  16.240  25.790  10.890
 1543BOLB   C2B37018  16.420  26.020  10.480
 1543BOLB   C3B37019  16.760  26.230  10.390
 1543BOLB   C4B37020  17.190  26.270  10.200
 1543BOLB   NC237021  18.540  28.400  10.260
 1543BOLB   PO237022  18.220  28.240  10.070
 1543BOLB   GL337023  18.110  27.950  10.320
 1543BOLB   GL437024  17.990  27.680  10.100
 1543BOLB   C1C37025  17.890  27.680  10.580
 1543BOLB   C2C37026  17.460  27.700  10.680
 1543BOLB   C3C37027  17.110  27.600  10.840
 1543BOLB   C4C37028  16.790  27.250  10.960
 1543BOLB   C1D37029  17.720  27.360  10.270
 1543BOLB   C2D37030  17.590  27.140  10.680
 1543BOLB   C3D37031  17.260  26.880  10.840
 1543BOLB   C4D37032  16.970  26.710  11.120
 1544BOLB   NC137033  16.930  16.490   8.750
 1544BOLB   PO137034  16.720  16.470   8.480
 1544BOLB   GL137035  16.970  16.440   8.020
 1544BOLB   GL237036  16.690  16.700   7.840
 1544BOLB   C1A37037  17.080  16.270   7.650
 1544BOLB   C2A37038  17.310  16.240   7.300
 1544BOLB   C3A37039  17.230  16.020   6.990
 1544BOLB   C4A37040  17.140  15.620   6.890
 1544BOLB   C1B37041  17.120  16.790   7.580
 1544BOLB   C2B37042  17.270  17.170   7.390
 1544BOLB   C3B37043  17.100  17.320   7.120
 1544BOLB   C4B37044  16.750  17.650   6.950
 1544BOLB   NC237045  18.060  15.670   5.170
 1544BOLB   PO237046  17.990  15.720   4.620
 1544BOLB   GL337047  17.710  15.950   4.900
 1544BOLB   GL437048  17.350  15.860   4.900
 1544BOLB   C1C37049  17.480  16.020   5.290
 1544BOLB   C2C37050  17.270  15.840   5.690
 1544BOLB   C3C37051  17.150  15.660   6.080
 1544BOLB   C4C37052  17.150  15.550   6.520
 1544BOLB   C1D37053  17.030  15.640   5.130
 1544BOLB   C2D37054  16.640  15.790   5.170
 1544BOLB   C3D37055  16.240  15.960   5.340
 1544BOLB   C4D37056  15.990  15.820   5.650
 1545BOLB   NC137057   8.970  19.340   7.600
 1545BOLB   PO137058   8.660  19.440   7.160
 1545BOLB   GL137059   8.620  19.730   6.810
 1545BOLB   GL237060   8.530  20.020   6.990
 1545BOLB   C1A37061   8.420  19.640   6.410
 1545BOLB   C2A37062   8.280  19.600   5.970
 1545BOLB   C3A37063   7.980  19.850   5.780
 1545BOLB   C4A37064   7.530  19.910   5.670
 1545BOLB   C1B37065   8.330  20.100   6.640
 1545BOLB   C2B37066   8.070  19.970   6.330
 1545BOLB   C3B37067   7.670  19.980   6.140
 1545BOLB   C4B37068   7.650  19.570   6.010
 1545BOLB   NC237069   6.780  20.190   3.410
 1545BOLB   PO237070   6.790  20.580   3.610
 1545BOLB   GL337071   6.970  20.660   4.060
 1545BOLB   GL437072   7.370  20.470   4.230
 1545BOLB   C1C37073   6.970  20.590   4.540
 1545BOLB   C2C37074   7.050  20.730   4.980
 1545BOLB   C3C37075   7.310  20.650   5.300
 1545BOLB   C4C37076   7.420  20.210   5.370
 1545BOLB   C1D37077   7.330  20.270   4.630
 1545BOLB   C2D37078   7.470  20.030   4.930
 1545BOLB   C3D37079   7.750  19.730   5.260
 1545BOLB   C4D37080   7.670  19.420   5.510
 1546BOLB   NC137081  13.800  16.330   7.210
 1546BOLB   PO137082  13.340  16.410   6.920
 1546BOLB   GL137083  13.110  16.640   6.560
 1546BOLB   GL237084  13.460  16.720   6.460
 1546BOLB   C1A37085  12.790  16.450   6.210
 1546BOLB   C2A37086  12.850  16.180   5.940
 1546BOLB   C3A37087  12.980  16.110   5.570
 1546BOLB   C4A37088  13.350  15.970   5.420
 1546BOLB   C1B37089  13.600  16.500   6.090
 1546BOLB   C2B37090  13.660  16.430   5.570
 1546BOLB   C3B37091  13.660  16.670   5.260
 1546BOLB   C4B37092  13.360  16.920   5.190
 1546BOLB   NC237093  14.430  14.960   2.960
 1546BOLB   PO237094  14.620  15.280   3.230
 1546BOLB   GL337095  14.480  15.540   3.560
 1546BOLB   GL437096  14.760  15.400   3.800
 1546BOLB   C1C37097  14.260  15.490   3.940
 1546BOLB   C2C37098  14.100  15.700   4.340
 1546BOLB   C3C37099  13.880  15.730   4.720
 1546BOLB   C4C37100  13.720  15.680   5.170
 1546BOLB   C1D37101  14.640  15.350   4.290
 1546BOLB   C2D37102  14.290  15.170   4.490
 1546BOLB   C3D37103  13.900  14.940   4.440
 1546BOLB   C4D37104  13.740  14.650   4.200
 1547BOLB   NC137105  15.610  12.460  15.310
 1547BOLB   PO137106  15.910  12.210  15.150
 1547BOLB   GL137107  16.270  11.880  15.210
 1547BOLB   GL237108  16.170  11.720  15.470
 1547BOLB   C1A37109  16.780  11.720  15.330
 1547BOLB   C2A37110  16.900  11.270  15.160
 1547BOLB   C3A37111  17.080  11.020  14.780
 1547BOLB   C4A37112  17.090  10.680  14.450
 1547BOLB   C1B37113  16.460  11.620  15.730
 1547BOLB   C2B37114  16.530  11.300  16.070
 1547BOLB   C3B37115  16.600  11.020  16.510
 1547BOLB   C4B37116  16.810  10.950  16.920
 1547BOLB   NC237117  18.140   8.420  13.890
 1547BOLB   PO237118  18.260   8.770  13.730
 1547BOLB   GL337119  18.150   9.130  13.970
 1547BOLB   GL437120  18.330   9.330  13.760
 1547BOLB   C1C37121  17.940   9.540  14.120
 1547BOLB   C2C37122  17.580   9.740  14.170
 1547BOLB   C3C37123  17.300  10.060  14.200
 1547BOLB   C4C37124  17.080  10.390  14.240
 1547BOLB   C1D37125  18.160   9.690  13.530
 1547BOLB   C2D37126  17.980  10.040  13.390
 1547BOLB   C3D37127  17.790  10.400  13.240
 1547BOLB   C4D37128  17.880  10.820  13.030
 1548BOLB   NC137129  12.670  27.480  14.320
 1548BOLB   PO137130  12.460  27.820  14.270
 1548BOLB   GL137131  12.680  28.050  14.520
 1548BOLB   GL237132  12.630  28.180  14.900
 1548BOLB   C1A37133  13.070  28.380  14.590
 1548BOLB   C2A37134  13.000  28.760  14.360
 1548BOLB   C3A37135  13.250  28.790  13.950
 1548BOLB   C4A37136  13.390  29.220  13.800
 1548BOLB   C1B37137  12.710  28.640  14.800
 1548BOLB   C2B37138  12.910  28.840  14.900
 1548BOLB   C3B37139  13.030  28.970  15.320
 1548BOLB   C4B37140  13.230  29.120  15.680
 1548BOLB   NC237141  13.140  31.890  13.640
 1548BOLB   PO237142  13.490  31.710  13.940
 1548BOLB   GL337143  13.810  31.290  13.940
 1548BOLB   GL437144  13.470  31.220  14.090
 1548BOLB   C1C37145  13.840  30.890  13.760
 1548BOLB   C2C37146  13.660  30.400  13.660
 1548BOLB   C3C37147  13.470  30.010  13.690
 1548BOLB   C4C37148  13.340  29.700  13.560
 1548BOLB   C1D37149  13.530  30.760  14.100
 1548BOLB   C2D37150  13.230  30.440  14.010
 1548BOLB   C3D37151  13.110  30.020  14.100
 1548BOLB   C4D37152  13.190  29.670  14.040
 1549BOLB   NC137153  11.910  18.540   7.020
 1549BOLB   PO137154  11.810  18.610   6.620
 1549BOLB   GL137155  11.890  18.540   6.200
 1549BOLB   GL237156  11.860  18.860   6.170
 1549BOLB   C1A37157  12.020  18.630   5.770
 1549BOLB   C2A37158  12.070  18.740   5.300
 1549BOLB   C3A37159  11.900  18.490   5.000
 1549BOLB   C4A37160  11.670  18.300   4.760
 1549BOLB   C1B37161  11.530  18.780   5.910
 1549BOLB   C2B37162  11.200  18.770   5.580
 1549BOLB   C3B37163  10.870  18.510   5.380
 1549BOLB   C4B37164  10.630  18.440   4.930
 1549BOLB   NC237165  11.630  18.860   2.530
 1549BOLB   PO237166  12.060  18.720   2.590
 1549BOLB   GL337167  12.170  18.970   2.950
 1549BOLB   GL437168  12.390  19.280   2.870
 1549BOLB   C1C37169  12.180  18.750   3.350
 1549BOLB   C2C37170  11.920  18.430   3.680
 1549BOLB   C3C37171  11.800  18.340   4.080
 1549BOLB   C4C37172  11.640  18.300   4.400
 1549BOLB   C1D37173  12.650  19.570   3.080
 1549BOLB   C2D37174  12.680  19.620   3.470
 1549BOLB   C3D37175  12.730  19.440   3.930
 1549BOLB   C4D37176  12.790  19.340   4.320
 1550BOLB   NC137177  16.260  20.570   8.310
 1550BOLB   PO137178  16.170  20.870   8.080
 1550BOLB   GL137179  16.470  20.740   7.870
 1550BOLB   GL237180  16.560  20.430   7.890
 1550BOLB   C1A37181  16.570  20.800   7.520
 1550BOLB   C2A37182  16.730  20.490   7.230
 1550BOLB   C3A37183  16.850  20.360   6.780
 1550BOLB   C4A37184  16.920  20.470   6.370
 1550BOLB   C1B37185  16.910  20.390   7.690
 1550BOLB   C2B37186  17.420  20.420   7.640
 1550BOLB   C3B37187  17.890  20.380   7.430
 1550BOLB   C4B37188  18.240  20.400   7.460
 1550BOLB   NC237189  17.730  19.750   4.020
 1550BOLB   PO237190  17.420  19.980   3.890
 1550BOLB   GL337191  17.140  20.050   4.350
 1550BOLB   GL437192  16.800  19.860   4.450
 1550BOLB   C1C37193  17.270  20.130   4.770
 1550BOLB   C2C37194  17.320  20.280   5.240
 1550BOLB   C3C37195  17.260  20.570   5.580
 1550BOLB   C4C37196  17.180  20.480   6.020
 1550BOLB   C1D37197  16.580  20.050   4.650
 1550BOLB   C2D37198  16.400  19.800   4.910
 1550BOLB   C3D37199  16.120  19.790   5.150
 1550BOLB   C4D37200  15.910  19.920   5.530
 1551BOLB   NC137201  13.290  31.740  16.100
 1551BOLB   PO137202  12.790  31.750  16.230
 1551BOLB   GL137203  12.880  31.370  16.320
 1551BOLB   GL237204  13.220  31.280  16.350
 1551BOLB   C1A37205  12.840  30.980  16.290
 1551BOLB   C2A37206  12.860  30.430  16.190
 1551BOLB   C3A37207  12.950  30.070  16.140
 1551BOLB   C4A37208  12.940  29.610  15.990
 1551BOLB   C1B37209  13.360  30.950  16.130
 1551BOLB   C2B37210  13.330  30.590  16.140
 1551BOLB   C3B37211  13.200  30.320  15.750
 1551BOLB   C4B37212  12.950  30.030  15.650
 1551BOLB   NC237213  13.190  31.580  15.220
 1551BOLB   PO237214  13.570  31.710  15.310
 1551BOLB   GL337215  13.470  31.160  15.280
 1551BOLB   GL437216  13.160  31.020  15.350
 1551BOLB   C1C37217  13.560  30.640  15.030
 1551BOLB   C2C37218  13.510  30.180  15.020
 1551BOLB   C3C37219  13.290  29.820  15.250
 1551BOLB   C4C37220  13.230  29.630  15.710
 1551BOLB   C1D37221  13.150  30.570  15.310
 1551BOLB   C2D37222  12.990  30.190  15.160
 1551BOLB   C3D37223  12.800  29.910  15.050
 1551BOLB   C4D37224  12.600  29.660  14.820
 1552BOLB   NC137225   8.930  27.500  16.410
 1552BOLB   PO137226   8.610  27.690  16.190
 1552BOLB   GL137227   8.520  28.090  16.170
 1552BOLB   GL237228   8.440  28.090  15.840
 1552BOLB   C1A37229   8.570  28.400  16.430
 1552BOLB   C2A37230   8.210  28.740  16.540
 1552BOLB   C3A37231   7.860  29.120  16.480
 1552BOLB   C4A37232   7.640  29.490  16.310
 1552BOLB   C1B37233   8.140  28.420  15.950
 1552BOLB   C2B37234   8.070  28.890  16.020
 1552BOLB   C3B37235   8.040  29.350  16.120
 1552BOLB   C4B37236   8.180  29.630  16.420
 1552BOLB   NC237237   8.480  31.370  15.290
 1552BOLB   PO237238   8.160  31.190  15.440
 1552BOLB   GL337239   8.060  30.730  15.230
 1552BOLB   GL437240   8.200  30.580  14.920
 1552BOLB   C1C37241   7.820  30.310  15.170
 1552BOLB   C2C37242   7.440  30.130  15.300
 1552BOLB   C3C37243   7.290  29.740  15.490
 1552BOLB   C4C37244   7.460  29.430  15.820
 1552BOLB   C1D37245   8.190  30.080  14.880
 1552BOLB   C2D37246   8.210  29.680  14.830
 1552BOLB   C3D37247   8.280  29.110  14.870
 1552BOLB   C4D37248   8.350  28.700  15.100
 1553BOLB   NC137249   2.900  22.050  11.120
 1553BOLB   PO137250   2.790  22.330  10.860
 1553BOLB   GL137251   2.460  22.200  10.580
 1553BOLB   GL237252   2.490  22.230  10.280
 1553BOLB   C1A37253   2.050  22.330  10.650
 1553BOLB   C2A37254   1.720  22.340  10.490
 1553BOLB   C3A37255   1.290  22.170  10.350
 1553BOLB   C4A37256   0.820  22.140  10.420
 1553BOLB   C1B37257   2.530  22.490   9.900
 1553BOLB   C2B37258   2.510  22.690   9.460
 1553BOLB   C3B37259   2.340  22.990   9.090
 1553BOLB   C4B37260   2.200  23.010   8.690
 1553BOLB   NC237261  35.190  22.020   9.110
 1553BOLB   PO237262  35.420  21.890   9.400
 1553BOLB   GL337263  35.290  21.860   9.710
 1553BOLB   GL437264  35.260  21.590   9.930
 1553BOLB   C1C37265  35.730  21.940   9.940
 1553BOLB   C2C37266  35.990  21.920  10.370
 1553BOLB   C3C37267   0.000  21.890  10.280
 1553BOLB   C4C37268   0.380  21.990  10.340
 1553BOLB   C1D37269  35.710  21.360   9.950
 1553BOLB   C2D37270  36.050  21.280  10.320
 1553BOLB   C3D37271   0.050  21.050  10.550
 1553BOLB   C4D37272   0.190  21.280  11.010
 1554BOLB   NC137273  16.910  21.650   8.900
 1554BOLB   PO137274  17.140  21.240   8.900
 1554BOLB   GL137275  17.090  21.370   8.470
 1554BOLB   GL237276  17.140  21.080   8.310
 1554BOLB   C1A37277  17.140  21.620   8.030
 1554BOLB   C2A37278  16.860  21.730   7.650
 1554BOLB   C3A37279  16.850  21.700   7.170
 1554BOLB   C4A37280  17.200  21.720   6.830
 1554BOLB   C1B37281  17.440  21.170   8.070
 1554BOLB   C2B37282  17.540  21.360   7.680
 1554BOLB   C3B37283  17.530  21.810   7.500
 1554BOLB   C4B37284  17.900  22.110   7.420
 1554BOLB   NC237285  17.170  22.740   4.550
 1554BOLB   PO237286  17.330  22.450   4.340
 1554BOLB   GL337287  17.340  22.360   4.860
 1554BOLB   GL437288  17.220  22.020   4.850
 1554BOLB   C1C37289  17.280  22.300   5.350
 1554BOLB   C2C37290  17.510  21.960   5.520
 1554BOLB   C3C37291  17.460  21.820   5.920
 1554BOLB   C4C37292  17.270  21.880   6.360
 1554BOLB   C1D37293  16.880  22.120   5.150
 1554BOLB   C2D37294  16.610  21.900   5.390
 1554BOLB   C3D37295  16.470  21.530   5.650
 1554BOLB   C4D37296  16.100  21.630   5.820
 1555BOLB   NC137297  12.140  11.060  11.570
 1555BOLB   PO137298  12.410  10.980  11.940
 1555BOLB   GL137299  12.550  10.790  11.590
 1555BOLB   GL237300  12.620  10.780  11.400
 1555BOLB   C1A37301  12.310  10.370  11.450
 1555BOLB   C2A37302  12.260  10.060  10.990
 1555BOLB   C3A37303  12.110   9.650  11.130
 1555BOLB   C4A37304  11.930   9.290  11.040
 1555BOLB   C1B37305  12.790  10.410  11.410
 1555BOLB   C2B37306  12.710  10.050  11.410
 1555BOLB   C3B37307  12.650   9.770  11.160
 1555BOLB   C4B37308  12.460   9.520  10.780
 1555BOLB   NC237309  10.040   7.570   9.990
 1555BOLB   PO237310  10.420   7.750   9.920
 1555BOLB   GL337311  10.400   8.150  10.060
 1555BOLB   GL437312  10.370   8.450   9.760
 1555BOLB   C1C37313  10.660   8.410  10.340
 1555BOLB   C2C37314  10.990   8.610  10.520
 1555BOLB   C3C37315  11.180   8.920  10.800
 1555BOLB   C4C37316  11.590   9.200  10.830
 1555BOLB   C1D37317  10.560   8.790   9.750
 1555BOLB   C2D37318  10.840   9.060   9.790
 1555BOLB   C3D37319  10.900   9.410   9.580
 1555BOLB   C4D37320  10.800   9.510   9.120
 1556BOLB   NC137321  18.140  21.950  10.670
 1556BOLB   PO137322  18.500  22.050  10.790
 1556BOLB   GL137323  18.810  22.040  10.400
 1556BOLB   GL237324  19.100  22.240  10.540
 1556BOLB   C1A37325  19.040  22.090  10.020
 1556BOLB   C2A37326  19.280  22.100   9.760
 1556BOLB   C3A37327  19.460  22.470   9.630
 1556BOLB   C4A37328  19.420  22.760   9.300
 1556BOLB   C1B37329  19.540  22.330  10.280
 1556BOLB   C2B37330  20.000  22.240  10.330
 1556BOLB   C3B37331  20.160  22.560  10.680
 1556BOLB   C4B37332  19.970  22.750  11.060
 1556BOLB   NC237333  20.740  23.920   7.550
 1556BOLB   PO237334  20.390  23.880   7.310
 1556BOLB   GL337335  20.160  23.830   7.720
 1556BOLB   GL437336  19.840  23.800   7.640
 1556BOLB   C1C37337  20.150  23.450   7.970
 1556BOLB   C2C37338  19.800  23.290   8.220
 1556BOLB   C3C37339  19.430  23.180   8.510
 1556BOLB   C4C37340  19.460  22.990   8.910
 1556BOLB   C1D37341  19.530  23.790   7.900
 1556BOLB   C2D37342  19.330  23.740   8.290
 1556BOLB   C3D37343  19.040  23.730   8.650
 1556BOLB   C4D37344  18.740  23.650   9.000
 1557BOLB   NC137345   2.190  19.870  11.670
 1557BOLB   PO137346   2.510  20.190  11.610
 1557BOLB   GL137347   2.160  20.300  11.430
 1557BOLB   GL237348   2.100  20.600  11.230
 1557BOLB   C1A37349   1.660  20.460  11.470
 1557BOLB   C2A37350   1.220  20.440  11.500
 1557BOLB   C3A37351   0.960  20.070  11.270
 1557BOLB   C4A37352   0.660  19.860  10.990
 1557BOLB   C1B37353   1.780  20.930  11.210
 1557BOLB   C2B37354   1.450  21.190  10.990
 1557BOLB   C3B37355   1.270  21.300  10.580
 1557BOLB   C4B37356   1.080  21.080  10.270
 1557BOLB   NC237357  35.090  19.120  10.010
 1557BOLB   PO237358  35.040  19.200   9.590
 1557BOLB   GL337359  35.510  19.350   9.750
 1557BOLB   GL437360  35.490  19.640   9.860
 1557BOLB   C1C37361  35.900  19.300   9.910
 1557BOLB   C2C37362  36.150  19.400  10.250
 1557BOLB   C3C37363   0.220  19.360  10.410
 1557BOLB   C4C37364   0.280  19.620  10.830
 1557BOLB   C1D37365  35.580  19.420  10.290
 1557BOLB   C2D37366  35.780  19.060  10.500
 1557BOLB   C3D37367  35.940  18.880  10.230
 1557BOLB   C4D37368  36.240  18.540  10.110
 1558BOLB   NC137369  17.320  22.100   9.490
 1558BOLB   PO137370  17.420  22.270   9.870
 1558BOLB   GL137371  17.860  22.380   9.630
 1558BOLB   GL237372  18.010  22.710   9.640
 1558BOLB   C1A37373  18.130  22.370   9.300
 1558BOLB   C2A37374  18.440  22.650   9.170
 1558BOLB   C3A37375  18.580  23.050   9.080
 1558BOLB   C4A37376  19.020  23.190   9.160
 1558BOLB   C1B37377  18.140  23.010   9.410
 1558BOLB   C2B37378  18.120  23.250   8.990
 1558BOLB   C3B37379  18.340  23.390   8.690
 1558BOLB   C4B37380  18.530  23.630   8.420
 1558BOLB   NC237381  21.560  23.810   8.080
 1558BOLB   PO237382  21.300  23.400   8.290
 1558BOLB   GL337383  20.980  23.460   8.510
 1558BOLB   GL437384  20.710  23.490   8.350
 1558BOLB   C1C37385  20.620  23.290   8.910
 1558BOLB   C2C37386  20.280  23.340   9.200
 1558BOLB   C3C37387  19.790  23.610   9.160
 1558BOLB   C4C37388  19.300  23.550   9.090
 1558BOLB   C1D37389  20.400  23.170   8.420
 1558BOLB   C2D37390  20.280  22.750   8.300
 1558BOLB   C3D37391  19.940  22.460   8.200
 1558BOLB   C4D37392  19.640  22.220   8.410
 1559BOLB   NC137393  18.150  19.300  10.240
 1559BOLB   PO137394  18.330  19.200   9.870
 1559BOLB   GL137395  18.640  19.010   9.640
 1559BOLB   GL237396  18.650  18.720   9.650
 1559BOLB   C1A37397  18.990  19.020   9.340
 1559BOLB   C2A37398  19.330  18.810   9.010
 1559BOLB   C3A37399  19.670  18.750   8.810
 1559BOLB   C4A37400  19.950  18.560   8.500
 1559BOLB   C1B37401  19.020  18.490   9.290
 1559BOLB   C2B37402  19.320  18.270   8.950
 1559BOLB   C3B37403  19.510  18.240   8.680
 1559BOLB   C4B37404  19.870  18.090   8.630
 1559BOLB   NC237405  21.670  16.720   7.170
 1559BOLB   PO237406  21.420  17.120   7.210
 1559BOLB   GL337407  21.080  17.280   7.340
 1559BOLB   GL437408  20.930  17.430   7.110
 1559BOLB   C1C37409  20.850  17.740   7.530
 1559BOLB   C2C37410  20.530  17.890   7.630
 1559BOLB   C3C37411  20.210  18.050   7.900
 1559BOLB   C4C37412  20.000  18.300   8.240
 1559BOLB   C1D37413  20.580  17.190   7.070
 1559BOLB   C2D37414  20.310  17.030   7.410
 1559BOLB   C3D37415  20.090  17.150   7.810
 1559BOLB   C4D37416  20.020  17.390   8.210
 1560BOLB   NC137417   1.480  20.590   6.600
 1560BOLB   PO137418   1.710  21.030   6.600
 1560BOLB   GL137419   1.680  21.140   7.080
 1560BOLB   GL237420   1.790  20.790   7.040
 1560BOLB   C1A37421   1.840  21.060   7.440
 1560BOLB   C2A37422   1.880  21.030   7.950
 1560BOLB   C3A37423   1.860  21.490   8.150
 1560BOLB   C4A37424   1.760  21.780   8.560
 1560BOLB   C1B37425   2.250  20.870   7.070
 1560BOLB   C2B37426   2.570  20.770   7.180
 1560BOLB   C3B37427   2.840  21.040   7.350
 1560BOLB   C4B37428   3.170  21.040   7.130
 1560BOLB   NC237429   3.420  21.240  10.360
 1560BOLB   PO237430   3.340  21.810  10.280
 1560BOLB   GL337431   3.060  21.860   9.870
 1560BOLB   GL437432   3.110  22.080   9.600
 1560BOLB   C1C37433   2.600  21.940   9.770
 1560BOLB   C2C37434   2.330  22.140   9.480
 1560BOLB   C3C37435   1.950  22.070   9.250
 1560BOLB   C4C37436   1.900  22.010   8.890
 1560BOLB   C1D37437   2.800  22.260   9.390
 1560BOLB   C2D37438   2.560  22.300   9.080
 1560BOLB   C3D37439   2.450  22.580   8.690
 1560BOLB   C4D37440   2.610  22.920   8.410
 1561BOLB   NC137441  11.010  24.560   9.200
 1561BOLB   PO137442  10.990  24.120   9.060
 1561BOLB   GL137443  10.910  24.390   8.700
 1561BOLB   GL237444  10.580  24.450   8.690
 1561BOLB   C1A37445  11.190  24.550   8.280
 1561BOLB   C2A37446  11.510  24.760   8.170
 1561BOLB   C3A37447  11.640  24.920   7.850
 1561BOLB   C4A37448  11.830  25.050   7.390
 1561BOLB   C1B37449  10.420  24.840   8.480
 1561BOLB   C2B37450  10.410  25.150   8.490
 1561BOLB   C3B37451  10.620  25.620   8.330
 1561BOLB   C4B37452  10.950  25.970   8.170
 1561BOLB   NC237453  10.490  26.870   6.370
 1561BOLB   PO237454  10.850  27.230   6.440
 1561BOLB   GL337455  10.930  26.800   6.550
 1561BOLB   GL437456  10.690  26.720   6.860
 1561BOLB   C1C37457  11.080  26.480   6.550
 1561BOLB   C2C37458  11.380  26.170   6.760
 1561BOLB   C3C37459  11.630  25.770   6.920
 1561BOLB   C4C37460  11.790  25.480   7.270
 1561BOLB   C1D37461  10.670  26.350   6.970
 1561BOLB   C2D37462  10.770  26.280   7.380
 1561BOLB   C3D37463  10.580  26.600   7.580
 1561BOLB   C4D37464  10.350  26.680   8.030
 1562BOLB   NC137465  17.090  13.760  12.190
 1562BOLB   PO137466  17.510  13.600  12.280
 1562BOLB   GL137467  17.820  13.380  12.120
 1562BOLB   GL237468  17.840  13.220  11.790
 1562BOLB   C1A37469  18.170  13.280  12.250
 1562BOLB   C2A37470  18.550  13.040  12.380
 1562BOLB   C3A37471  18.690  12.600  12.370
 1562BOLB   C4A37472  18.950  12.370  12.490
 1562BOLB   C1B37473  18.240  13.080  11.700
 1562BOLB   C2B37474  18.620  12.980  11.410
 1562BOLB   C3B37475  19.030  12.810  11.230
 1562BOLB   C4B37476  19.380  12.490  11.160
 1562BOLB   NC237477  21.110  11.520  11.270
 1562BOLB   PO237478  21.020  11.360  11.610
 1562BOLB   GL337479  20.690  11.610  11.770
 1562BOLB   GL437480  20.340  11.480  11.990
 1562BOLB   C1C37481  20.450  11.970  11.980
 1562BOLB   C2C37482  20.100  11.900  12.280
 1562BOLB   C3C37483  19.620  11.980  12.450
 1562BOLB   C4C37484  19.190  12.170  12.630
 1562BOLB   C1D37485  19.900  11.630  11.920
 1562BOLB   C2D37486  19.710  12.040  11.910
 1562BOLB   C3D37487  19.400  12.260  12.160
 1562BOLB   C4D37488  19.610  12.630  12.110
 1563BOLB   NC137489  12.980  25.020  10.340
 1563BOLB   PO137490  12.880  25.260  10.030
 1563BOLB   GL137491  12.820  25.610   9.660
 1563BOLB   GL237492  12.590  25.700   9.410
 1563BOLB   C1A37493  12.950  26.050   9.310
 1563BOLB   C2A37494  13.170  26.270   9.020
 1563BOLB   C3A37495  13.120  26.500   8.680
 1563BOLB   C4A37496  13.050  26.960   8.480
 1563BOLB   C1B37497  12.580  25.930   9.010
 1563BOLB   C2B37498  12.710  26.270   8.870
 1563BOLB   C3B37499  12.680  26.500   8.470
 1563BOLB   C4B37500  12.860  26.680   8.160
 1563BOLB   NC237501  12.450  28.700   6.740
 1563BOLB   PO237502  12.500  28.650   7.150
 1563BOLB   GL337503  12.340  28.300   7.490
 1563BOLB   GL437504  12.640  28.130   7.500
 1563BOLB   C1C37505  12.250  27.960   7.760
 1563BOLB   C2C37506  12.490  27.740   7.850
 1563BOLB   C3C37507  12.560  27.360   8.010
 1563BOLB   C4C37508  12.850  27.150   8.070
 1563BOLB   C1D37509  12.510  27.760   7.300
 1563BOLB   C2D37510  12.610  27.330   7.430
 1563BOLB   C3D37511  12.290  26.950   7.300
 1563BOLB   C4D37512  11.910  26.930   7.400
 1564BOLB   NC137513  12.700  11.320  11.500
 1564BOLB   PO137514  12.420  11.280  11.210
 1564BOLB   GL137515  12.370  10.970  10.980
 1564BOLB   GL237516  12.080  10.830  11.160
 1564BOLB   C1A37517  12.440  10.540  10.970
 1564BOLB   C2A37518  12.720  10.170  10.850
 1564BOLB   C3A37519  12.960   9.740  10.730
 1564BOLB   C4A37520  12.790   9.380  10.400
 1564BOLB   C1B37521  11.890  10.490  11.000
 1564BOLB   C2B37522  11.870  10.140  10.580
 1564BOLB   C3B37523  12.050   9.860  10.530
 1564BOLB   C4B37524  11.980   9.370  10.540
 1564BOLB   NC237525  12.980   8.720   8.040
 1564BOLB   PO237526  12.520   8.500   8.020
 1564BOLB   GL337527  12.510   8.670   8.360
 1564BOLB   GL437528  12.500   9.010   8.120
 1564BOLB   C1C37529  12.590   8.770   8.860
 1564BOLB   C2C37530  12.670   8.940   9.280
 1564BOLB   C3C37531  12.530   9.120   9.620
 1564BOLB   C4C37532  12.520   9.310  10.000
 1564BOLB   C1D37533  12.300   9.280   8.290
 1564BOLB   C2D37534  12.130   9.770   8.410
 1564BOLB   C3D37535  12.050  10.230   8.190
 1564BOLB   C4D37536  11.940  10.570   7.780
 1565BOLB   NC137537   5.460  18.130   8.690
 1565BOLB   PO137538   5.220  17.710   8.820
 1565BOLB   GL137539   5.010  17.710   8.410
 1565BOLB   GL237540   5.240  17.930   8.240
 1565BOLB   C1A37541   4.840  17.720   7.900
 1565BOLB   C2A37542   4.460  17.570   7.720
 1565BOLB   C3A37543   4.090  17.400   7.520
 1565BOLB   C4A37544   4.100  17.770   7.280
 1565BOLB   C1B37545   5.380  17.990   7.930
 1565BOLB   C2B37546   5.190  18.070   7.650
 1565BOLB   C3B37547   5.040  18.000   7.260
 1565BOLB   C4B37548   4.930  17.730   6.950
 1565BOLB   NC237549   3.250  18.700   5.000
 1565BOLB   PO237550   3.150  18.400   5.370
 1565BOLB   GL337551   3.310  18.500   5.760
 1565BOLB   GL437552   3.560  18.480   5.700
 1565BOLB   C1C37553   3.490  18.720   6.180
 1565BOLB   C2C37554   3.570  18.660   6.580
 1565BOLB   C3C37555   3.820  18.460   6.970
 1565BOLB   C4C37556   3.910  18.110   7.080
 1565BOLB   C1D37557   4.040  18.400   5.640
 1565BOLB   C2D37558   4.450  18.360   5.400
 1565BOLB   C3D37559   4.690  17.940   5.270
 1565BOLB   C4D37560   5.080  17.860   5.130
 1566BOLB   NC137561  13.180  26.090  11.450
 1566BOLB   PO137562  12.860  26.330  11.320
 1566BOLB   GL137563  13.220  26.300  11.010
 1566BOLB   GL237564  13.430  26.010  10.980
 1566BOLB   C1A37565  13.320  26.710  10.800
 1566BOLB   C2A37566  13.330  27.060  10.440
 1566BOLB   C3A37567  13.750  27.360  10.420
 1566BOLB   C4A37568  13.830  27.690  10.180
 1566BOLB   C1B37569  13.600  26.310  10.670
 1566BOLB   C2B37570  13.680  26.740  10.240
 1566BOLB   C3B37571  13.640  27.120  10.050
 1566BOLB   C4B37572  13.630  27.380   9.740
 1566BOLB   NC237573  14.670  29.890   9.300
 1566BOLB   PO237574  14.920  29.820   9.590
 1566BOLB   GL337575  14.640  29.540   9.670
 1566BOLB   GL437576  14.440  29.630   9.930
 1566BOLB   C1C37577  14.550  29.040   9.650
 1566BOLB   C2C37578  14.280  28.710   9.640
 1566BOLB   C3C37579  14.170  28.310   9.720
 1566BOLB   C4C37580  13.910  27.950   9.830
 1566BOLB   C1D37581  14.450  29.440  10.280
 1566BOLB   C2D37582  14.220  29.090  10.440
 1566BOLB   C3D37583  13.870  28.850  10.670
 1566BOLB   C4D37584  13.760  28.450  10.780
 1567BOLB   NC137585  17.280  16.000   9.880
 1567BOLB   PO137586  17.660  15.660  10.080
 1567BOLB   GL137587  17.880  15.310   9.750
 1567BOLB   GL237588  17.820  14.890   9.790
 1567BOLB   C1A37589  17.990  15.250   9.340
 1567BOLB   C2A37590  18.410  15.270   9.080
 1567BOLB   C3A37591  18.840  15.430   9.000
 1567BOLB   C4A37592  19.270  15.520   8.830
 1567BOLB   C1B37593  17.890  14.380   9.890
 1567BOLB   C2B37594  17.990  13.960   9.850
 1567BOLB   C3B37595  18.220  13.690   9.790
 1567BOLB   C4B37596  18.530  13.500   9.530
 1567BOLB   NC237597  21.700  15.620   8.380
 1567BOLB   PO237598  21.440  15.800   8.140
 1567BOLB   GL337599  21.040  15.780   8.130
 1567BOLB   GL437600  20.950  15.940   7.930
 1567BOLB   C1C37601  20.650  15.600   8.180
 1567BOLB   C2C37602  20.240  15.740   8.310
 1567BOLB   C3C37603  19.840  15.600   8.530
 1567BOLB   C4C37604  19.450  15.710   8.450
 1567BOLB   C1D37605  20.650  16.240   8.240
 1567BOLB   C2D37606  20.250  16.290   8.350
 1567BOLB   C3D37607  19.890  16.230   8.510
 1567BOLB   C4D37608  19.590  16.390   8.610
 1568BOLB   NC137609   7.530  27.170  14.050
 1568BOLB   PO137610   7.600  27.530  14.350
 1568BOLB   GL137611   7.320  27.760  14.420
 1568BOLB   GL237612   7.370  28.020  14.540
 1568BOLB   C1A37613   7.050  27.850  14.130
 1568BOLB   C2A37614   7.030  28.180  13.830
 1568BOLB   C3A37615   6.890  28.480  13.460
 1568BOLB   C4A37616   6.870  28.860  13.250
 1568BOLB   C1B37617   7.220  28.360  14.310
 1568BOLB   C2B37618   6.890  28.690  14.190
 1568BOLB   C3B37619   6.730  29.040  14.380
 1568BOLB   C4B37620   6.510  29.020  14.800
 1568BOLB   NC237621   5.780  30.870  12.590
 1568BOLB   PO237622   6.240  31.110  12.520
 1568BOLB   GL337623   6.330  30.720  12.510
 1568BOLB   GL437624   6.550  30.700  12.700
 1568BOLB   C1C37625   6.420  30.280  12.480
 1568BOLB   C2C37626   6.720  29.930  12.620
 1568BOLB   C3C37627   6.790  29.610  12.850
 1568BOLB   C4C37628   6.590  29.230  13.050
 1568BOLB   C1D37629   6.710  30.460  13.080
 1568BOLB   C2D37630   6.740  30.040  13.160
 1568BOLB   C3D37631   6.950  29.730  13.320
 1568BOLB   C4D37632   7.090  29.270  13.260
 1569BOLB   NC137633   1.680  18.740  14.290
 1569BOLB   PO137634   1.310  18.900  14.040
 1569BOLB   GL137635   0.940  18.760  14.140
 1569BOLB   GL237636   0.810  19.020  14.370
 1569BOLB   C1A37637   0.490  18.600  14.210
 1569BOLB   C2A37638   0.260  18.270  14.460
 1569BOLB   C3A37639   0.080  18.080  14.790
 1569BOLB   C4A37640  36.170  17.760  14.920
 1569BOLB   C1B37641   0.470  19.140  13.990
 1569BOLB   C2B37642   0.030  19.100  14.040
 1569BOLB   C3B37643  36.100  19.330  13.780
 1569BOLB   C4B37644  35.850  19.680  13.920
 1569BOLB   NC237645  33.940  17.750  14.820
 1569BOLB   PO237646  34.100  18.050  15.150
 1569BOLB   GL337647  34.520  17.810  15.170
 1569BOLB   GL437648  34.540  17.670  15.410
 1569BOLB   C1C37649  34.870  17.620  15.050
 1569BOLB   C2C37650  35.170  17.240  15.000
 1569BOLB   C3C37651  35.610  17.200  15.030
 1569BOLB   C4C37652  35.850  17.480  14.750
 1569BOLB   C1D37653  34.660  17.980  15.620
 1569BOLB   C2D37654  34.950  18.200  15.710
 1569BOLB   C3D37655  35.150  18.580  15.940
 1569BOLB   C4D37656  35.440  18.840  15.750
 1570BOLB   NC137657  18.520  23.410  14.910
 1570BOLB   PO137658  18.380  23.710  14.580
 1570BOLB   GL137659  18.780  23.910  14.340
 1570BOLB   GL237660  18.820  24.150  14.450
 1570BOLB   C1A37661  19.240  23.880  14.420
 1570BOLB   C2A37662  19.520  24.120  14.220
 1570BOLB   C3A37663  19.800  24.310  13.950
 1570BOLB   C4A37664  20.150  24.400  13.720
 1570BOLB   C1B37665  18.870  24.620  14.470
 1570BOLB   C2B37666  19.280  24.770  14.530
 1570BOLB   C3B37667  19.710  24.570  14.380
 1570BOLB   C4B37668  19.960  24.200  14.460
 1570BOLB   NC237669  22.260  25.830  13.900
 1570BOLB   PO237670  22.230  25.570  13.560
 1570BOLB   GL337671  21.910  25.350  13.370
 1570BOLB   GL437672  21.940  25.080  13.610
 1570BOLB   C1C37673  21.520  25.120  13.180
 1570BOLB   C2C37674  21.050  25.150  13.110
 1570BOLB   C3C37675  20.730  24.840  13.290
 1570BOLB   C4C37676  20.400  24.590  13.250
 1570BOLB   C1D37677  21.660  24.740  13.570
 1570BOLB   C2D37678  21.500  24.470  13.750
 1570BOLB   C3D37679  21.380  24.290  14.130
 1570BOLB   C4D37680  21.530  24.150  14.500
 1571BOLB   NC137681  10.680  21.040   6.940
 1571BOLB   PO137682  10.340  21.160   7.150
 1571BOLB   GL137683  10.260  21.310   6.700
 1571BOLB   GL237684  10.210  21.640   6.710
 1571BOLB   C1A37685  10.040  21.030   6.410
 1571BOLB   C2A37686   9.820  20.920   5.920
 1571BOLB   C3A37687   9.720  21.070   5.510
 1571BOLB   C4A37688   9.800  21.150   5.060
 1571BOLB   C1B37689  10.220  21.470   6.250
 1571BOLB   C2B37690  10.180  21.240   5.780
 1571BOLB   C3B37691  10.200  21.040   5.260
 1571BOLB   C4B37692  10.090  20.790   4.950
 1571BOLB   NC237693   9.020  21.880   3.370
 1571BOLB   PO237694   9.400  22.130   3.140
 1571BOLB   GL337695   9.380  22.200   3.550
 1571BOLB   GL437696   9.530  21.870   3.640
 1571BOLB   C1C37697   9.690  22.250   3.900
 1571BOLB   C2C37698   9.680  22.150   4.340
 1571BOLB   C3C37699   9.650  21.800   4.640
 1571BOLB   C4C37700   9.660  21.430   4.890
 1571BOLB   C1D37701   9.360  21.770   4.070
 1571BOLB   C2D37702   9.190  21.860   4.550
 1571BOLB   C3D37703   9.280  21.740   5.030
 1571BOLB   C4D37704   9.190  21.740   5.460
 1572BOLB   NC137705   2.870  24.430  16.310
 1572BOLB   PO137706   2.430  24.460  16.280
 1572BOLB   GL137707   2.120  24.800  16.530
 1572BOLB   GL237708   2.270  25.120  16.410
 1572BOLB   C1A37709   1.960  25.020  16.840
 1572BOLB   C2A37710   1.700  25.460  16.940
 1572BOLB   C3A37711   1.440  25.820  17.160
 1572BOLB   C4A37712   1.340  26.180  16.920
 1572BOLB   C1B37713   1.780  25.370  16.450
 1572BOLB   C2B37714   1.620  25.700  16.120
 1572BOLB   C3B37715   1.470  25.850  15.810
 1572BOLB   C4B37716   1.170  25.910  15.440
 1572BOLB   NC237717   1.230  28.860  18.120
 1572BOLB   PO237718   0.930  28.510  18.160
 1572BOLB   GL337719   1.050  28.090  17.930
 1572BOLB   GL437720   1.310  28.200  17.980
 1572BOLB   C1C37721   1.180  27.850  17.560
 1572BOLB   C2C37722   1.270  27.600  17.270
 1572BOLB   C3C37723   1.450  27.110  17.110
 1572BOLB   C4C37724   1.340  26.720  17.020
 1572BOLB   C1D37725   1.450  27.780  17.950
 1572BOLB   C2D37726   1.720  27.500  18.030
 1572BOLB   C3D37727   1.920  27.180  17.910
 1572BOLB   C4D37728   2.310  26.990  18.010
 1573BOLB   NC137729  12.670  18.990   6.740
 1573BOLB   PO137730  13.020  19.290   6.770
 1573BOLB   GL137731  13.010  19.240   6.330
 1573BOLB   GL237732  12.760  19.300   6.060
 1573BOLB   C1A37733  13.210  19.150   5.940
 1573BOLB   C2A37734  13.160  19.150   5.530
 1573BOLB   C3A37735  13.110  18.830   5.150
 1573BOLB   C4A37736  13.340  18.950   4.750
 1573BOLB   C1B37737  12.470  19.440   5.700
 1573BOLB   C2B37738  12.180  19.390   5.340
 1573BOLB   C3B37739  11.970  19.580   4.980
 1573BOLB   C4B37740  11.700  19.510   4.530
 1573BOLB   NC237741  13.200  19.210   2.510
 1573BOLB   PO237742  12.770  19.390   2.520
 1573BOLB   GL337743  13.090  19.510   2.880
 1573BOLB   GL437744  13.530  19.390   2.900
 1573BOLB   C1C37745  13.200  19.720   3.330
 1573BOLB   C2C37746  13.220  19.560   3.740
 1573BOLB   C3C37747  13.250  19.300   4.070
 1573BOLB   C4C37748  13.350  19.040   4.370
 1573BOLB   C1D37749  13.550  19.370   3.350
 1573BOLB   C2D37750  13.700  19.350   3.700
 1573BOLB   C3D37751  13.730  19.190   4.020
 1573BOLB   C4D37752  13.830  18.980   4.420
 1574BOLB   NC137753  13.860  27.160  15.490
 1574BOLB   PO137754  14.050  27.370  15.750
 1574BOLB   GL137755  14.090  27.750  15.600
 1574BOLB   GL237756  14.360  27.920  15.670
 1574BOLB   C1A37757  14.330  27.830  15.180
 1574BOLB   C2A37758  14.560  28.200  15.200
 1574BOLB   C3A37759  14.830  28.610  15.300
 1574BOLB   C4A37760  15.230  28.820  15.200
 1574BOLB   C1B37761  14.300  28.350  15.620
 1574BOLB   C2B37762  14.620  28.650  15.780
 1574BOLB   C3B37763  14.690  28.770  16.230
 1574BOLB   C4B37764  14.980  29.070  16.390
 1574BOLB   NC237765  16.750  30.170  13.440
 1574BOLB   PO237766  16.950  30.130  13.890
 1574BOLB   GL337767  16.680  30.030  14.100
 1574BOLB   GL437768  16.530  29.830  13.900
 1574BOLB   C1C37769  16.560  29.670  14.470
 1574BOLB   C2C37770  16.230  29.400  14.600
 1574BOLB   C3C37771  15.840  29.320  14.830
 1574BOLB   C4C37772  15.470  29.170  15.130
 1574BOLB   C1D37773  16.290  29.480  14.080
 1574BOLB   C2D37774  15.940  29.170  14.170
 1574BOLB   C3D37775  15.660  28.760  14.220
 1574BOLB   C4D37776  15.240  28.750  13.950
 1575BOLB   NC137777   8.380  19.010   7.960
 1575BOLB   PO137778   8.640  18.930   7.610
 1575BOLB   GL137779   8.510  18.880   7.210
 1575BOLB   GL237780   8.240  18.920   7.020
 1575BOLB   C1A37781   8.570  18.700   6.750
 1575BOLB   C2A37782   8.650  18.600   6.230
 1575BOLB   C3A37783   8.840  18.770   5.900
 1575BOLB   C4A37784   8.870  18.860   5.450
 1575BOLB   C1B37785   8.150  18.890   6.560
 1575BOLB   C2B37786   7.840  18.890   6.210
 1575BOLB   C3B37787   7.630  18.530   6.060
 1575BOLB   C4B37788   7.360  18.260   5.760
 1575BOLB   NC237789   8.030  18.620   3.170
 1575BOLB   PO237790   7.600  18.880   3.260
 1575BOLB   GL337791   7.930  18.930   3.640
 1575BOLB   GL437792   7.770  18.840   3.970
 1575BOLB   C1C37793   8.260  18.860   3.970
 1575BOLB   C2C37794   8.240  18.990   4.370
 1575BOLB   C3C37795   8.540  18.900   4.770
 1575BOLB   C4C37796   8.820  18.800   5.100
 1575BOLB   C1D37797   7.480  18.770   4.330
 1575BOLB   C2D37798   7.420  18.700   4.850
 1575BOLB   C3D37799   7.320  18.600   5.260
 1575BOLB   C4D37800   7.190  18.710   5.650
 1576BOLB   NC137801   3.890  25.090  14.010
 1576BOLB   PO137802   3.940  25.390  14.050
 1576BOLB   GL137803   3.650  25.790  14.050
 1576BOLB   GL237804   3.470  25.850  14.370
 1576BOLB   C1A37805   3.440  26.090  13.810
 1576BOLB   C2A37806   3.300  26.440  13.840
 1576BOLB   C3A37807   3.360  26.800  13.690
 1576BOLB   C4A37808   3.250  27.240  13.720
 1576BOLB   C1B37809   3.280  26.200  14.250
 1576BOLB   C2B37810   2.890  26.340  14.140
 1576BOLB   C3B37811   2.690  26.590  13.830
 1576BOLB   C4B37812   2.600  27.000  13.860
 1576BOLB   NC237813   2.290  29.460  14.450
 1576BOLB   PO237814   2.310  29.240  14.120
 1576BOLB   GL337815   2.440  28.890  13.970
 1576BOLB   GL437816   2.190  28.750  13.900
 1576BOLB   C1C37817   2.700  28.660  13.740
 1576BOLB   C2C37818   2.910  28.330  13.740
 1576BOLB   C3C37819   3.010  27.990  14.090
 1576BOLB   C4C37820   3.230  27.540  14.010
 1576BOLB   C1D37821   1.920  28.470  13.600
 1576BOLB   C2D37822   1.540  28.190  13.690
 1576BOLB   C3D37823   1.260  27.810  13.850
 1576BOLB   C4D37824   1.110  27.490  14.040
 1577BOLB   NC137825  15.970  18.110   7.820
 1577BOLB   PO137826  15.590  17.920   7.660
 1577BOLB   GL137827  15.870  18.220   7.350
 1577BOLB   GL237828  16.070  18.510   7.520
 1577BOLB   C1A37829  15.880  18.480   7.010
 1577BOLB   C2A37830  15.790  18.610   6.580
 1577BOLB   C3A37831  15.740  18.810   6.200
 1577BOLB   C4A37832  15.680  18.920   5.740
 1577BOLB   C1B37833  16.230  18.730   7.250
 1577BOLB   C2B37834  16.110  18.940   6.870
 1577BOLB   C3B37835  16.010  19.130   6.610
 1577BOLB   C4B37836  16.350  19.470   6.460
 1577BOLB   NC237837  16.590  17.820   4.000
 1577BOLB   PO237838  16.430  17.760   3.530
 1577BOLB   GL337839  16.120  17.990   3.850
 1577BOLB   GL437840  15.990  17.720   4.060
 1577BOLB   C1C37841  15.870  18.240   4.150
 1577BOLB   C2C37842  15.770  18.230   4.590
 1577BOLB   C3C37843  15.580  18.440   4.960
 1577BOLB   C4C37844  15.690  18.780   5.260
 1577BOLB   C1D37845  16.000  17.790   4.490
 1577BOLB   C2D37846  16.210  17.610   4.800
 1577BOLB   C3D37847  16.220  17.230   5.090
 1577BOLB   C4D37848  16.150  17.040   5.560
 1578BOLB   NC137849  13.250  11.850  10.580
 1578BOLB   PO137850  13.370  11.740  11.080
 1578BOLB   GL137851  13.460  11.370  10.760
 1578BOLB   GL237852  13.210  11.270  10.730
 1578BOLB   C1A37853  13.660  11.020  10.540
 1578BOLB   C2A37854  13.770  10.800  10.150
 1578BOLB   C3A37855  13.710  10.600   9.770
 1578BOLB   C4A37856  13.880  10.390   9.500
 1578BOLB   C1B37857  13.150  11.020  10.470
 1578BOLB   C2B37858  13.260  10.710  10.270
 1578BOLB   C3B37859  13.580  10.400  10.410
 1578BOLB   C4B37860  13.770   9.940  10.330
 1578BOLB   NC237861  14.550   9.800   7.050
 1578BOLB   PO237862  14.130   9.720   7.220
 1578BOLB   GL337863  14.240   9.790   7.550
 1578BOLB   GL437864  14.520  10.060   7.550
 1578BOLB   C1C37865  14.310   9.790   7.910
 1578BOLB   C2C37866  14.140   9.920   8.320
 1578BOLB   C3C37867  13.900  10.180   8.670
 1578BOLB   C4C37868  13.820  10.340   9.160
 1578BOLB   C1D37869  14.320  10.360   7.800
 1578BOLB   C2D37870  14.210  10.750   7.930
 1578BOLB   C3D37871  13.930  11.010   8.200
 1578BOLB   C4D37872  13.560  11.070   8.420
 1579BOLB   NC137873   9.650  19.580   7.110
 1579BOLB   PO137874  10.040  19.720   7.010
 1579BOLB   GL137875   9.860  19.750   6.580
 1579BOLB   GL237876   9.610  19.710   6.660
 1579BOLB   C1A37877   9.820  19.530   6.160
 1579BOLB   C2A37878   9.760  19.380   5.850
 1579BOLB   C3A37879   9.630  19.350   5.420
 1579BOLB   C4A37880   9.640  19.430   4.930
 1579BOLB   C1B37881   9.410  19.870   6.330
 1579BOLB   C2B37882   9.290  20.200   6.050
 1579BOLB   C3B37883   9.090  20.350   5.710
 1579BOLB   C4B37884   8.720  20.470   5.680
 1579BOLB   NC237885   8.540  20.410   2.350
 1579BOLB   PO237886   8.590  20.450   2.850
 1579BOLB   GL337887   8.740  20.480   3.290
 1579BOLB   GL437888   8.740  20.790   3.380
 1579BOLB   C1C37889   9.110  20.460   3.620
 1579BOLB   C2C37890   9.240  20.140   3.880
 1579BOLB   C3C37891   9.360  20.010   4.380
 1579BOLB   C4C37892   9.370  19.670   4.680
 1579BOLB   C1D37893   8.880  20.920   3.780
 1579BOLB   C2D37894   8.800  20.670   4.130
 1579BOLB   C3D37895   8.710  20.520   4.570
 1579BOLB   C4D37896   8.530  20.600   4.910
 1580BOLB   NC137897  13.490  19.570   7.110
 1580BOLB   PO137898  13.930  19.520   7.230
 1580BOLB   GL137899  14.150  19.560   6.830
 1580BOLB   GL237900  14.250  19.960   6.790
 1580BOLB   C1A37901  14.240  19.380   6.320
 1580BOLB   C2A37902  14.250  19.200   5.740
 1580BOLB   C3A37903  14.270  19.300   5.120
 1580BOLB   C4A37904  14.250  19.450   4.680
 1580BOLB   C1B37905  14.510  20.000   6.470
 1580BOLB   C2B37906  14.470  20.030   6.000
 1580BOLB   C3B37907  14.730  20.290   5.780
 1580BOLB   C4B37908  14.810  20.610   5.560
 1580BOLB   NC237909  16.250  20.110   3.210
 1580BOLB   PO237910  15.880  19.810   3.410
 1580BOLB   GL337911  15.630  20.020   3.650
 1580BOLB   GL437912  15.460  20.190   3.770
 1580BOLB   C1C37913  15.420  19.740   4.020
 1580BOLB   C2C37914  15.010  19.530   4.050
 1580BOLB   C3C37915  14.700  19.240   3.950
 1580BOLB   C4C37916  14.360  19.250   4.290
 1580BOLB   C1D37917  15.530  20.230   4.220
 1580BOLB   C2D37918  15.310  20.260   4.510
 1580BOLB   C3D37919  15.050  20.140   4.890
 1580BOLB   C4D37920  15.060  20.190   5.390
 1581BOLB   NC137921  11.250  17.450   6.720
 1581BOLB   PO137922  11.600  17.660   6.460
 1581BOLB   GL137923  11.840  17.490   5.960
 1581BOLB   GL237924  11.710  17.670   5.850
 1581BOLB   C1A37925  12.110  17.420   5.630
 1581BOLB   C2A37926  12.170  17.460   5.310
 1581BOLB   C3A37927  11.740  17.250   5.120
 1581BOLB   C4A37928  11.730  16.810   5.200
 1581BOLB   C1B37929  11.730  17.750   5.400
 1581BOLB   C2B37930  11.620  18.110   5.200
 1581BOLB   C3B37931  11.440  18.520   5.150
 1581BOLB   C4B37932  11.050  18.800   5.010
 1581BOLB   NC237933  10.920  15.590   2.720
 1581BOLB   PO237934  10.870  15.660   3.110
 1581BOLB   GL337935  11.240  15.690   3.440
 1581BOLB   GL437936  11.250  15.410   3.660
 1581BOLB   C1C37937  11.450  15.920   3.830
 1581BOLB   C2C37938  11.580  16.000   4.310
 1581BOLB   C3C37939  11.550  16.030   4.740
 1581BOLB   C4C37940  11.550  16.450   4.980
 1581BOLB   C1D37941  11.220  15.560   4.040
 1581BOLB   C2D37942  11.230  15.600   4.450
 1581BOLB   C3D37943  10.980  15.430   4.810
 1581BOLB   C4D37944  10.650  15.610   5.000
 1582BOLB   NC137945  15.900  26.290  14.270
 1582BOLB   PO137946  15.590  26.550  13.990
 1582BOLB   GL137947  15.850  26.800  14.150
 1582BOLB   GL237948  15.820  27.010  14.390
 1582BOLB   C1A37949  16.040  27.030  13.910
 1582BOLB   C2A37950  16.410  27.420  13.890
 1582BOLB   C3A37951  16.570  27.770  13.680
 1582BOLB   C4A37952  16.690  27.900  13.400
 1582BOLB   C1B37953  15.900  27.490  14.300
 1582BOLB   C2B37954  15.860  27.950  14.410
 1582BOLB   C3B37955  15.950  28.400  14.570
 1582BOLB   C4B37956  16.070  28.850  14.610
 1582BOLB   NC237957  17.040  30.180  12.480
 1582BOLB   PO237958  17.370  29.820  12.470
 1582BOLB   GL337959  17.320  29.340  12.520
 1582BOLB   GL437960  17.200  29.090  12.220
 1582BOLB   C1C37961  16.860  29.190  12.600
 1582BOLB   C2C37962  16.630  28.850  12.650
 1582BOLB   C3C37963  16.580  28.440  12.890
 1582BOLB   C4C37964  16.580  27.990  13.010
 1582BOLB   C1D37965  16.790  29.000  12.160
 1582BOLB   C2D37966  16.420  28.840  12.190
 1582BOLB   C3D37967  16.080  28.700  12.070
 1582BOLB   C4D37968  15.720  28.780  12.020
 1583BOLB   NC137969  10.060  21.410   7.410
 1583BOLB   PO137970  10.370  21.710   7.250
 1583BOLB   GL137971  10.110  22.090   7.050
 1583BOLB   GL237972  10.210  22.380   7.160
 1583BOLB   C1A37973   9.970  22.100   6.640
 1583BOLB   C2A37974  10.180  21.980   6.270
 1583BOLB   C3A37975  10.270  21.980   5.830
 1583BOLB   C4A37976   9.990  22.020   5.560
 1583BOLB   C1B37977  10.320  22.740   7.340
 1583BOLB   C2B37978  10.520  23.070   7.260
 1583BOLB   C3B37979  10.630  23.520   7.160
 1583BOLB   C4B37980  10.640  23.820   7.270
 1583BOLB   NC237981   8.380  22.540   3.650
 1583BOLB   PO237982   8.480  22.120   3.510
 1583BOLB   GL337983   8.750  22.050   3.800
 1583BOLB   GL437984   8.640  21.790   3.870
 1583BOLB   C1C37985   9.120  22.280   4.080
 1583BOLB   C2C37986   9.220  22.400   4.490
 1583BOLB   C3C37987   9.490  22.280   4.900
 1583BOLB   C4C37988   9.680  21.980   5.230
 1583BOLB   C1D37989   8.940  21.670   4.170
 1583BOLB   C2D37990   8.870  21.480   4.590
 1583BOLB   C3D37991   8.780  21.590   5.040
 1583BOLB   C4D37992   8.850  21.370   5.410
 1584BOLB   NC137993  10.050  20.780   7.790
 1584BOLB   PO137994  10.140  20.710   7.370
 1584BOLB   GL137995  10.090  20.750   6.850
 1584BOLB   GL237996  10.050  20.520   6.630
 1584BOLB   C1A37997   9.630  20.690   6.500
 1584BOLB   C2A37998   9.420  20.740   6.130
 1584BOLB   C3A37999   9.380  20.710   5.740
 1584BOLB   C4A38000   9.230  20.820   5.370
 1584BOLB   C1B38001  10.240  20.540   6.270
 1584BOLB   C2B38002  10.370  20.700   5.910
 1584BOLB   C3B38003  10.640  21.000   5.600
 1584BOLB   C4B38004  10.770  21.250   5.310
 1584BOLB   NC238005   7.290  21.560   3.800
 1584BOLB   PO238006   7.510  21.190   3.720
 1584BOLB   GL338007   7.820  21.040   4.040
 1584BOLB   GL438008   7.750  20.810   4.200
 1584BOLB   C1C38009   8.190  21.130   4.350
 1584BOLB   C2C38010   8.360  21.260   4.720
 1584BOLB   C3C38011   8.660  21.080   4.900
 1584BOLB   C4C38012   8.880  20.940   5.180
 1584BOLB   C1D38013   7.940  20.700   4.630
 1584BOLB   C2D38014   8.090  20.930   4.970
 1584BOLB   C3D38015   7.900  20.990   5.240
 1584BOLB   C4D38016   7.950  21.180   5.580
 1585BOLB   NC138017  14.300  17.860   7.440
 1585BOLB   PO138018  14.300  18.120   7.070
 1585BOLB   GL138019  14.590  18.000   6.720
 1585BOLB   GL238020  14.970  17.830   6.690
 1585BOLB   C1A38021  14.860  18.190   6.340
 1585BOLB   C2A38022  15.060  18.090   5.920
 1585BOLB   C3A38023  15.430  18.000   5.830
 1585BOLB   C4A38024  15.580  17.810   5.390
 1585BOLB   C1B38025  15.270  17.990   6.350
 1585BOLB   C2B38026  15.720  18.210   6.160
 1585BOLB   C3B38027  15.860  18.450   5.770
 1585BOLB   C4B38028  15.770  18.290   5.420
 1585BOLB   NC238029  16.430  16.890   3.280
 1585BOLB   PO238030  16.320  16.670   3.650
 1585BOLB   GL338031  15.930  16.810   3.870
 1585BOLB   GL438032  15.660  16.510   3.970
 1585BOLB   C1C38033  15.840  17.210   4.020
 1585BOLB   C2C38034  15.620  17.570   4.260
 1585BOLB   C3C38035  15.480  17.690   4.580
 1585BOLB   C4C38036  15.340  17.690   5.020
 1585BOLB   C1D38037  15.460  16.740   4.220
 1585BOLB   C2D38038  15.090  16.830   4.410
 1585BOLB   C3D38039  14.830  16.850   4.760
 1585BOLB   C4D38040  14.620  17.170   5.010
 1586BOLB   NC138041  10.970  21.460   7.750
 1586BOLB   PO138042  10.820  21.370   7.370
 1586BOLB   GL138043  10.830  21.640   7.010
 1586BOLB   GL238044  10.730  21.520   6.700
 1586BOLB   C1A38045  11.040  21.900   6.620
 1586BOLB   C2A38046  11.220  22.180   6.280
 1586BOLB   C3A38047  11.470  22.550   6.200
 1586BOLB   C4A38048  11.840  22.760   5.960
 1586BOLB   C1B38049  10.630  21.740   6.410
 1586BOLB   C2B38050  10.710  22.170   6.290
 1586BOLB   C3B38051  10.870  22.540   6.120
 1586BOLB   C4B38052  11.090  22.590   5.870
 1586BOLB   NC238053  12.280  23.920   3.800
 1586BOLB   PO238054  11.860  24.180   3.900
 1586BOLB   GL338055  11.930  23.860   4.250
 1586BOLB   GL438056  11.780  23.510   4.310
 1586BOLB   C1C38057  11.910  23.840   4.730
 1586BOLB   C2C38058  11.960  23.690   5.110
 1586BOLB   C3C38059  12.000  23.390   5.510
 1586BOLB   C4C38060  12.040  23.040   5.820
 1586BOLB   C1D38061  11.790  23.330   4.660
 1586BOLB   C2D38062  11.940  23.190   5.040
 1586BOLB   C3D38063  12.120  22.820   5.230
 1586BOLB   C4D38064  12.010  22.590   5.480
 1587BOLB   NC138065   8.600  20.510   7.760
 1587BOLB   PO138066   8.770  20.250   7.500
 1587BOLB   GL138067   8.680  20.450   7.160
 1587BOLB   GL238068   8.340  20.720   7.100
 1587BOLB   C1A38069   8.820  20.360   6.720
 1587BOLB   C2A38070   8.680  20.200   6.250
 1587BOLB   C3A38071   8.430  20.100   5.910
 1587BOLB   C4A38072   8.330  20.160   5.470
 1587BOLB   C1B38073   8.420  20.610   6.600
 1587BOLB   C2B38074   8.440  20.630   6.120
 1587BOLB   C3B38075   8.210  20.710   5.760
 1587BOLB   C4B38076   8.270  20.670   5.420
 1587BOLB   NC238077   6.590  21.890   3.510
 1587BOLB   PO238078   6.800  21.460   3.720
 1587BOLB   GL338079   6.940  21.350   4.190
 1587BOLB   GL438080   7.270  21.490   4.280
 1587BOLB   C1C38081   7.100  21.070   4.590
 1587BOLB   C2C38082   7.450  20.770   4.740
 1587BOLB   C3C38083   7.750  20.560   5.080
 1587BOLB   C4C38084   8.000  20.190   5.180
 1587BOLB   C1D38085   7.630  21.340   4.460
 1587BOLB   C2D38086   7.740  21.330   4.820
 1587BOLB   C3D38087   7.720  21.530   5.230
 1587BOLB   C4D38088   7.720  21.670   5.600
 1588BOLB   NC138089  12.890  14.490   8.370
 1588BOLB   PO138090  13.180  14.320   8.070
 1588BOLB   GL138091  13.240  14.100   7.670
 1588BOLB   GL238092  13.270  13.770   7.620
 1588BOLB   C1A38093  13.290  14.120   7.210
 1588BOLB   C2A38094  13.460  14.010   6.950
 1588BOLB   C3A38095  13.450  13.630   6.760
 1588BOLB   C4A38096  13.790  13.330   6.660
 1588BOLB   C1B38097  12.980  13.580   7.350
 1588BOLB   C2B38098  12.560  13.580   7.210
 1588BOLB   C3B38099  12.250  13.520   6.910
 1588BOLB   C4B38100  11.850  13.590   6.680
 1588BOLB   NC238101  15.120  11.180   5.370
 1588BOLB   PO238102  15.290  11.560   5.680
 1588BOLB   GL338103  14.940  11.730   5.940
 1588BOLB   GL438104  14.810  11.620   6.170
 1588BOLB   C1C38105  14.630  12.060   5.990
 1588BOLB   C2C38106  14.270  12.440   5.990
 1588BOLB   C3C38107  14.050  12.670   6.280
 1588BOLB   C4C38108  13.950  13.000   6.420
 1588BOLB   C1D38109  14.570  11.950   6.410
 1588BOLB   C2D38110  14.240  12.280   6.550
 1588BOLB   C3D38111  13.950  12.620   6.760
 1588BOLB   C4D38112  13.620  12.890   6.820
 1589BOLB   NC138113   3.520  24.400  12.420
 1589BOLB   PO138114   3.480  24.850  12.600
 1589BOLB   GL138115   3.440  25.320  12.440
 1589BOLB   GL238116   3.190  25.360  12.650
 1589BOLB   C1A38117   3.170  25.710  12.320
 1589BOLB   C2A38118   3.180  25.960  12.100
 1589BOLB   C3A38119   2.980  26.220  12.110
 1589BOLB   C4A38120   2.870  26.540  11.900
 1589BOLB   C1B38121   2.780  25.400  12.560
 1589BOLB   C2B38122   2.480  25.290  12.360
 1589BOLB   C3B38123   2.110  25.410  12.110
 1589BOLB   C4B38124   1.950  25.300  11.760
 1589BOLB   NC238125   3.110  28.740  10.900
 1589BOLB   PO238126   3.410  28.670  11.100
 1589BOLB   GL338127   3.650  28.380  11.350
 1589BOLB   GL438128   3.670  28.200  11.050
 1589BOLB   C1C38129   3.550  28.120  11.670
 1589BOLB   C2C38130   3.380  27.650  11.560
 1589BOLB   C3C38131   3.080  27.350  11.830
 1589BOLB   C4C38132   2.880  27.020  11.860
 1589BOLB   C1D38133   3.550  28.030  10.690
 1589BOLB   C2D38134   3.720  27.530  10.600
 1589BOLB   C3D38135   3.980  27.410  10.320
 1589BOLB   C4D38136   4.120  27.430   9.990
 1590BOLB   NC138137  17.980  15.420  10.860
 1590BOLB   PO138138  18.400  15.300  10.590
 1590BOLB   GL138139  18.770  15.100  10.610
 1590BOLB   GL238140  18.720  14.830  10.680
 1590BOLB   C1A38141  19.000  15.050  10.340
 1590BOLB   C2A38142  19.250  14.850  10.060
 1590BOLB   C3A38143  19.640  14.780  10.020
 1590BOLB   C4A38144  19.960  14.800   9.740
 1590BOLB   C1B38145  19.110  14.580  10.540
 1590BOLB   C2B38146  19.310  14.140  10.370
 1590BOLB   C3B38147  19.540  13.860  10.620
 1590BOLB   C4B38148  19.450  13.690  11.170
 1590BOLB   NC238149  21.770  14.980   7.490
 1590BOLB   PO238150  21.750  14.930   7.910
 1590BOLB   GL338151  21.520  15.100   8.290
 1590BOLB   GL438152  21.270  15.370   8.350
 1590BOLB   C1C38153  21.200  14.960   8.680
 1590BOLB   C2C38154  20.940  14.650   9.000
 1590BOLB   C3C38155  20.700  14.700   9.450
 1590BOLB   C4C38156  20.310  14.750   9.420
 1590BOLB   C1D38157  20.960  15.410   8.530
 1590BOLB   C2D38158  20.760  15.270   8.810
 1590BOLB   C3D38159  20.360  14.970   8.960
 1590BOLB   C4D38160  19.950  14.910   9.030
 1591BOLB   NC138161  12.650  17.460   6.640
 1591BOLB   PO138162  12.930  17.730   6.700
 1591BOLB   GL138163  13.190  17.570   6.430
 1591BOLB   GL238164  12.920  17.520   6.230
 1591BOLB   C1A38165  13.420  17.690   6.030
 1591BOLB   C2A38166  13.490  17.490   5.550
 1591BOLB   C3A38167  13.390  17.600   5.220
 1591BOLB   C4A38168  13.430  17.250   4.870
 1591BOLB   C1B38169  13.070  17.300   5.920
 1591BOLB   C2B38170  13.180  17.020   5.650
 1591BOLB   C3B38171  12.890  16.900   5.300
 1591BOLB   C4B38172  12.880  16.870   4.910
 1591BOLB   NC238173  12.560  16.870   2.550
 1591BOLB   PO238174  12.960  17.010   2.660
 1591BOLB   GL338175  13.010  17.000   3.120
 1591BOLB   GL438176  12.770  16.960   3.420
 1591BOLB   C1C38177  13.360  16.930   3.340
 1591BOLB   C2C38178  13.670  16.860   3.710
 1591BOLB   C3C38179  13.810  17.010   4.130
 1591BOLB   C4C38180  13.600  17.110   4.510
 1591BOLB   C1D38181  12.470  16.990   3.810
 1591BOLB   C2D38182  11.930  16.980   3.850
 1591BOLB   C3D38183  11.670  16.950   4.200
 1591BOLB   C4D38184  11.520  16.760   4.510
 1592BOLB   NC138185   9.990  12.020  10.130
 1592BOLB   PO138186   9.740  12.100  10.470
 1592BOLB   GL138187   9.640  11.670  10.280
 1592BOLB   GL238188   9.790  11.530  10.020
 1592BOLB   C1A38189   9.300  11.410   9.960
 1592BOLB   C2A38190   9.150  11.110   9.720
 1592BOLB   C3A38191   8.980  10.780   9.590
 1592BOLB   C4A38192   8.930  10.460   9.330
 1592BOLB   C1B38193   9.670  11.330   9.610
 1592BOLB   C2B38194   9.900  11.140   9.260
 1592BOLB   C3B38195  10.040  11.230   8.930
 1592BOLB   C4B38196  10.160  10.980   8.590
 1592BOLB   NC238197   9.970   8.200   8.940
 1592BOLB   PO238198   9.900   8.510   8.600
 1592BOLB   GL338199   9.530   8.830   8.730
 1592BOLB   GL438200   9.200   8.890   8.660
 1592BOLB   C1C38201   9.460   9.270   8.920
 1592BOLB   C2C38202   9.490   9.650   8.740
 1592BOLB   C3C38203   9.480   9.920   9.020
 1592BOLB   C4C38204   9.290  10.180   9.300
 1592BOLB   C1D38205   9.050   9.330   8.650
 1592BOLB   C2D38206   9.000   9.650   8.920
 1592BOLB   C3D38207   9.140   9.730   9.350
 1592BOLB   C4D38208   8.990   9.640   9.730
 1593BOLB   NC138209  16.990  25.500  15.830
 1593BOLB   PO138210  16.720  25.790  16.000
 1593BOLB   GL138211  17.090  25.960  15.990
 1593BOLB   GL238212  17.120  25.940  15.680
 1593BOLB   C1A38213  17.500  26.200  16.000
 1593BOLB   C2A38214  17.850  26.400  16.180
 1593BOLB   C3A38215  18.230  26.580  16.190
 1593BOLB   C4A38216  18.320  27.040  16.200
 1593BOLB   C1B38217  17.360  26.140  15.460
 1593BOLB   C2B38218  17.480  26.550  15.340
 1593BOLB   C3B38219  17.610  26.940  15.080
 1593BOLB   C4B38220  17.530  27.330  14.830
 1593BOLB   NC238221  19.290  28.750  15.500
 1593BOLB   PO238222  19.050  29.000  15.740
 1593BOLB   GL338223  18.870  28.610  15.730
 1593BOLB   GL438224  18.770  28.430  15.380
 1593BOLB   C1C38225  19.000  28.220  15.890
 1593BOLB   C2C38226  18.810  27.870  15.980
 1593BOLB   C3C38227  18.730  27.540  16.290
 1593BOLB   C4C38228  18.520  27.330  16.420
 1593BOLB   C1D38229  18.690  28.040  15.540
 1593BOLB   C2D38230  18.590  27.510  15.670
 1593BOLB   C3D38231  18.160  27.370  15.620
 1593BOLB   C4D38232  17.850  27.450  15.270
 1594BOLB   NC138233  18.080  23.450  17.290
 1594BOLB   PO138234  18.150  23.230  17.700
 1594BOLB   GL138235  18.520  23.330  17.890
 1594BOLB   GL238236  18.610  23.460  17.600
 1594BOLB   C1A38237  18.820  23.680  18.000
 1594BOLB   C2A38238  19.260  23.570  17.790
 1594BOLB   C3A38239  19.630  23.620  18.050
 1594BOLB   C4A38240  19.920  23.830  18.230
 1594BOLB   C1B38241  18.900  23.160  17.660
 1594BOLB   C2B38242  19.100  22.790  17.740
 1594BOLB   C3B38243  19.370  22.540  17.930
 1594BOLB   C4B38244  19.720  22.320  18.000
 1594BOLB   NC238245  21.310  24.710  19.890
 1594BOLB   PO238246  21.250  24.290  20.000
 1594BOLB   GL338247  21.210  24.250  19.680
 1594BOLB   GL438248  21.210  23.890  19.630
 1594BOLB   C1C38249  20.920  24.220  19.280
 1594BOLB   C2C38250  20.670  24.160  18.890
 1594BOLB   C3C38251  20.390  24.430  18.710
 1594BOLB   C4C38252  20.050  24.280  18.440
 1594BOLB   C1D38253  20.940  23.640  19.340
 1594BOLB   C2D38254  20.620  23.510  19.060
 1594BOLB   C3D38255  20.540  23.550  18.660
 1594BOLB   C4D38256  20.110  23.590  18.640
 1595BOLB   NC138257  13.570  29.370  21.290
 1595BOLB   PO138258  13.970  29.410  21.280
 1595BOLB   GL138259  13.920  28.960  21.150
 1595BOLB   GL238260  14.050  29.110  20.820
 1595BOLB   C1A38261  13.950  28.640  20.870
 1595BOLB   C2A38262  14.080  28.470  20.430
 1595BOLB   C3A38263  14.360  28.250  20.170
 1595BOLB   C4A38264  14.420  28.390  19.820
 1595BOLB   C1B38265  13.640  29.120  20.620
 1595BOLB   C2B38266  13.300  29.200  20.370
 1595BOLB   C3B38267  12.720  29.230  20.310
 1595BOLB   C4B38268  12.350  29.050  20.100
 1595BOLB   NC238269  15.490  30.440  19.940
 1595BOLB   PO238270  15.060  30.420  19.950
 1595BOLB   GL338271  14.970  29.950  19.710
 1595BOLB   GL438272  15.040  29.980  19.400
 1595BOLB   C1C38273  14.770  29.540  19.470
 1595BOLB   C2C38274  14.750  29.210  19.220
 1595BOLB   C3C38275  14.560  28.840  19.130
 1595BOLB   C4C38276  14.570  28.500  19.430
 1595BOLB   C1D38277  14.950  29.850  19.040
 1595BOLB   C2D38278  14.740  29.530  18.850
 1595BOLB   C3D38279  14.380  29.180  18.730
 1595BOLB   C4D38280  14.210  28.740  18.760
 1596BOLB   NC138281   2.630  23.290  15.990
 1596BOLB   PO138282   2.340  23.590  16.120
 1596BOLB   GL138283   1.970  23.940  16.190
 1596BOLB   GL238284   1.910  24.210  16.260
 1596BOLB   C1A38285   1.490  23.930  16.160
 1596BOLB   C2A38286   1.110  24.130  16.280
 1596BOLB   C3A38287   0.770  24.340  16.420
 1596BOLB   C4A38288   0.370  24.390  16.680
 1596BOLB   C1B38289   1.570  24.430  16.290
 1596BOLB   C2B38290   1.240  24.700  16.330
 1596BOLB   C3B38291   0.900  24.800  16.180
 1596BOLB   C4B38292   0.640  25.010  15.870
 1596BOLB   NC238293  34.350  25.070  17.310
 1596BOLB   PO238294  34.590  24.880  16.960
 1596BOLB   GL338295  34.970  24.670  16.970
 1596BOLB   GL438296  34.920  24.480  17.270
 1596BOLB   C1C38297  35.300  24.840  16.730
 1596BOLB   C2C38298  35.690  25.020  16.620
 1596BOLB   C3C38299  36.050  24.900  16.570
 1596BOLB   C4C38300  36.330  24.590  16.470
 1596BOLB   C1D38301  35.120  24.090  17.180
 1596BOLB   C2D38302  35.440  23.830  17.090
 1596BOLB   C3D38303  35.810  23.750  16.990
 1596BOLB   C4D38304  36.160  23.550  17.000
 1597BOLB   NC138305  10.320  19.420   6.640
 1597BOLB   PO138306  10.270  19.000   6.690
 1597BOLB   GL138307   9.960  19.120   6.400
 1597BOLB   GL238308   9.810  19.240   6.540
 1597BOLB   C1A38309   9.590  18.980   6.100
 1597BOLB   C2A38310   9.340  18.990   5.690
 1597BOLB   C3A38311   9.410  18.940   5.300
 1597BOLB   C4A38312   9.730  18.950   4.960
 1597BOLB   C1B38313   9.380  19.320   6.420
 1597BOLB   C2B38314   9.310  19.530   6.050
 1597BOLB   C3B38315   9.370  19.700   5.610
 1597BOLB   C4B38316   9.070  19.870   5.280
 1597BOLB   NC238317  10.310  19.720   2.090
 1597BOLB   PO238318  10.090  19.640   2.480
 1597BOLB   GL338319  10.220  19.650   2.970
 1597BOLB   GL438320  10.430  19.470   3.100
 1597BOLB   C1C38321  10.080  19.670   3.390
 1597BOLB   C2C38322  10.150  19.660   3.790
 1597BOLB   C3C38323  10.110  19.460   4.230
 1597BOLB   C4C38324  10.000  19.260   4.610
 1597BOLB   C1D38325  10.560  19.370   3.540
 1597BOLB   C2D38326  10.590  19.230   3.990
 1597BOLB   C3D38327  10.570  19.070   4.320
 1597BOLB   C4D38328  10.650  18.850   4.650
 1598BOLB   NC138329   4.910  20.810   8.850
 1598BOLB   PO138330   5.180  20.480   8.680
 1598BOLB   GL138331   4.830  20.560   8.400
 1598BOLB   GL238332   4.540  20.570   8.610
 1598BOLB   C1A38333   4.840  20.910   8.110
 1598BOLB   C2A38334   4.840  21.100   7.710
 1598BOLB   C3A38335   4.660  20.980   7.280
 1598BOLB   C4A38336   4.380  20.770   6.990
 1598BOLB   C1B38337   4.330  20.630   8.230
 1598BOLB   C2B38338   4.040  20.680   7.880
 1598BOLB   C3B38339   3.930  20.710   7.420
 1598BOLB   C4B38340   3.680  20.830   7.050
 1598BOLB   NC238341   2.580  21.510   5.430
 1598BOLB   PO238342   2.820  21.620   5.740
 1598BOLB   GL338343   2.890  21.470   6.110
 1598BOLB   GL438344   3.240  21.600   6.150
 1598BOLB   C1C38345   2.940  21.150   6.410
 1598BOLB   C2C38346   3.340  21.010   6.600
 1598BOLB   C3C38347   3.770  20.860   6.490
 1598BOLB   C4C38348   4.290  20.770   6.600
 1598BOLB   C1D38349   3.380  21.980   6.350
 1598BOLB   C2D38350   3.670  22.190   6.490
 1598BOLB   C3D38351   3.830  22.640   6.690
 1598BOLB   C4D38352   3.930  23.030   6.840
 1599BOLB   NC138353  17.860  21.480   9.900
 1599BOLB   PO138354  17.660  21.710   9.530
 1599BOLB   GL138355  17.800  21.980   9.240
 1599BOLB   GL238356  17.620  22.250   9.120
 1599BOLB   C1A38357  18.210  22.040   8.950
 1599BOLB   C2A38358  18.490  22.300   8.650
 1599BOLB   C3A38359  18.620  22.800   8.670
 1599BOLB   C4A38360  18.840  23.120   8.670
 1599BOLB   C1B38361  17.900  22.350   8.670
 1599BOLB   C2B38362  17.920  22.380   8.270
 1599BOLB   C3B38363  18.130  22.680   7.980
 1599BOLB   C4B38364  18.480  22.810   7.800
 1599BOLB   NC238365  19.900  23.110   6.230
 1599BOLB   PO238366  19.720  23.350   6.490
 1599BOLB   GL338367  19.660  23.420   6.930
 1599BOLB   GL438368  19.850  23.660   7.180
 1599BOLB   C1C38369  19.670  23.240   7.340
 1599BOLB   C2C38370  19.610  23.320   7.720
 1599BOLB   C3C38371  19.350  23.290   8.020
 1599BOLB   C4C38372  18.940  23.350   8.350
 1599BOLB   C1D38373  19.380  23.640   7.390
 1599BOLB   C2D38374  19.100  23.570   7.720
 1599BOLB   C3D38375  18.900  23.820   8.010
 1599BOLB   C4D38376  18.440  24.060   8.140
 1600BOLB   NC138377   6.400  22.990   9.190
 1600BOLB   PO138378   6.050  23.070   9.420
 1600BOLB   GL138379   5.950  23.250   9.000
 1600BOLB   GL238380   6.220  23.460   8.920
 1600BOLB   C1A38381   5.730  23.320   8.640
 1600BOLB   C2A38382   5.370  23.270   8.470
 1600BOLB   C3A38383   5.180  23.360   8.230
 1600BOLB   C4A38384   5.030  23.330   7.790
 1600BOLB   C1B38385   6.000  23.690   8.750
 1600BOLB   C2B38386   6.100  24.050   8.480
 1600BOLB   C3B38387   6.270  24.500   8.360
 1600BOLB   C4B38388   6.600  24.700   8.540
 1600BOLB   NC238389   4.560  24.710   5.750
 1600BOLB   PO238390   5.010  24.720   5.850
 1600BOLB   GL338391   5.070  24.550   6.340
 1600BOLB   GL438392   5.400  24.400   6.240
 1600BOLB   C1C38393   5.030  24.190   6.510
 1600BOLB   C2C38394   5.100  23.840   6.730
 1600BOLB   C3C38395   4.740  23.650   7.070
 1600BOLB   C4C38396   4.820  23.340   7.430
 1600BOLB   C1D38397   5.660  24.000   6.490
 1600BOLB   C2D38398   5.990  23.800   6.720
 1600BOLB   C3D38399   6.270  23.590   6.930
 1600BOLB   C4D38400   6.590  23.620   7.010
 1601BOLB   NC138401  14.040  25.320  10.800
 1601BOLB   PO138402  14.070  25.590  10.540
 1601BOLB   GL138403  14.330  25.840  10.190
 1601BOLB   GL238404  14.100  26.050  10.120
 1601BOLB   C1A38405  14.660  26.040  10.040
 1601BOLB   C2A38406  15.040  26.130   9.870
 1601BOLB   C3A38407  15.400  26.020   9.720
 1601BOLB   C4A38408  15.650  25.970   9.390
 1601BOLB   C1B38409  13.920  26.380   9.940
 1601BOLB   C2B38410  13.630  26.560   9.760
 1601BOLB   C3B38411  13.620  26.950   9.540
 1601BOLB   C4B38412  13.230  27.200   9.460
 1601BOLB   NC238413  16.690  27.700   8.020
 1601BOLB   PO238414  16.970  27.560   8.390
 1601BOLB   GL338415  16.730  27.220   8.210
 1601BOLB   GL438416  16.920  27.060   7.880
 1601BOLB   C1C38417  16.840  26.810   8.380
 1601BOLB   C2C38418  16.530  26.440   8.470
 1601BOLB   C3C38419  16.280  26.220   8.790
 1601BOLB   C4C38420  16.070  26.020   9.160
 1601BOLB   C1D38421  16.710  26.620   7.860
 1601BOLB   C2D38422  16.380  26.400   8.020
 1601BOLB   C3D38423  16.200  26.010   8.290
 1601BOLB   C4D38424  15.760  25.840   8.310
 1602BOLB   NC138425  14.020  26.450  18.200
 1602BOLB   PO138426  14.320  26.110  18.500
 1602BOLB   GL138427  14.410  26.510  18.610
 1602BOLB   GL238428  14.250  26.800  18.450
 1602BOLB   C1A38429  14.620  26.740  18.770
 1602BOLB   C2A38430  14.860  26.870  19.170
 1602BOLB   C3A38431  15.000  27.250  19.430
 1602BOLB   C4A38432  15.430  27.400  19.440
 1602BOLB   C1B38433  14.310  27.170  18.710
 1602BOLB   C2B38434  14.320  27.580  18.800
 1602BOLB   C3B38435  14.210  27.940  18.980
 1602BOLB   C4B38436  14.090  28.270  19.240
 1602BOLB   NC238437  16.310  29.190  20.800
 1602BOLB   PO238438  16.520  28.950  20.530
 1602BOLB   GL338439  16.680  28.620  20.380
 1602BOLB   GL438440  16.380  28.360  20.480
 1602BOLB   C1C38441  16.530  28.530  19.920
 1602BOLB   C2C38442  16.390  28.180  19.600
 1602BOLB   C3C38443  16.170  27.840  19.530
 1602BOLB   C4C38444  15.920  27.580  19.440
 1602BOLB   C1D38445  16.310  28.040  20.190
 1602BOLB   C2D38446  16.160  27.610  20.040
 1602BOLB   C3D38447  16.260  27.260  19.630
 1602BOLB   C4D38448  16.430  26.880  19.420
 1603BOLB   NC138449   4.230  25.420  18.330
 1603BOLB   PO138450   3.910  25.030  18.240
 1603BOLB   GL138451   3.720  25.450  18.280
 1603BOLB   GL238452   3.340  25.350  18.370
 1603BOLB   C1A38453   3.560  25.740  18.570
 1603BOLB   C2A38454   3.280  25.940  18.670
 1603BOLB   C3A38455   3.020  26.180  18.910
 1603BOLB   C4A38456   3.120  26.210  19.380
 1603BOLB   C1B38457   2.990  25.580  18.480
 1603BOLB   C2B38458   2.760  25.750  18.650
 1603BOLB   C3B38459   2.330  25.700  18.870
 1603BOLB   C4B38460   1.910  25.500  18.970
 1603BOLB   NC238461   2.060  27.260  21.710
 1603BOLB   PO238462   2.110  27.360  21.210
 1603BOLB   GL338463   2.500  27.390  21.030
 1603BOLB   GL438464   2.800  27.140  21.170
 1603BOLB   C1C38465   2.570  27.140  20.640
 1603BOLB   C2C38466   2.780  27.100  20.200
 1603BOLB   C3C38467   2.950  26.750  20.080
 1603BOLB   C4C38468   3.180  26.490  19.720
 1603BOLB   C1D38469   2.990  26.910  20.810
 1603BOLB   C2D38470   3.310  26.700  20.660
 1603BOLB   C3D38471   3.470  26.310  20.480
 1603BOLB   C4D38472   3.690  26.030  20.100
 1604BOLB   NC138473  11.070  27.190  13.400
 1604BOLB   PO138474  11.350  27.200  13.080
 1604BOLB   GL138475  11.150  27.620  13.140
 1604BOLB   GL238476  11.160  27.790  13.370
 1604BOLB   C1A38477  10.890  27.680  12.790
 1604BOLB   C2A38478  10.810  28.000  12.520
 1604BOLB   C3A38479  10.830  28.440  12.340
 1604BOLB   C4A38480  11.000  28.760  12.070
 1604BOLB   C1B38481  11.220  28.310  13.350
 1604BOLB   C2B38482  11.370  28.650  13.140
 1604BOLB   C3B38483  11.520  29.000  12.790
 1604BOLB   C4B38484  11.370  29.400  12.580
 1604BOLB   NC238485  10.430  30.430  10.530
 1604BOLB   PO238486  10.410  30.540  10.990
 1604BOLB   GL338487  10.700  30.190  10.950
 1604BOLB   GL438488  10.970  30.390  10.940
 1604BOLB   C1C38489  10.610  29.830  11.180
 1604BOLB   C2C38490  10.790  29.530  11.230
 1604BOLB   C3C38491  10.700  29.150  11.340
 1604BOLB   C4C38492  10.920  28.960  11.680
 1604BOLB   C1D38493  11.180  30.050  11.100
 1604BOLB   C2D38494  11.270  29.750  11.440
 1604BOLB   C3D38495  11.010  29.460  11.660
 1604BOLB   C4D38496  10.760  29.540  11.970
 1605BOLB   NC138497   9.150  27.730  15.350
 1605BOLB   PO138498   8.850  27.410  15.680
 1605BOLB   GL138499   8.930  27.790  15.760
 1605BOLB   GL238500   9.250  27.950  15.850
 1605BOLB   C1A38501   8.980  28.310  15.670
 1605BOLB   C2A38502   8.940  28.600  15.520
 1605BOLB   C3A38503   9.060  29.010  15.600
 1605BOLB   C4A38504   9.060  29.390  15.880
 1605BOLB   C1B38505   9.430  28.410  16.010
 1605BOLB   C2B38506   9.130  28.790  16.040
 1605BOLB   C3B38507   9.220  29.210  16.290
 1605BOLB   C4B38508   9.290  29.670  16.300
 1605BOLB   NC238509   9.020  31.530  17.000
 1605BOLB   PO238510   8.670  31.350  16.750
 1605BOLB   GL338511   8.530  30.900  16.620
 1605BOLB   GL438512   8.260  30.890  16.350
 1605BOLB   C1C38513   8.800  30.760  16.390
 1605BOLB   C2C38514   9.010  30.430  16.280
 1605BOLB   C3C38515   9.200  30.090  16.040
 1605BOLB   C4C38516   9.110  29.750  15.830
 1605BOLB   C1D38517   8.410  30.500  16.400
 1605BOLB   C2D38518   8.100  30.100  16.360
 1605BOLB   C3D38519   8.240  29.810  15.980
 1605BOLB   C4D38520   8.570  29.600  15.920
 1606BOLB   NC138521   6.580  21.130   8.470
 1606BOLB   PO138522   6.550  21.220   8.860
 1606BOLB   GL138523   6.080  21.230   8.600
 1606BOLB   GL238524   6.110  20.930   8.270
 1606BOLB   C1A38525   5.840  21.390   8.170
 1606BOLB   C2A38526   5.850  21.400   7.790
 1606BOLB   C3A38527   5.850  21.570   7.410
 1606BOLB   C4A38528   5.510  21.690   7.060
 1606BOLB   C1B38529   6.050  20.960   7.850
 1606BOLB   C2B38530   5.930  21.060   7.460
 1606BOLB   C3B38531   5.700  21.130   7.110
 1606BOLB   C4B38532   5.630  21.260   6.640
 1606BOLB   NC238533   4.560  23.530   5.250
 1606BOLB   PO238534   4.910  23.230   5.230
 1606BOLB   GL338535   5.040  23.000   5.530
 1606BOLB   GL438536   5.160  23.310   5.630
 1606BOLB   C1C38537   5.270  22.710   5.810
 1606BOLB   C2C38538   5.330  22.310   6.020
 1606BOLB   C3C38539   5.260  21.960   6.350
 1606BOLB   C4C38540   5.370  21.670   6.650
 1606BOLB   C1D38541   5.540  23.020   5.510
 1606BOLB   C2D38542   5.950  23.050   5.610
 1606BOLB   C3D38543   6.030  22.980   5.900
 1606BOLB   C4D38544   6.400  22.940   5.990
 1607BOLB   NC138545  17.870  21.980   9.920
 1607BOLB   PO138546  18.080  21.790  10.170
 1607BOLB   GL138547  18.310  21.770   9.880
 1607BOLB   GL238548  18.720  21.720  10.060
 1607BOLB   C1A38549  18.410  21.840   9.430
 1607BOLB   C2A38550  18.630  22.180   9.130
 1607BOLB   C3A38551  18.960  22.190   8.790
 1607BOLB   C4A38552  19.090  22.470   8.550
 1607BOLB   C1B38553  18.830  21.930   9.620
 1607BOLB   C2B38554  19.000  21.910   9.290
 1607BOLB   C3B38555  19.150  21.750   8.970
 1607BOLB   C4B38556  19.570  21.690   8.880
 1607BOLB   NC238557  21.120  22.600   7.370
 1607BOLB   PO238558  21.270  22.660   7.730
 1607BOLB   GL338559  20.950  23.030   7.840
 1607BOLB   GL438560  20.930  23.120   8.120
 1607BOLB   C1C38561  20.460  23.070   7.890
 1607BOLB   C2C38562  20.060  22.900   7.840
 1607BOLB   C3C38563  19.630  22.840   8.150
 1607BOLB   C4C38564  19.420  22.710   8.460
 1607BOLB   C1D38565  20.750  22.700   8.120
 1607BOLB   C2D38566  20.760  22.370   8.490
 1607BOLB   C3D38567  20.700  21.990   8.620
 1607BOLB   C4D38568  20.740  21.650   8.900
 1608BOLB   NC138569  15.200  14.270   8.600
 1608BOLB   PO138570  14.900  14.080   8.480
 1608BOLB   GL138571  14.870  14.210   8.030
 1608BOLB   GL238572  15.170  14.400   8.010
 1608BOLB   C1A38573  15.000  13.910   7.620
 1608BOLB   C2A38574  15.180  13.780   7.160
 1608BOLB   C3A38575  15.310  13.730   6.720
 1608BOLB   C4A38576  15.180  13.570   6.280
 1608BOLB   C1B38577  15.280  13.870   8.070
 1608BOLB   C2B38578  15.400  13.520   7.770
 1608BOLB   C3B38579  15.480  13.290   7.490
 1608BOLB   C4B38580  15.580  13.360   7.060
 1608BOLB   NC238581  17.320  13.220   4.710
 1608BOLB   PO238582  17.130  13.490   4.580
 1608BOLB   GL338583  16.970  13.550   5.020
 1608BOLB   GL438584  17.010  13.860   5.250
 1608BOLB   C1C38585  16.520  13.620   5.270
 1608BOLB   C2C38586  16.060  13.620   5.240
 1608BOLB   C3C38587  15.730  13.590   5.580
 1608BOLB   C4C38588  15.280  13.620   5.870
 1608BOLB   C1D38589  16.730  14.030   5.530
 1608BOLB   C2D38590  16.230  13.790   5.690
 1608BOLB   C3D38591  15.780  13.810   6.070
 1608BOLB   C4D38592  15.550  13.940   6.280
 1609BOLB   NC138593   8.490  27.160  13.530
 1609BOLB   PO138594   8.360  27.400  13.900
 1609BOLB   GL138595   8.350  27.720  13.790
 1609BOLB   GL238596   8.630  27.680  13.550
 1609BOLB   C1A38597   8.370  28.110  13.650
 1609BOLB   C2A38598   8.460  28.550  13.520
 1609BOLB   C3A38599   8.220  28.840  13.230
 1609BOLB   C4A38600   7.820  29.030  13.010
 1609BOLB   C1B38601   8.670  28.090  13.260
 1609BOLB   C2B38602   8.590  28.410  13.040
 1609BOLB   C3B38603   8.560  28.810  12.900
 1609BOLB   C4B38604   8.400  29.240  12.940
 1609BOLB   NC238605   6.750  31.130  12.530
 1609BOLB   PO238606   7.150  31.170  12.820
 1609BOLB   GL338607   7.120  30.750  12.740
 1609BOLB   GL438608   7.460  30.780  12.900
 1609BOLB   C1C38609   6.920  30.420  12.640
 1609BOLB   C2C38610   7.180  29.980  12.820
 1609BOLB   C3C38611   7.290  29.630  12.840
 1609BOLB   C4C38612   7.480  29.200  12.910
 1609BOLB   C1D38613   7.390  30.360  13.080
 1609BOLB   C2D38614   7.240  30.170  13.390
 1609BOLB   C3D38615   7.350  29.970  13.790
 1609BOLB   C4D38616   7.600  30.200  14.140
 1610BOLB   NC138617  18.540  15.750  11.800
 1610BOLB   PO138618  18.700  15.510  11.410
 1610BOLB   GL138619  18.940  15.200  11.250
 1610BOLB   GL238620  19.110  14.940  11.500
 1610BOLB   C1A38621  19.180  14.970  10.880
 1610BOLB   C2A38622  19.510  14.720  10.780
 1610BOLB   C3A38623  19.740  14.650  10.490
 1610BOLB   C4A38624  20.040  14.870  10.590
 1610BOLB   C1B38625  19.360  14.670  11.680
 1610BOLB   C2B38626  19.660  14.510  12.000
 1610BOLB   C3B38627  19.850  14.160  11.960
 1610BOLB   C4B38628  20.210  13.880  11.820
 1610BOLB   NC238629  22.130  13.580  10.050
 1610BOLB   PO238630  22.110  13.970   9.860
 1610BOLB   GL338631  21.730  14.040  10.010
 1610BOLB   GL438632  21.670  14.160  10.340
 1610BOLB   C1C38633  21.350  14.320   9.940
 1610BOLB   C2C38634  21.180  14.620  10.250
 1610BOLB   C3C38635  20.750  14.720  10.260
 1610BOLB   C4C38636  20.450  14.940  10.410
 1610BOLB   C1D38637  21.430  14.320  10.520
 1610BOLB   C2D38638  21.190  14.570  10.720
 1610BOLB   C3D38639  20.800  14.740  10.770
 1610BOLB   C4D38640  20.480  15.020  10.980
 1611BOLB   NC138641  18.680  20.150  10.080
 1611BOLB   PO138642  18.460  19.750   9.950
 1611BOLB   GL138643  18.710  19.830   9.490
 1611BOLB   GL238644  18.930  19.980   9.510
 1611BOLB   C1A38645  18.790  19.670   9.060
 1611BOLB   C2A38646  18.990  19.640   8.720
 1611BOLB   C3A38647  19.120  19.600   8.290
 1611BOLB   C4A38648  19.310  19.720   7.860
 1611BOLB   C1B38649  19.310  20.080   9.470
 1611BOLB   C2B38650  19.710  20.040   9.360
 1611BOLB   C3B38651  20.160  19.900   9.190
 1611BOLB   C4B38652  20.540  20.040   9.070
 1611BOLB   NC238653  20.000  18.870   5.160
 1611BOLB   PO238654  19.960  19.060   5.680
 1611BOLB   GL338655  19.730  18.950   6.050
 1611BOLB   GL438656  19.400  19.090   6.130
 1611BOLB   C1C38657  19.810  18.940   6.440
 1611BOLB   C2C38658  19.570  19.230   6.710
 1611BOLB   C3C38659  19.370  19.400   7.190
 1611BOLB   C4C38660  19.410  19.580   7.480
 1611BOLB   C1D38661  19.000  19.280   6.280
 1611BOLB   C2D38662  18.710  19.400   6.640
 1611BOLB   C3D38663  18.240  19.470   6.460
 1611BOLB   C4D38664  17.850  19.760   6.640
 1612BOLB   NC138665   2.660  23.430  13.130
 1612BOLB   PO138666   2.370  23.590  13.440
 1612BOLB   GL138667   2.080  23.920  13.440
 1612BOLB   GL238668   1.870  23.840  13.630
 1612BOLB   C1A38669   1.720  23.810  13.050
 1612BOLB   C2A38670   1.620  24.040  12.670
 1612BOLB   C3A38671   1.290  24.260  12.390
 1612BOLB   C4A38672   0.950  24.640  12.350
 1612BOLB   C1B38673   1.480  24.050  13.450
 1612BOLB   C2B38674   1.050  24.250  13.490
 1612BOLB   C3B38675   0.730  24.580  13.560
 1612BOLB   C4B38676   0.450  24.730  13.240
 1612BOLB   NC238677   0.720  27.210  11.940
 1612BOLB   PO238678   0.540  26.850  11.840
 1612BOLB   GL338679   0.560  26.410  11.840
 1612BOLB   GL438680   0.630  26.340  12.140
 1612BOLB   C1C38681   0.650  25.970  11.750
 1612BOLB   C2C38682   0.540  25.700  11.970
 1612BOLB   C3C38683   0.620  25.290  11.990
 1612BOLB   C4C38684   0.710  24.870  12.000
 1612BOLB   C1D38685   0.930  26.010  12.190
 1612BOLB   C2D38686   1.100  25.620  12.240
 1612BOLB   C3D38687   1.400  25.330  12.370
 1612BOLB   C4D38688   1.430  24.850  12.470
 1613BOLB   NC138689  13.820  26.650  14.060
 1613BOLB   PO138690  14.000  26.620  13.680
 1613BOLB   GL138691  14.050  27.100  13.420
 1613BOLB   GL238692  14.310  27.130  13.230
 1613BOLB   C1A38693  14.020  27.560  13.290
 1613BOLB   C2A38694  13.860  27.930  13.320
 1613BOLB   C3A38695  13.990  28.390  13.460
 1613BOLB   C4A38696  14.310  28.740  13.590
 1613BOLB   C1B38697  14.550  27.430  13.120
 1613BOLB   C2B38698  14.890  27.640  12.960
 1613BOLB   C3B38699  15.350  27.620  13.060
 1613BOLB   C4B38700  15.630  27.650  13.080
 1613BOLB   NC238701  15.770  30.740  12.680
 1613BOLB   PO238702  15.870  30.410  12.700
 1613BOLB   GL338703  15.500  30.340  13.030
 1613BOLB   GL438704  15.510  30.400  13.330
 1613BOLB   C1C38705  15.130  30.160  13.080
 1613BOLB   C2C38706  15.120  29.700  13.060
 1613BOLB   C3C38707  14.930  29.330  13.350
 1613BOLB   C4C38708  14.710  29.000  13.610
 1613BOLB   C1D38709  15.600  29.890  13.370
 1613BOLB   C2D38710  15.300  29.540  13.560
 1613BOLB   C3D38711  15.050  29.220  13.820
 1613BOLB   C4D38712  14.950  29.030  14.220
 1614BOLB   NC138713   8.770  26.880  16.430
 1614BOLB   PO138714   8.520  27.280  16.560
 1614BOLB   GL138715   8.380  27.720  16.590
 1614BOLB   GL238716   8.170  27.690  16.800
 1614BOLB   C1A38717   8.170  28.160  16.540
 1614BOLB   C2A38718   7.850  28.380  16.340
 1614BOLB   C3A38719   7.520  28.570  16.510
 1614BOLB   C4A38720   7.170  28.740  16.580
 1614BOLB   C1B38721   7.930  27.930  17.160
 1614BOLB   C2B38722   8.130  28.300  17.490
 1614BOLB   C3B38723   7.920  28.530  17.890
 1614BOLB   C4B38724   7.530  28.460  18.140
 1614BOLB   NC238725   6.850  31.240  16.120
 1614BOLB   PO238726   7.100  31.110  16.640
 1614BOLB   GL338727   7.430  30.850  16.690
 1614BOLB   GL438728   7.650  30.910  16.550
 1614BOLB   C1C38729   7.450  30.420  16.690
 1614BOLB   C2C38730   7.280  29.910  16.930
 1614BOLB   C3C38731   7.110  29.560  16.940
 1614BOLB   C4C38732   6.940  29.120  16.910
 1614BOLB   C1D38733   7.800  30.560  16.380
 1614BOLB   C2D38734   8.070  30.480  16.030
 1614BOLB   C3D38735   8.160  30.230  15.690
 1614BOLB   C4D38736   8.240  29.880  15.460
 1615BOLB   NC138737  17.670  22.790  18.090
 1615BOLB   PO138738  17.960  22.460  18.160
 1615BOLB   GL138739  18.430  22.500  18.070
 1615BOLB   GL238740  18.550  22.680  18.410
 1615BOLB   C1A38741  18.890  22.460  18.060
 1615BOLB   C2A38742  19.160  22.490  18.380
 1615BOLB   C3A38743  19.660  22.470  18.550
 1615BOLB   C4A38744  20.080  22.480  18.770
 1615BOLB   C1B38745  18.870  23.020  18.180
 1615BOLB   C2B38746  19.340  23.070  18.110
 1615BOLB   C3B38747  19.720  22.790  18.160
 1615BOLB   C4B38748  20.130  22.650  18.230
 1615BOLB   NC238749  21.570  23.090  20.200
 1615BOLB   PO238750  21.580  23.430  20.000
 1615BOLB   GL338751  21.480  23.400  19.640
 1615BOLB   GL438752  21.240  23.360  19.630
 1615BOLB   C1C38753  21.510  23.010  19.420
 1615BOLB   C2C38754  21.300  22.670  19.280
 1615BOLB   C3C38755  20.950  22.570  19.110
 1615BOLB   C4C38756  20.500  22.560  18.870
 1615BOLB   C1D38757  20.990  23.150  19.250
 1615BOLB   C2D38758  20.770  23.000  18.860
 1615BOLB   C3D38759  20.370  23.080  18.770
 1615BOLB   C4D38760  20.010  22.960  18.600
 1616BOLB   NC138761  11.260  27.500  13.970
 1616BOLB   PO138762  10.840  27.570  13.730
 1616BOLB   GL138763  10.770  28.070  13.430
 1616BOLB   GL238764  10.480  28.170  13.500
 1616BOLB   C1A38765  10.680  28.300  12.960
 1616BOLB   C2A38766  10.680  28.770  13.070
 1616BOLB   C3A38767  10.590  29.170  13.200
 1616BOLB   C4A38768  10.710  29.410  13.450
 1616BOLB   C1B38769  10.640  28.570  13.560
 1616BOLB   C2B38770  10.980  28.940  13.460
 1616BOLB   C3B38771  11.050  29.210  13.130
 1616BOLB   C4B38772  10.880  29.560  12.990
 1616BOLB   NC238773  11.490  31.620  13.520
 1616BOLB   PO238774  11.460  31.620  13.980
 1616BOLB   GL338775  11.290  31.190  14.040
 1616BOLB   GL438776  11.350  31.000  14.290
 1616BOLB   C1C38777  11.400  30.820  13.850
 1616BOLB   C2C38778  11.180  30.420  13.680
 1616BOLB   C3C38779  11.030  30.060  13.700
 1616BOLB   C4C38780  10.900  29.690  13.830
 1616BOLB   C1D38781  11.220  30.660  14.270
 1616BOLB   C2D38782  11.190  30.210  14.130
 1616BOLB   C3D38783  11.470  29.840  14.000
 1616BOLB   C4D38784  11.600  29.430  13.990
 1617BOLB   NC138785   8.170  22.860   8.640
 1617BOLB   PO138786   8.610  23.040   8.520
 1617BOLB   GL138787   8.690  23.370   8.270
 1617BOLB   GL238788   8.610  23.660   8.420
 1617BOLB   C1A38789   8.920  23.560   7.950
 1617BOLB   C2A38790   8.820  23.860   7.620
 1617BOLB   C3A38791   8.480  23.920   7.400
 1617BOLB   C4A38792   8.460  24.090   7.070
 1617BOLB   C1B38793   8.680  24.100   8.260
 1617BOLB   C2B38794   8.600  24.650   8.110
 1617BOLB   C3B38795   8.660  25.120   8.090
 1617BOLB   C4B38796   8.430  25.420   7.800
 1617BOLB   NC238797   7.730  26.260   5.540
 1617BOLB   PO238798   7.600  25.990   5.860
 1617BOLB   GL338799   7.700  25.740   6.100
 1617BOLB   GL438800   7.520  25.680   6.320
 1617BOLB   C1C38801   7.940  25.400   6.180
 1617BOLB   C2C38802   8.190  24.990   6.260
 1617BOLB   C3C38803   8.400  24.660   6.440
 1617BOLB   C4C38804   8.450  24.490   6.930
 1617BOLB   C1D38805   7.680  25.600   6.660
 1617BOLB   C2D38806   7.740  25.570   7.070
 1617BOLB   C3D38807   7.960  25.420   7.410
 1617BOLB   C4D38808   8.390  25.230   7.270
 1618BOLB   NC138809  13.080  25.140  20.230
 1618BOLB   PO138810  13.440  25.410  20.420
 1618BOLB   GL138811  13.730  25.640  20.650
 1618BOLB   GL238812  14.020  25.650  20.520
 1618BOLB   C1A38813  13.910  25.780  20.990
 1618BOLB   C2A38814  13.890  25.920  21.370
 1618BOLB   C3A38815  13.720  25.860  21.640
 1618BOLB   C4A38816  13.590  26.070  21.930
 1618BOLB   C1B38817  14.350  25.740  20.720
 1618BOLB   C2B38818  14.410  25.870  21.140
 1618BOLB   C3B38819  14.760  25.970  21.480
 1618BOLB   C4B38820  15.110  26.130  21.740
 1618BOLB   NC238821  13.740  27.770  23.500
 1618BOLB   PO238822  13.590  28.170  23.250
 1618BOLB   GL338823  13.670  27.890  22.960
 1618BOLB   GL438824  13.680  28.070  22.710
 1618BOLB   C1C38825  13.610  27.380  23.000
 1618BOLB   C2C38826  13.610  27.110  22.680
 1618BOLB   C3C38827  13.550  26.820  22.310
 1618BOLB   C4C38828  13.690  26.430  22.290
 1618BOLB   C1D38829  13.720  28.040  22.210
 1618BOLB   C2D38830  13.570  27.580  21.970
 1618BOLB   C3D38831  13.670  27.170  22.020
 1618BOLB   C4D38832  14.010  26.880  21.750
 1619BOLB   NC138833   6.140  26.470  17.690
 1619BOLB   PO138834   5.670  26.690  17.730
 1619BOLB   GL138835   5.590  27.050  18.130
 1619BOLB   GL238836   5.660  26.870  18.380
 1619BOLB   C1A38837   5.330  27.470  18.300
 1619BOLB   C2A38838   5.220  27.840  18.340
 1619BOLB   C3A38839   5.060  28.200  18.290
 1619BOLB   C4A38840   4.790  28.430  18.170
 1619BOLB   C1B38841   5.530  27.070  18.700
 1619BOLB   C2B38842   5.260  27.120  19.010
 1619BOLB   C3B38843   4.840  27.240  19.170
 1619BOLB   C4B38844   4.450  27.320  19.340
 1619BOLB   NC238845   4.650  30.430  17.810
 1619BOLB   PO238846   4.370  30.430  18.130
 1619BOLB   GL338847   4.270  30.030  17.880
 1619BOLB   GL438848   4.500  30.010  17.590
 1619BOLB   C1C38849   4.170  29.590  17.900
 1619BOLB   C2C38850   4.070  29.190  18.030
 1619BOLB   C3C38851   4.230  28.840  18.070
 1619BOLB   C4C38852   4.510  28.640  18.150
 1619BOLB   C1D38853   4.920  29.780  17.600
 1619BOLB   C2D38854   4.900  29.280  17.590
 1619BOLB   C3D38855   5.220  29.110  17.450
 1619BOLB   C4D38856   5.470  28.970  17.110
 1620BOLB   NC138857  11.670  24.890   9.730
 1620BOLB   PO138858  11.730  24.710   9.430
 1620BOLB   GL138859  11.450  24.850   9.190
 1620BOLB   GL238860  11.480  24.830   8.930
 1620BOLB   C1A38861  11.240  25.250   9.090
 1620BOLB   C2A38862  11.140  25.700   9.190
 1620BOLB   C3A38863  11.130  26.120   9.100
 1620BOLB   C4A38864  11.150  26.490   9.000
 1620BOLB   C1B38865  11.190  24.860   8.660
 1620BOLB   C2B38866  10.940  24.990   8.450
 1620BOLB   C3B38867  10.680  25.130   8.000
 1620BOLB   C4B38868  10.480  25.300   7.570
 1620BOLB   NC238869  11.970  28.600   7.760
 1620BOLB   PO238870  11.440  28.490   7.720
 1620BOLB   GL338871  11.290  28.260   7.950
 1620BOLB   GL438872  11.330  28.510   8.270
 1620BOLB   C1C38873  11.450  27.910   8.210
 1620BOLB   C2C38874  11.690  27.560   8.400
 1620BOLB   C3C38875  11.500  27.140   8.590
 1620BOLB   C4C38876  11.220  26.940   8.930
 1620BOLB   C1D38877  11.170  28.160   8.470
 1620BOLB   C2D38878  11.280  27.830   8.720
 1620BOLB   C3D38879  11.160  27.520   8.870
 1620BOLB   C4D38880  11.110  27.290   9.330
 1621BOLB   NC138881  20.950  12.920   8.570
 1621BOLB   PO138882  20.880  12.680   8.820
 1621BOLB   GL138883  20.630  12.970   9.000
 1621BOLB   GL238884  20.660  13.160   9.340
 1621BOLB   C1A38885  20.200  13.050   9.130
 1621BOLB   C2A38886  19.830  13.370   9.210
 1621BOLB   C3A38887  19.550  13.700   9.220
 1621BOLB   C4A38888  19.110  13.700   9.420
 1621BOLB   C1B38889  20.670  13.340   9.810
 1621BOLB   C2B38890  20.600  13.800  10.140
 1621BOLB   C3B38891  20.170  13.970  10.040
 1621BOLB   C4B38892  19.830  14.160  10.310
 1621BOLB   NC238893  18.950  11.390   7.970
 1621BOLB   PO238894  19.280  11.690   7.840
 1621BOLB   GL338895  19.240  11.890   8.290
 1621BOLB   GL438896  18.930  11.720   8.360
 1621BOLB   C1C38897  19.100  12.330   8.530
 1621BOLB   C2C38898  19.020  12.810   8.550
 1621BOLB   C3C38899  19.050  13.030   8.970
 1621BOLB   C4C38900  18.910  13.270   9.420
 1621BOLB   C1D38901  18.660  12.150   8.380
 1621BOLB   C2D38902  18.680  12.480   8.690
 1621BOLB   C3D38903  18.630  12.790   9.010
 1621BOLB   C4D38904  18.440  13.280   9.070
 1622BOLB   NC138905   9.660  10.860  16.020
 1622BOLB   PO138906   9.210  10.750  15.990
 1622BOLB   GL138907   9.030  10.420  16.110
 1622BOLB   GL238908   9.000  10.430  16.420
 1622BOLB   C1A38909   8.950   9.950  16.200
 1622BOLB   C2A38910   9.120   9.540  16.570
 1622BOLB   C3A38911   9.260   9.130  16.590
 1622BOLB   C4A38912   9.250   8.810  16.310
 1622BOLB   C1B38913   8.840  10.050  16.680
 1622BOLB   C2B38914   8.560   9.810  16.600
 1622BOLB   C3B38915   8.390   9.420  16.460
 1622BOLB   C4B38916   8.350   9.210  16.060
 1622BOLB   NC238917   7.430   7.410  16.350
 1622BOLB   PO238918   7.190   7.670  16.170
 1622BOLB   GL338919   7.650   7.750  16.040
 1622BOLB   GL438920   7.800   7.880  16.390
 1622BOLB   C1C38921   8.020   7.820  15.870
 1622BOLB   C2C38922   8.460   7.890  15.820
 1622BOLB   C3C38923   8.800   8.000  16.110
 1622BOLB   C4C38924   9.020   8.460  16.220
 1622BOLB   C1D38925   8.000   8.360  16.480
 1622BOLB   C2D38926   7.840   8.570  16.740
 1622BOLB   C3D38927   7.420   8.760  16.900
 1622BOLB   C4D38928   7.180   8.870  17.140
 1623BOLB   NC138929  18.310  14.630  12.560
 1623BOLB   PO138930  18.230  14.430  12.130
 1623BOLB   GL138931  18.400  14.020  12.130
 1623BOLB   GL238932  18.390  13.720  12.350
 1623BOLB   C1A38933  18.680  13.950  11.860
 1623BOLB   C2A38934  19.040  13.830  11.810
 1623BOLB   C3A38935  19.180  13.510  11.580
 1623BOLB   C4A38936  19.390  13.170  11.370
 1623BOLB   C1B38937  18.770  13.470  12.210
 1623BOLB   C2B38938  19.050  13.030  12.270
 1623BOLB   C3B38939  19.060  12.600  12.040
 1623BOLB   C4B38940  18.890  12.390  11.680
 1623BOLB   NC238941  21.740  12.570  10.300
 1623BOLB   PO238942  21.570  12.360  10.590
 1623BOLB   GL338943  21.240  12.360  10.850
 1623BOLB   GL438944  21.340  12.460  11.150
 1623BOLB   C1C38945  20.830  12.560  10.940
 1623BOLB   C2C38946  20.410  12.430  11.040
 1623BOLB   C3C38947  20.080  12.720  11.100
 1623BOLB   C4C38948  19.720  12.980  11.290
 1623BOLB   C1D38949  20.940  12.620  11.410
 1623BOLB   C2D38950  20.590  12.960  11.180
 1623BOLB   C3D38951  20.200  13.210  11.130
 1623BOLB   C4D38952  20.050  13.560  10.870
 1624BOLB   NC138953  11.610  10.480  15.130
 1624BOLB   PO138954  11.450  10.320  14.790
 1624BOLB   GL138955  11.530   9.960  15.110
 1624BOLB   GL238956  11.250  10.170  15.220
 1624BOLB   C1A38957  11.300   9.550  15.060
 1624BOLB   C2A38958  11.270   9.230  14.870
 1624BOLB   C3A38959  11.600   8.940  14.720
 1624BOLB   C4A38960  11.700   8.520  14.840
 1624BOLB   C1B38961  10.990   9.930  15.410
 1624BOLB   C2B38962  10.960   9.470  15.400
 1624BOLB   C3B38963  10.900   9.170  15.200
 1624BOLB   C4B38964  11.000   8.720  15.230
 1624BOLB   NC238965  13.150   6.540  13.880
 1624BOLB   PO238966  13.210   6.540  14.380
 1624BOLB   GL338967  13.060   6.920  14.300
 1624BOLB   GL438968  12.770   6.930  14.170
 1624BOLB   C1C38969  12.730   7.100  14.600
 1624BOLB   C2C38970  12.450   7.400  14.810
 1624BOLB   C3C38971  12.270   7.820  14.770
 1624BOLB   C4C38972  11.980   8.080  14.900
 1624BOLB   C1D38973  12.350   7.130  14.280
 1624BOLB   C2D38974  11.900   7.000  14.200
 1624BOLB   C3D38975  11.490   7.240  14.050
 1624BOLB   C4D38976  11.500   7.610  14.220
 1625BOLB   NC138977  18.840   8.980  14.770
 1625BOLB   PO138978  18.790   9.000  15.120
 1625BOLB   GL138979  18.820   9.440  15.000
 1625BOLB   GL238980  18.810   9.510  15.360
 1625BOLB   C1A38981  18.560   9.750  14.940
 1625BOLB   C2A38982  18.330   9.990  15.310
 1625BOLB   C3A38983  18.090  10.270  15.510
 1625BOLB   C4A38984  17.860  10.590  15.660
 1625BOLB   C1B38985  18.750   9.830  15.760
 1625BOLB   C2B38986  18.630  10.220  15.720
 1625BOLB   C3B38987  18.480  10.720  15.610
 1625BOLB   C4B38988  18.620  11.030  15.760
 1625BOLB   NC238989  18.400   8.880  16.960
 1625BOLB   PO238990  18.710   9.140  17.010
 1625BOLB   GL338991  18.640   9.480  16.840
 1625BOLB   GL438992  18.760   9.490  16.540
 1625BOLB   C1C38993  18.340   9.740  16.700
 1625BOLB   C2C38994  18.030  10.080  16.610
 1625BOLB   C3C38995  17.870  10.420  16.350
 1625BOLB   C4C38996  17.620  10.750  16.120
 1625BOLB   C1D38997  18.410   9.680  16.220
 1625BOLB   C2D38998  18.240   9.960  15.890
 1625BOLB   C3D38999  17.890  10.090  15.930
 1625BOLB   C4D39000  17.460  10.320  15.830
 1626BOLB   NC139001  15.230  14.520  19.680
 1626BOLB   PO139002  14.790  14.560  19.780
 1626BOLB   GL139003  14.950  14.210  20.000
 1626BOLB   GL239004  15.270  14.340  20.120
 1626BOLB   C1A39005  15.140  13.840  20.050
 1626BOLB   C2A39006  15.020  13.420  19.900
 1626BOLB   C3A39007  15.050  12.980  19.980
 1626BOLB   C4A39008  15.280  12.650  20.240
 1626BOLB   C1B39009  15.380  14.140  20.410
 1626BOLB   C2B39010  15.430  13.810  20.680
 1626BOLB   C3B39011  15.670  13.500  20.740
 1626BOLB   C4B39012  15.680  13.180  20.970
 1626BOLB   NC239013  15.470  11.030  22.090
 1626BOLB   PO239014  15.890  10.840  21.810
 1626BOLB   GL339015  15.780  11.250  21.700
 1626BOLB   GL439016  15.570  11.290  21.510
 1626BOLB   C1C39017  15.960  11.610  21.500
 1626BOLB   C2C39018  15.840  11.920  21.110
 1626BOLB   C3C39019  15.570  12.170  21.000
 1626BOLB   C4C39020  15.420  12.410  20.580
 1626BOLB   C1D39021  15.580  11.400  21.100
 1626BOLB   C2D39022  15.510  11.600  20.610
 1626BOLB   C3D39023  15.790  11.840  20.610
 1626BOLB   C4D39024  16.260  11.870  20.680
 1627BOLB   NC139025  18.780  16.780  16.590
 1627BOLB   PO139026  19.160  16.920  17.100
 1627BOLB   GL139027  19.520  16.720  17.140
 1627BOLB   GL239028  19.640  16.400  17.020
 1627BOLB   C1A39029  19.720  16.550  17.480
 1627BOLB   C2A39030  20.100  16.470  17.620
 1627BOLB   C3A39031  20.440  16.450  17.850
 1627BOLB   C4A39032  20.580  16.200  18.190
 1627BOLB   C1B39033  19.860  16.000  17.130
 1627BOLB   C2B39034  20.290  15.850  17.070
 1627BOLB   C3B39035  20.800  15.880  17.100
 1627BOLB   C4B39036  21.150  15.690  16.920
 1627BOLB   NC239037  22.220  16.320  20.320
 1627BOLB   PO239038  21.860  16.190  20.130
 1627BOLB   GL339039  21.430  16.150  20.000
 1627BOLB   GL439040  21.700  16.340  19.680
 1627BOLB   C1C39041  21.170  16.140  19.650
 1627BOLB   C2C39042  20.900  15.960  19.330
 1627BOLB   C3C39043  20.750  16.110  18.940
 1627BOLB   C4C39044  20.620  16.020  18.570
 1627BOLB   C1D39045  21.600  16.260  19.310
 1627BOLB   C2D39046  21.210  16.360  19.090
 1627BOLB   C3D39047  21.130  16.540  18.720
 1627BOLB   C4D39048  20.900  16.560  18.390
 1628BOLB   NC139049  12.470   6.560  17.320
 1628BOLB   PO139050  12.080   6.730  17.410
 1628BOLB   GL139051  12.140   7.180  17.380
 1628BOLB   GL239052  12.380   7.270  17.560
 1628BOLB   C1A39053  12.010   7.600  17.280
 1628BOLB   C2A39054  11.990   8.120  17.150
 1628BOLB   C3A39055  12.010   8.510  17.180
 1628BOLB   C4A39056  12.140   8.800  17.430
 1628BOLB   C1B39057  12.700   7.620  17.480
 1628BOLB   C2B39058  12.950   7.970  17.430
 1628BOLB   C3B39059  13.350   8.150  17.180
 1628BOLB   C4B39060  13.660   8.470  17.180
 1628BOLB   NC239061  12.560   7.000  19.500
 1628BOLB   PO239062  12.450   7.140  19.040
 1628BOLB   GL339063  12.260   7.350  18.610
 1628BOLB   GL439064  12.020   7.510  18.660
 1628BOLB   C1C39065  12.430   7.750  18.530
 1628BOLB   C2C39066  12.330   8.020  18.200
 1628BOLB   C3C39067  12.320   8.320  18.000
 1628BOLB   C4C39068  12.280   8.650  17.750
 1628BOLB   C1D39069  12.030   7.990  18.740
 1628BOLB   C2D39070  12.150   8.400  18.610
 1628BOLB   C3D39071  12.080   8.770  18.350
 1628BOLB   C4D39072  11.870   9.050  18.320
 1629BOLB   NC139073  14.480  12.230  18.290
 1629BOLB   PO139074  14.120  12.070  18.180
 1629BOLB   GL139075  14.290  11.780  18.310
 1629BOLB   GL239076  13.960  11.710  18.520
 1629BOLB   C1A39077  14.450  11.540  18.600
 1629BOLB   C2A39078  14.290  11.200  18.900
 1629BOLB   C3A39079  14.450  10.910  19.330
 1629BOLB   C4A39080  14.510  10.740  19.710
 1629BOLB   C1B39081  13.920  11.440  18.670
 1629BOLB   C2B39082  13.790  11.000  18.640
 1629BOLB   C3B39083  13.770  10.650  18.400
 1629BOLB   C4B39084  13.750  10.140  18.310
 1629BOLB   NC239085  15.580   8.920  20.870
 1629BOLB   PO239086  15.320   9.170  21.180
 1629BOLB   GL339087  15.320   9.350  20.760
 1629BOLB   GL439088  15.500   9.330  20.450
 1629BOLB   C1C39089  15.190   9.680  20.580
 1629BOLB   C2C39090  14.940   9.830  20.380
 1629BOLB   C3C39091  14.770  10.170  20.290
 1629BOLB   C4C39092  14.530  10.520  20.060
 1629BOLB   C1D39093  15.350   9.500  20.150
 1629BOLB   C2D39094  15.250   9.860  19.990
 1629BOLB   C3D39095  15.180  10.280  19.700
 1629BOLB   C4D39096  15.030  10.690  19.470
 1630BOLB   NC139097  17.030   9.380  19.830
 1630BOLB   PO139098  17.360   9.590  19.980
 1630BOLB   GL139099  17.250   9.920  19.710
 1630BOLB   GL239100  16.980   9.910  19.890
 1630BOLB   C1A39101  17.150  10.330  19.420
 1630BOLB   C2A39102  16.880  10.580  19.230
 1630BOLB   C3A39103  16.580  10.660  18.910
 1630BOLB   C4A39104  16.510  10.770  18.480
 1630BOLB   C1B39105  16.670  10.050  19.570
 1630BOLB   C2B39106  16.560  10.190  19.180
 1630BOLB   C3B39107  16.220  10.300  18.920
 1630BOLB   C4B39108  15.810  10.460  18.920
 1630BOLB   NC239109  15.640  12.200  17.160
 1630BOLB   PO239110  15.410  11.830  16.900
 1630BOLB   GL339111  15.640  11.560  17.050
 1630BOLB   GL439112  15.850  11.770  17.190
 1630BOLB   C1C39113  15.940  11.240  17.150
 1630BOLB   C2C39114  16.050  11.170  17.500
 1630BOLB   C3C39115  16.240  10.960  17.810
 1630BOLB   C4C39116  16.400  10.770  18.080
 1630BOLB   C1D39117  16.270  11.620  17.450
 1630BOLB   C2D39118  16.580  11.340  17.500
 1630BOLB   C3D39119  17.000  11.180  17.380
 1630BOLB   C4D39120  17.350  11.070  17.590
 1631BOLB   NC139121   6.930  16.320   8.320
 1631BOLB   PO139122   6.510  16.370   8.220
 1631BOLB   GL139123   6.540  16.160   7.950
 1631BOLB   GL239124   6.340  15.870   7.800
 1631BOLB   C1A39125   6.880  15.890   7.790
 1631BOLB   C2A39126   6.970  15.600   7.420
 1631BOLB   C3A39127   6.740  15.470   7.010
 1631BOLB   C4A39128   6.410  15.440   6.800
 1631BOLB   C1B39129   6.370  15.600   7.420
 1631BOLB   C2B39130   6.040  15.400   7.090
 1631BOLB   C3B39131   5.860  15.310   6.610
 1631BOLB   C4B39132   5.710  15.080   6.200
 1631BOLB   NC239133   4.530  14.810   5.090
 1631BOLB   PO239134   4.940  14.910   5.070
 1631BOLB   GL339135   4.920  15.330   5.360
 1631BOLB   GL439136   4.750  15.000   5.590
 1631BOLB   C1C39137   5.320  15.530   5.580
 1631BOLB   C2C39138   5.480  15.490   6.030
 1631BOLB   C3C39139   5.780  15.790   6.300
 1631BOLB   C4C39140   6.210  15.770   6.590
 1631BOLB   C1D39141   4.450  15.030   5.990
 1631BOLB   C2D39142   4.480  15.230   6.310
 1631BOLB   C3D39143   4.730  15.430   6.450
 1631BOLB   C4D39144   4.990  15.420   6.820
 1632BOLB   NC139145   5.700   7.850  12.950
 1632BOLB   PO139146   5.950   7.590  12.860
 1632BOLB   GL139147   6.330   7.950  12.920
 1632BOLB   GL239148   6.290   8.220  12.790
 1632BOLB   C1A39149   6.520   8.170  13.300
 1632BOLB   C2A39150   6.530   8.670  13.400
 1632BOLB   C3A39151   6.610   9.000  13.640
 1632BOLB   C4A39152   6.360   9.290  13.770
 1632BOLB   C1B39153   6.360   8.660  12.940
 1632BOLB   C2B39154   6.740   9.020  13.060
 1632BOLB   C3B39155   7.100   8.890  13.440
 1632BOLB   C4B39156   7.520   8.720  13.380
 1632BOLB   NC239157   5.350   7.650  15.490
 1632BOLB   PO239158   5.570   7.880  15.310
 1632BOLB   GL339159   5.840   8.100  15.040
 1632BOLB   GL439160   6.080   8.110  15.230
 1632BOLB   C1C39161   5.940   8.420  14.700
 1632BOLB   C2C39162   5.860   8.640  14.620
 1632BOLB   C3C39163   5.860   9.000  14.270
 1632BOLB   C4C39164   6.010   9.230  14.140
 1632BOLB   C1D39165   6.450   8.270  15.370
 1632BOLB   C2D39166   6.570   8.660  15.400
 1632BOLB   C3D39167   6.610   9.010  15.170
 1632BOLB   C4D39168   6.490   9.380  14.940
 1633BOLB   NC139169  11.430  15.880  21.240
 1633BOLB   PO139170  11.570  15.990  21.690
 1633BOLB   GL139171  11.560  16.140  22.140
 1633BOLB   GL239172  11.710  15.820  22.160
 1633BOLB   C1A39173  11.430  16.170  22.480
 1633BOLB   C2A39174  11.540  16.320  22.890
 1633BOLB   C3A39175  11.630  16.220  23.290
 1633BOLB   C4A39176  11.790  16.150  23.650
 1633BOLB   C1B39177  11.580  15.720  22.660
 1633BOLB   C2B39178  11.480  15.760  23.110
 1633BOLB   C3B39179  11.660  15.640  23.520
 1633BOLB   C4B39180  11.540  15.290  23.780
 1633BOLB   NC239181  12.350  14.050  25.240
 1633BOLB   PO239182  12.180  14.550  25.370
 1633BOLB   GL339183  12.000  14.850  25.150
 1633BOLB   GL439184  11.620  14.990  25.170
 1633BOLB   C1C39185  11.920  15.070  24.700
 1633BOLB   C2C39186  12.030  15.370  24.420
 1633BOLB   C3C39187  11.880  15.690  24.370
 1633BOLB   C4C39188  11.890  15.990  23.980
 1633BOLB   C1D39189  11.580  15.360  24.880
 1633BOLB   C2D39190  11.340  15.710  24.650
 1633BOLB   C3D39191  11.500  16.040  24.420
 1633BOLB   C4D39192  11.490  16.370  24.070
 1634BOLB   NC139193  15.510  12.430  11.300
 1634BOLB   PO139194  15.650  12.670  11.030
 1634BOLB   GL139195  15.850  12.250  10.740
 1634BOLB   GL239196  15.710  11.990  10.910
 1634BOLB   C1A39197  16.240  12.160  10.810
 1634BOLB   C2A39198  16.390  11.710  10.910
 1634BOLB   C3A39199  16.560  11.320  10.950
 1634BOLB   C4A39200  16.950  11.080  10.870
 1634BOLB   C1B39201  15.950  11.800  10.600
 1634BOLB   C2B39202  16.290  11.930  10.260
 1634BOLB   C3B39203  16.580  11.760   9.910
 1634BOLB   C4B39204  16.740  11.890   9.490
 1634BOLB   NC239205  18.750   9.720  11.010
 1634BOLB   PO239206  18.460   9.670  10.610
 1634BOLB   GL339207  18.320   9.890  10.810
 1634BOLB   GL439208  18.540  10.130  10.790
 1634BOLB   C1C39209  18.040  10.070  11.120
 1634BOLB   C2C39210  17.730  10.390  11.370
 1634BOLB   C3C39211  17.570  10.800  11.270
 1634BOLB   C4C39212  17.140  10.930  11.250
 1634BOLB   C1D39213  18.340  10.500  10.900
 1634BOLB   C2D39214  18.090  10.870  11.080
 1634BOLB   C3D39215  17.910  11.180  11.290
 1634BOLB   C4D39216  17.840  11.570  11.220
 1635BOLB   NC139217  16.230  11.180   6.370
 1635BOLB   PO139218  16.700  11.180   6.310
 1635BOLB   GL139219  16.580  11.380   6.730
 1635BOLB   GL239220  16.410  11.160   6.960
 1635BOLB   C1A39221  16.540  11.750   7.000
 1635BOLB   C2A39222  16.500  12.040   7.450
 1635BOLB   C3A39223  16.370  12.000   7.840
 1635BOLB   C4A39224  16.300  11.950   8.220
 1635BOLB   C1B39225  16.260  11.360   7.270
 1635BOLB   C2B39226  16.230  11.590   7.550
 1635BOLB   C3B39227  15.930  11.790   7.970
 1635BOLB   C4B39228  15.820  12.160   8.160
 1635BOLB   NC239229  17.860  11.000   7.170
 1635BOLB   PO239230  17.750  10.970   7.610
 1635BOLB   GL339231  17.610  11.230   7.900
 1635BOLB   GL439232  17.720  11.600   8.090
 1635BOLB   C1C39233  17.260  11.380   8.010
 1635BOLB   C2C39234  17.130  11.710   8.160
 1635BOLB   C3C39235  16.940  11.820   8.460
 1635BOLB   C4C39236  16.560  11.930   8.590
 1635BOLB   C1D39237  17.540  12.050   8.000
 1635BOLB   C2D39238  17.250  12.340   8.000
 1635BOLB   C3D39239  16.800  12.510   7.870
 1635BOLB   C4D39240  16.510  12.570   7.580
 1636BOLB   NC139241  14.340  12.910   9.480
 1636BOLB   PO139242  14.570  12.980   9.740
 1636BOLB   GL139243  14.890  12.610   9.620
 1636BOLB   GL239244  14.810  12.350   9.810
 1636BOLB   C1A39245  15.240  12.410   9.450
 1636BOLB   C2A39246  15.430  12.070   9.490
 1636BOLB   C3A39247  15.850  11.840   9.430
 1636BOLB   C4A39248  15.920  11.450   9.300
 1636BOLB   C1B39249  14.940  12.040   9.570
 1636BOLB   C2B39250  15.030  11.560   9.610
 1636BOLB   C3B39251  14.750  11.150   9.460
 1636BOLB   C4B39252  14.540  11.010   9.050
 1636BOLB   NC239253  15.830   9.040   9.220
 1636BOLB   PO239254  16.180   9.220   8.940
 1636BOLB   GL339255  16.210   9.710   8.990
 1636BOLB   GL439256  16.430   9.730   9.230
 1636BOLB   C1C39257  16.480  10.150   8.950
 1636BOLB   C2C39258  16.260  10.460   9.110
 1636BOLB   C3C39259  15.940  10.570   9.340
 1636BOLB   C4C39260  15.850  10.990   9.340
 1636BOLB   C1D39261  16.000  10.020   9.300
 1636BOLB   C2D39262  15.530  10.080   9.360
 1636BOLB   C3D39263  15.480  10.530   9.400
 1636BOLB   C4D39264  15.380  11.050   9.490
 1637BOLB   NC139265   9.700  10.620  15.170
 1637BOLB   PO139266   9.200  10.610  15.130
 1637BOLB   GL139267   9.320  10.260  15.220
 1637BOLB   GL239268   9.420  10.010  15.360
 1637BOLB   C1A39269   9.630  10.000  14.930
 1637BOLB   C2A39270   9.780   9.700  14.890
 1637BOLB   C3A39271  10.140   9.420  14.560
 1637BOLB   C4A39272  10.370   9.070  14.460
 1637BOLB   C1B39273   9.480   9.640  15.300
 1637BOLB   C2B39274   9.390   9.200  15.230
 1637BOLB   C3B39275   9.500   8.830  15.230
 1637BOLB   C4B39276   9.460   8.640  15.490
 1637BOLB   NC239277   9.430   6.320  14.960
 1637BOLB   PO239278   9.810   6.590  15.060
 1637BOLB   GL339279   9.850   7.000  14.700
 1637BOLB   GL439280   9.980   7.110  14.370
 1637BOLB   C1C39281   9.860   7.410  14.720
 1637BOLB   C2C39282   9.880   7.760  14.520
 1637BOLB   C3C39283  10.120   8.150  14.390
 1637BOLB   C4C39284  10.280   8.550  14.340
 1637BOLB   C1D39285   9.990   7.520  14.010
 1637BOLB   C2D39286   9.900   7.540  13.490
 1637BOLB   C3D39287  10.160   7.640  13.170
 1637BOLB   C4D39288  10.280   7.470  12.820
 1638BOLB   NC139289  14.560  12.300  10.940
 1638BOLB   PO139290  14.960  12.310  11.110
 1638BOLB   GL139291  15.250  11.950  11.170
 1638BOLB   GL239292  14.980  11.690  11.020
 1638BOLB   C1A39293  15.560  11.610  11.130
 1638BOLB   C2A39294  15.940  11.350  10.870
 1638BOLB   C3A39295  16.280  11.420  10.510
 1638BOLB   C4A39296  16.400  11.310  10.210
 1638BOLB   C1B39297  15.290  11.460  10.770
 1638BOLB   C2B39298  15.570  11.090  10.650
 1638BOLB   C3B39299  15.990  11.020  10.510
 1638BOLB   C4B39300  16.340  10.810  10.300
 1638BOLB   NC239301  17.600   9.380  10.190
 1638BOLB   PO239302  17.630   9.520   9.750
 1638BOLB   GL339303  17.310   9.730   9.990
 1638BOLB   GL439304  17.140   9.590  10.260
 1638BOLB   C1C39305  16.970  10.050   9.830
 1638BOLB   C2C39306  16.740  10.310   9.950
 1638BOLB   C3C39307  16.790  10.750  10.020
 1638BOLB   C4C39308  16.550  11.120   9.950
 1638BOLB   C1D39309  17.110   9.800  10.550
 1638BOLB   C2D39310  17.150   9.750  11.010
 1638BOLB   C3D39311  16.840   9.770  11.310
 1638BOLB   C4D39312  16.500   9.940  11.530
 1639BOLB   NC139313  15.290  12.830  12.180
 1639BOLB   PO139314  15.390  12.580  11.980
 1639BOLB   GL139315  15.430  12.100  11.920
 1639BOLB   GL239316  15.480  11.940  11.600
 1639BOLB   C1A39317  15.620  11.730  12.110
 1639BOLB   C2A39318  15.830  11.320  12.100
 1639BOLB   C3A39319  16.020  10.950  12.030
 1639BOLB   C4A39320  16.200  10.560  11.970
 1639BOLB   C1B39321  15.640  11.530  11.660
 1639BOLB   C2B39322  15.830  11.180  11.490
 1639BOLB   C3B39323  15.890  10.730  11.570
 1639BOLB   C4B39324  15.760  10.360  11.310
 1639BOLB   NC239325  17.980   9.130  10.940
 1639BOLB   PO239326  17.620   8.940  11.160
 1639BOLB   GL339327  17.660   9.330  11.370
 1639BOLB   GL439328  17.800   9.530  11.650
 1639BOLB   C1C39329  17.230   9.510  11.580
 1639BOLB   C2C39330  16.930   9.640  11.910
 1639BOLB   C3C39331  16.600   9.720  12.040
 1639BOLB   C4C39332  16.490  10.160  12.010
 1639BOLB   C1D39333  17.470   9.380  11.990
 1639BOLB   C2D39334  17.280   9.040  12.220
 1639BOLB   C3D39335  16.960   9.040  12.580
 1639BOLB   C4D39336  16.700   8.880  12.880
 1640BOLB   NC139337  12.210   6.650  13.490
 1640BOLB   PO139338  12.630   6.620  13.720
 1640BOLB   GL139339  12.470   7.020  13.750
 1640BOLB   GL239340  12.110   7.110  13.750
 1640BOLB   C1A39341  12.750   7.310  13.780
 1640BOLB   C2A39342  13.020   7.450  14.180
 1640BOLB   C3A39343  13.040   7.940  14.320
 1640BOLB   C4A39344  12.890   8.200  14.630
 1640BOLB   C1B39345  12.260   7.460  13.860
 1640BOLB   C2B39346  12.120   7.870  13.890
 1640BOLB   C3B39347  12.170   8.270  14.090
 1640BOLB   C4B39348  12.100   8.390  14.490
 1640BOLB   NC239349  13.550   6.500  15.790
 1640BOLB   PO239350  13.180   6.390  15.670
 1640BOLB   GL339351  13.050   6.830  15.700
 1640BOLB   GL439352  13.310   7.020  15.870
 1640BOLB   C1C39353  12.880   7.140  15.520
 1640BOLB   C2C39354  12.870   7.650  15.490
 1640BOLB   C3C39355  13.070   8.100  15.400
 1640BOLB   C4C39356  13.010   8.350  14.980
 1640BOLB   C1D39357  13.310   7.460  15.820
 1640BOLB   C2D39358  13.310   7.870  15.800
 1640BOLB   C3D39359  13.060   8.170  15.900
 1640BOLB   C4D39360  12.680   8.390  16.060
 1641BOLB   NC139361   8.930  10.930  16.310
 1641BOLB   PO139362   8.530  11.070  16.370
 1641BOLB   GL139363   8.270  10.710  16.270
 1641BOLB   GL239364   8.500  10.430  16.170
 1641BOLB   C1A39365   7.990  10.420  16.080
 1641BOLB   C2A39366   7.590  10.260  16.220
 1641BOLB   C3A39367   7.350  10.360  16.570
 1641BOLB   C4A39368   7.100  10.160  16.790
 1641BOLB   C1B39369   8.380  10.250  16.470
 1641BOLB   C2B39370   8.360  10.280  16.820
 1641BOLB   C3B39371   8.110  10.490  17.130
 1641BOLB   C4B39372   7.940  10.870  17.030
 1641BOLB   NC239373   6.100   8.290  17.870
 1641BOLB   PO239374   5.870   8.420  18.230
 1641BOLB   GL339375   5.870   8.850  18.080
 1641BOLB   GL439376   5.950   8.720  17.640
 1641BOLB   C1C39377   6.210   9.060  17.880
 1641BOLB   C2C39378   6.440   9.200  17.430
 1641BOLB   C3C39379   6.540   9.560  17.100
 1641BOLB   C4C39380   6.810   9.790  16.850
 1641BOLB   C1D39381   6.360   8.750  17.450
 1641BOLB   C2D39382   6.540   8.790  17.100
 1641BOLB   C3D39383   6.680   9.100  16.840
 1641BOLB   C4D39384   7.100   9.410  16.850
 1642BOLB   NC139385  15.560   7.170  17.480
 1642BOLB   PO139386  15.180   7.340  17.300
 1642BOLB   GL139387  15.060   7.770  17.210
 1642BOLB   GL239388  14.780   7.780  17.320
 1642BOLB   C1A39389  15.110   8.260  17.230
 1642BOLB   C2A39390  15.300   8.450  16.880
 1642BOLB   C3A39391  15.320   8.860  16.590
 1642BOLB   C4A39392  15.000   9.240  16.480
 1642BOLB   C1B39393  14.520   7.960  17.000
 1642BOLB   C2B39394  14.270   8.360  16.740
 1642BOLB   C3B39395  14.140   8.680  16.370
 1642BOLB   C4B39396  13.760   8.820  16.190
 1642BOLB   NC239397  13.320  10.460  15.770
 1642BOLB   PO239398  13.340  10.570  16.180
 1642BOLB   GL339399  13.360  10.170  16.170
 1642BOLB   GL439400  13.070  10.040  16.350
 1642BOLB   C1C39401  13.510   9.730  16.250
 1642BOLB   C2C39402  13.830   9.360  16.340
 1642BOLB   C3C39403  14.170   9.510  16.470
 1642BOLB   C4C39404  14.520   9.320  16.520
 1642BOLB   C1D39405  13.050   9.610  16.300
 1642BOLB   C2D39406  13.120   9.180  16.060
 1642BOLB   C3D39407  13.380   8.800  15.930
 1642BOLB   C4D39408  13.700   8.910  15.710
 1643BOLB   NC139409  10.840  12.250   9.840
 1643BOLB   PO139410  10.420  12.260   9.960
 1643BOLB   GL139411  10.300  11.920   9.620
 1643BOLB   GL239412  10.510  11.750   9.450
 1643BOLB   C1A39413  10.070  11.540   9.530
 1643BOLB   C2A39414   9.680  11.620   9.250
 1643BOLB   C3A39415   9.410  11.170   9.140
 1643BOLB   C4A39416   9.150  10.840   9.080
 1643BOLB   C1B39417  10.440  11.560   9.040
 1643BOLB   C2B39418  10.420  11.460   8.660
 1643BOLB   C3B39419  10.530  11.390   8.300
 1643BOLB   C4B39420  10.610  10.980   7.980
 1643BOLB   NC239421   9.480   8.680   8.270
 1643BOLB   PO239422   9.080   8.840   8.150
 1643BOLB   GL339423   9.120   9.140   8.040
 1643BOLB   GL439424   8.840   9.270   8.170
 1643BOLB   C1C39425   9.170   9.620   8.310
 1643BOLB   C2C39426   9.090   9.920   8.540
 1643BOLB   C3C39427   9.080  10.140   8.810
 1643BOLB   C4C39428   9.160  10.530   8.870
 1643BOLB   C1D39429   8.670   9.630   8.380
 1643BOLB   C2D39430   8.600  10.040   8.640
 1643BOLB   C3D39431   8.140  10.210   8.830
 1643BOLB   C4D39432   8.100  10.120   9.290
 1644BOLB   NC139433  10.320  11.740  18.300
 1644BOLB   PO139434  10.690  11.890  18.210
 1644BOLB   GL139435  10.730  11.520  18.540
 1644BOLB   GL239436  10.800  11.370  18.840
 1644BOLB   C1A39437  10.580  11.070  18.480
 1644BOLB   C2A39438  10.450  10.650  18.660
 1644BOLB   C3A39439  10.610  10.230  18.760
 1644BOLB   C4A39440  10.600   9.990  19.090
 1644BOLB   C1B39441  10.590  10.990  19.020
 1644BOLB   C2B39442  10.440  10.630  19.130
 1644BOLB   C3B39443  10.130  10.230  19.040
 1644BOLB   C4B39444  10.100   9.870  18.900
 1644BOLB   NC239445  10.600   8.150  20.720
 1644BOLB   PO239446  10.480   8.550  20.890
 1644BOLB   GL339447  10.540   8.900  20.560
 1644BOLB   GL439448  10.430   9.270  20.640
 1644BOLB   C1C39449  10.800   9.080  20.490
 1644BOLB   C2C39450  11.050   9.360  20.250
 1644BOLB   C3C39451  10.960   9.420  19.830
 1644BOLB   C4C39452  10.870   9.720  19.460
 1644BOLB   C1D39453  10.590   9.520  20.360
 1644BOLB   C2D39454  10.620   9.800  20.000
 1644BOLB   C3D39455  10.480  10.010  19.710
 1644BOLB   C4D39456  10.090   9.970  19.480
 1645BOLB   NC139457  16.420   7.960  13.580
 1645BOLB   PO139458  16.100   7.660  13.600
 1645BOLB   GL139459  16.000   8.130  13.650
 1645BOLB   GL239460  16.210   8.200  13.990
 1645BOLB   C1A39461  15.820   8.560  13.790
 1645BOLB   C2A39462  15.590   8.850  13.990
 1645BOLB   C3A39463  15.240   9.090  14.090
 1645BOLB   C4A39464  14.770   9.070  14.100
 1645BOLB   C1B39465  16.280   8.700  13.830
 1645BOLB   C2B39466  16.350   9.150  13.800
 1645BOLB   C3B39467  16.750   9.370  13.890
 1645BOLB   C4B39468  17.070   9.720  13.890
 1645BOLB   NC239469  15.140   6.620  14.420
 1645BOLB   PO239470  15.060   7.000  14.280
 1645BOLB   GL339471  14.830   7.300  14.080
 1645BOLB   GL439472  15.070   7.520  13.880
 1645BOLB   C1C39473  14.520   7.630  13.830
 1645BOLB   C2C39474  14.490   7.990  14.110
 1645BOLB   C3C39475  14.310   8.380  14.320
 1645BOLB   C4C39476  14.420   8.800  14.180
 1645BOLB   C1D39477  15.060   7.710  14.280
 1645BOLB   C2D39478  15.200   7.820  14.690
 1645BOLB   C3D39479  15.250   7.990  15.080
 1645BOLB   C4D39480  15.120   7.870  15.400
 1646BOLB   NC139481  18.760  15.270  15.540
 1646BOLB   PO139482  18.780  15.110  15.980
 1646BOLB   GL139483  19.020  14.830  16.170
 1646BOLB   GL239484  19.000  14.550  16.350
 1646BOLB   C1A39485  19.530  14.890  16.060
 1646BOLB   C2A39486  19.900  14.780  15.880
 1646BOLB   C3A39487  20.180  14.400  15.870
 1646BOLB   C4A39488  20.260  14.010  15.870
 1646BOLB   C1B39489  19.440  14.550  16.530
 1646BOLB   C2B39490  19.780  14.430  16.780
 1646BOLB   C3B39491  20.170  14.330  16.970
 1646BOLB   C4B39492  20.330  13.860  16.860
 1646BOLB   NC239493  21.860  12.080  15.710
 1646BOLB   PO239494  21.910  12.520  15.670
 1646BOLB   GL339495  21.850  12.920  15.650
 1646BOLB   GL439496  21.770  12.860  16.000
 1646BOLB   C1C39497  21.580  13.270  15.490
 1646BOLB   C2C39498  21.240  13.590  15.440
 1646BOLB   C3C39499  20.910  13.720  15.500
 1646BOLB   C4C39500  20.500  13.710  15.630
 1646BOLB   C1D39501  21.270  12.870  15.990
 1646BOLB   C2D39502  20.860  13.030  15.940
 1646BOLB   C3D39503  20.390  13.170  15.990
 1646BOLB   C4D39504  20.070  13.450  15.750
 1647BOLB   NC139505   6.150  15.330   4.460
 1647BOLB   PO139506   6.180  14.920   4.460
 1647BOLB   GL139507   6.510  15.010   4.690
 1647BOLB   GL239508   6.680  14.830   4.470
 1647BOLB   C1A39509   6.710  15.330   4.890
 1647BOLB   C2A39510   7.030  15.350   5.150
 1647BOLB   C3A39511   7.100  15.230   5.570
 1647BOLB   C4A39512   6.960  15.480   6.000
 1647BOLB   C1B39513   6.940  14.860   4.850
 1647BOLB   C2B39514   7.160  14.840   5.260
 1647BOLB   C3B39515   6.810  14.640   5.440
 1647BOLB   C4B39516   6.650  14.200   5.440
 1647BOLB   NC239517   8.380  17.110   7.640
 1647BOLB   PO239518   7.870  17.170   7.630
 1647BOLB   GL339519   7.660  17.130   7.110
 1647BOLB   GL439520   7.340  17.240   7.050
 1647BOLB   C1C39521   7.560  16.900   6.750
 1647BOLB   C2C39522   7.340  16.460   6.530
 1647BOLB   C3C39523   7.110  16.140   6.310
 1647BOLB   C4C39524   7.100  15.900   6.130
 1647BOLB   C1D39525   6.980  17.210   6.760
 1647BOLB   C2D39526   6.930  17.110   6.410
 1647BOLB   C3D39527   6.990  17.260   5.990
 1647BOLB   C4D39528   7.080  17.300   5.650
 1648BOLB   NC139529  13.460   7.020  18.450
 1648BOLB   PO139530  12.980   6.790  18.390
 1648BOLB   GL139531  12.680   7.110  18.200
 1648BOLB   GL239532  12.360   7.130  18.170
 1648BOLB   C1A39533  12.850   7.410  17.890
 1648BOLB   C2A39534  13.270   7.680  17.910
 1648BOLB   C3A39535  13.310   8.130  17.730
 1648BOLB   C4A39536  13.350   8.500  17.600
 1648BOLB   C1B39537  12.370   7.580  18.030
 1648BOLB   C2B39538  12.300   7.790  17.710
 1648BOLB   C3B39539  12.010   8.080  17.670
 1648BOLB   C4B39540  11.810   8.500  17.780
 1648BOLB   NC239541  12.510  10.940  16.120
 1648BOLB   PO239542  12.580  10.670  16.420
 1648BOLB   GL339543  12.520  10.150  16.330
 1648BOLB   GL439544  12.450  10.110  15.940
 1648BOLB   C1C39545  12.610   9.770  16.510
 1648BOLB   C2C39546  12.690   9.380  16.830
 1648BOLB   C3C39547  12.910   8.970  17.010
 1648BOLB   C4C39548  13.130   8.750  17.260
 1648BOLB   C1D39549  12.630   9.660  15.980
 1648BOLB   C2D39550  12.570   9.370  16.260
 1648BOLB   C3D39551  12.680   8.930  16.340
 1648BOLB   C4D39552  12.520   8.620  16.680
 1649BOLB   NC139553  14.530  13.770   8.260
 1649BOLB   PO139554  14.380  13.500   8.680
 1649BOLB   GL139555  14.210  13.070   8.610
 1649BOLB   GL239556  14.320  12.910   8.870
 1649BOLB   C1A39557  14.280  12.600   8.470
 1649BOLB   C2A39558  14.420  12.120   8.510
 1649BOLB   C3A39559  14.810  11.910   8.610
 1649BOLB   C4A39560  15.150  11.620   8.720
 1649BOLB   C1B39561  14.640  12.980   8.470
 1649BOLB   C2B39562  14.820  13.110   8.030
 1649BOLB   C3B39563  15.240  13.010   7.750
 1649BOLB   C4B39564  15.630  12.780   7.680
 1649BOLB   NC239565  16.910   9.610   8.240
 1649BOLB   PO239566  16.560   9.750   8.210
 1649BOLB   GL339567  16.280  10.030   8.430
 1649BOLB   GL439568  16.000   9.960   8.570
 1649BOLB   C1C39569  16.190  10.440   8.620
 1649BOLB   C2C39570  16.280  10.890   8.730
 1649BOLB   C3C39571  15.920  11.120   8.890
 1649BOLB   C4C39572  15.570  11.370   8.740
 1649BOLB   C1D39573  15.730  10.240   8.490
 1649BOLB   C2D39574  15.810  10.690   8.400
 1649BOLB   C3D39575  15.840  11.150   8.380
 1649BOLB   C4D39576  15.850  11.530   8.380
 1650BOLB   NC139577  17.820  14.570  10.900
 1650BOLB   PO139578  18.010  14.900  10.690
 1650BOLB   GL139579  18.150  14.950  10.190
 1650BOLB   GL239580  18.510  14.910  10.250
 1650BOLB   C1A39581  18.340  14.590   9.910
 1650BOLB   C2A39582  18.320  14.360   9.550
 1650BOLB   C3A39583  18.510  14.380   9.290
 1650BOLB   C4A39584  18.490  14.330   8.880
 1650BOLB   C1B39585  18.810  14.890   9.870
 1650BOLB   C2B39586  18.890  14.630   9.610
 1650BOLB   C3B39587  19.250  14.510   9.590
 1650BOLB   C4B39588  19.500  14.130   9.380
 1650BOLB   NC239589  19.360  12.170   7.920
 1650BOLB   PO239590  19.340  12.390   7.530
 1650BOLB   GL339591  19.260  12.860   7.570
 1650BOLB   GL439592  18.990  12.780   7.720
 1650BOLB   C1C39593  19.200  13.260   7.670
 1650BOLB   C2C39594  19.100  13.510   7.920
 1650BOLB   C3C39595  18.950  13.900   8.190
 1650BOLB   C4C39596  18.760  13.990   8.600
 1650BOLB   C1D39597  18.640  13.140   7.700
 1650BOLB   C2D39598  18.410  13.310   8.070
 1650BOLB   C3D39599  18.080  13.560   8.190
 1650BOLB   C4D39600  17.900  13.840   8.380
 1651BOLB   NC139601  11.270  11.080  11.770
 1651BOLB   PO139602  11.210  11.230  11.260
 1651BOLB   GL139603  11.000  10.740  11.190
 1651BOLB   GL239604  10.920  10.720  10.830
 1651BOLB   C1A39605  10.840  10.230  11.250
 1651BOLB   C2A39606  10.730   9.820  11.060
 1651BOLB   C3A39607  10.550   9.470  10.960
 1651BOLB   C4A39608  10.240   9.140  10.890
 1651BOLB   C1B39609  10.850  10.320  10.770
 1651BOLB   C2B39610  11.100   9.940  10.810
 1651BOLB   C3B39611  11.150   9.430  10.930
 1651BOLB   C4B39612  10.990   9.380  11.310
 1651BOLB   NC239613  10.480   6.730  10.950
 1651BOLB   PO239614  10.540   6.780  11.470
 1651BOLB   GL339615  10.410   7.160  11.700
 1651BOLB   GL439616  10.670   7.350  11.920
 1651BOLB   C1C39617  10.280   7.620  11.700
 1651BOLB   C2C39618  10.130   8.030  11.600
 1651BOLB   C3C39619  10.130   8.430  11.380
 1651BOLB   C4C39620  10.060   8.790  11.080
 1651BOLB   C1D39621  10.800   7.750  11.910
 1651BOLB   C2D39622  10.710   8.170  12.100
 1651BOLB   C3D39623  10.340   8.480  11.900
 1651BOLB   C4D39624   9.850   8.420  11.750
 1652BOLB   NC139625  13.480   9.620   5.820
 1652BOLB   PO139626  13.200  10.060   5.870
 1652BOLB   GL139627  13.300  10.250   6.260
 1652BOLB   GL239628  13.000  10.310   6.360
 1652BOLB   C1A39629  13.360  10.330   6.690
 1652BOLB   C2A39630  13.450  10.680   7.020
 1652BOLB   C3A39631  13.300  10.650   7.490
 1652BOLB   C4A39632  13.080  10.900   7.640
 1652BOLB   C1B39633  13.100  10.780   6.650
 1652BOLB   C2B39634  12.990  11.130   6.850
 1652BOLB   C3B39635  12.850  11.180   7.290
 1652BOLB   C4B39636  12.830  11.320   7.650
 1652BOLB   NC239637  11.740   9.570   6.070
 1652BOLB   PO239638  11.640  10.020   6.060
 1652BOLB   GL339639  11.660  10.100   6.340
 1652BOLB   GL439640  11.300  10.260   6.480
 1652BOLB   C1C39641  11.670  10.130   6.890
 1652BOLB   C2C39642  11.770  10.530   7.210
 1652BOLB   C3C39643  12.160  10.710   7.320
 1652BOLB   C4C39644  12.540  10.890   7.510
 1652BOLB   C1D39645  11.460  10.610   6.700
 1652BOLB   C2D39646  11.440  10.950   7.050
 1652BOLB   C3D39647  11.700  10.970   7.480
 1652BOLB   C4D39648  12.080  11.070   7.780
 1653BOLB   NC139649  14.900  15.100  20.380
 1653BOLB   PO139650  14.770  15.450  20.550
 1653BOLB   GL139651  14.840  15.310  20.880
 1653BOLB   GL239652  14.960  15.560  21.070
 1653BOLB   C1A39653  15.130  14.990  21.150
 1653BOLB   C2A39654  15.140  14.650  21.500
 1653BOLB   C3A39655  15.190  14.230  21.620
 1653BOLB   C4A39656  15.310  13.870  21.840
 1653BOLB   C1B39657  14.890  15.310  21.470
 1653BOLB   C2B39658  15.180  15.230  21.690
 1653BOLB   C3B39659  15.490  15.270  22.030
 1653BOLB   C4B39660  15.610  15.070  22.330
 1653BOLB   NC239661  14.970  11.900  24.040
 1653BOLB   PO239662  15.160  11.870  23.570
 1653BOLB   GL339663  15.000  12.160  23.210
 1653BOLB   GL439664  14.710  12.190  22.980
 1653BOLB   C1C39665  15.130  12.380  22.800
 1653BOLB   C2C39666  15.230  12.700  22.450
 1653BOLB   C3C39667  15.260  13.010  22.110
 1653BOLB   C4C39668  15.380  13.470  22.170
 1653BOLB   C1D39669  14.260  12.330  23.000
 1653BOLB   C2D39670  13.870  12.230  22.890
 1653BOLB   C3D39671  13.600  12.380  22.650
 1653BOLB   C4D39672  13.140  12.410  22.560
 1654BOLB   NC139673   8.660  14.600   3.810
 1654BOLB   PO139674   8.950  14.240   3.970
 1654BOLB   GL139675   8.840  14.310   4.430
 1654BOLB   GL239676   8.680  14.180   4.630
 1654BOLB   C1A39677   8.590  14.650   4.650
 1654BOLB   C2A39678   8.810  14.980   5.010
 1654BOLB   C3A39679   9.130  15.090   5.270
 1654BOLB   C4A39680   9.410  15.160   5.530
 1654BOLB   C1B39681   8.980  14.300   4.930
 1654BOLB   C2B39682   9.010  14.560   5.320
 1654BOLB   C3B39683   9.070  14.820   5.730
 1654BOLB   C4B39684   8.980  15.260   5.800
 1654BOLB   NC239685  10.330  16.350   7.210
 1654BOLB   PO239686  10.400  15.970   7.500
 1654BOLB   GL339687  10.160  15.900   7.060
 1654BOLB   GL439688   9.870  15.750   7.160
 1654BOLB   C1C39689   9.950  15.700   6.640
 1654BOLB   C2C39690  10.190  15.350   6.390
 1654BOLB   C3C39691  10.060  15.070   6.100
 1654BOLB   C4C39692   9.850  15.220   5.640
 1654BOLB   C1D39693   9.720  15.380   6.960
 1654BOLB   C2D39694   9.670  15.260   6.450
 1654BOLB   C3D39695   9.710  15.480   6.030
 1654BOLB   C4D39696   9.400  15.640   5.750
 1655BOLB   NC139697  11.330  12.400   9.840
 1655BOLB   PO139698  11.320  12.040   9.500
 1655BOLB   GL139699  11.290  11.770   9.180
 1655BOLB   GL239700  11.030  11.850   8.970
 1655BOLB   C1A39701  11.370  11.480   8.780
 1655BOLB   C2A39702  11.280  11.050   9.020
 1655BOLB   C3A39703  11.280  10.620   8.940
 1655BOLB   C4A39704  10.880  10.320   8.880
 1655BOLB   C1B39705  10.900  11.540   8.820
 1655BOLB   C2B39706  10.890  11.190   8.710
 1655BOLB   C3B39707  10.760  10.950   8.440
 1655BOLB   C4B39708  10.440  10.620   8.340
 1655BOLB   NC239709  10.780   8.060   8.920
 1655BOLB   PO239710  11.020   7.980   9.180
 1655BOLB   GL339711  11.350   8.330   9.080
 1655BOLB   GL439712  11.330   8.650   9.340
 1655BOLB   C1C39713  11.250   8.710   8.860
 1655BOLB   C2C39714  10.900   9.060   8.720
 1655BOLB   C3C39715  10.750   9.460   8.570
 1655BOLB   C4C39716  10.790   9.880   8.790
 1655BOLB   C1D39717  11.320   8.970   9.790
 1655BOLB   C2D39718  11.510   9.300   9.810
 1655BOLB   C3D39719  11.680   9.660   9.610
 1655BOLB   C4D39720  12.140   9.820   9.370
 1656BOLB   NC139721  14.680  11.430  17.030
 1656BOLB   PO139722  14.690  11.870  17.260
 1656BOLB   GL139723  14.940  11.560  17.460
 1656BOLB   GL239724  15.170  11.370  17.190
 1656BOLB   C1A39725  15.000  11.250  17.760
 1656BOLB   C2A39726  15.200  11.040  18.070
 1656BOLB   C3A39727  15.200  10.850  18.410
 1656BOLB   C4A39728  15.340  10.520  18.650
 1656BOLB   C1B39729  15.450  11.100  17.100
 1656BOLB   C2B39730  15.680  10.830  17.110
 1656BOLB   C3B39731  16.040  10.640  17.430
 1656BOLB   C4B39732  16.110  10.390  17.750
 1656BOLB   NC239733  16.690   9.020  19.840
 1656BOLB   PO239734  17.050   9.050  19.420
 1656BOLB   GL339735  16.680   9.370  19.440
 1656BOLB   GL439736  16.870   9.640  19.410
 1656BOLB   C1C39737  16.440   9.730  19.200
 1656BOLB   C2C39738  16.310   9.750  18.780
 1656BOLB   C3C39739  16.140   9.900  18.470
 1656BOLB   C4C39740  15.680  10.170  18.510
 1656BOLB   C1D39741  17.050   9.970  19.140
 1656BOLB   C2D39742  16.940   9.840  18.680
 1656BOLB   C3D39743  16.660   9.560  18.420
 1656BOLB   C4D39744  16.610   9.210  18.250
 1657BOLB   NC139745  15.820  13.550  10.310
 1657BOLB   PO139746  16.130  13.320  10.460
 1657BOLB   GL139747  16.290  12.930  10.370
 1657BOLB   GL239748  16.330  12.930   9.970
 1657BOLB   C1A39749  16.430  12.560  10.460
 1657BOLB   C2A39750  16.690  12.300  10.390
 1657BOLB   C3A39751  16.930  11.960  10.370
 1657BOLB   C4A39752  16.820  11.550  10.360
 1657BOLB   C1B39753  16.710  12.670   9.990
 1657BOLB   C2B39754  17.230  12.610   9.940
 1657BOLB   C3B39755  17.570  12.370   9.830
 1657BOLB   C4B39756  17.930  12.220   9.680
 1657BOLB   NC239757  18.010   9.690   9.990
 1657BOLB   PO239758  17.980   9.510  10.490
 1657BOLB   GL339759  17.890   9.940  10.450
 1657BOLB   GL439760  18.000  10.180  10.640
 1657BOLB   C1C39761  17.550  10.100  10.360
 1657BOLB   C2C39762  17.410  10.580  10.460
 1657BOLB   C3C39763  16.980  10.720  10.510
 1657BOLB   C4C39764  16.810  11.100  10.390
 1657BOLB   C1D39765  17.790  10.510  10.880
 1657BOLB   C2D39766  17.510  10.970  10.790
 1657BOLB   C3D39767  17.410  11.400  11.030
 1657BOLB   C4D39768  17.360  11.780  11.150
 1658BOLB   NC139769  12.190  11.000  12.460
 1658BOLB   PO139770  12.540  11.100  12.800
 1658BOLB   GL139771  12.850  10.810  12.950
 1658BOLB   GL239772  12.880  10.680  12.800
 1658BOLB   C1A39773  12.920  10.450  13.210
 1658BOLB   C2A39774  12.920  10.020  13.080
 1658BOLB   C3A39775  12.900   9.650  12.890
 1658BOLB   C4A39776  13.030   9.270  12.730
 1658BOLB   C1B39777  13.010  10.280  12.650
 1658BOLB   C2B39778  13.030   9.970  12.500
 1658BOLB   C3B39779  13.090   9.520  12.280
 1658BOLB   C4B39780  13.280   9.350  11.920
 1658BOLB   NC239781  13.260   7.250  11.790
 1658BOLB   PO239782  13.530   7.510  11.710
 1658BOLB   GL339783  13.500   7.690  12.120
 1658BOLB   GL439784  13.770   7.830  12.110
 1658BOLB   C1C39785  13.300   8.100  12.060
 1658BOLB   C2C39786  12.980   8.420  12.020
 1658BOLB   C3C39787  13.070   8.860  12.020
 1658BOLB   C4C39788  13.150   9.020  12.390
 1658BOLB   C1D39789  13.710   8.300  12.300
 1658BOLB   C2D39790  13.430   8.610  12.420
 1658BOLB   C3D39791  13.160   8.750  12.770
 1658BOLB   C4D39792  12.810   8.880  12.990
 1659BOLB   NC139793   7.300   9.220   8.210
 1659BOLB   PO139794   7.030   9.270   7.820
 1659BOLB   GL139795   6.810   9.510   8.110
 1659BOLB   GL239796   6.530   9.410   8.230
 1659BOLB   C1A39797   6.830  10.000   8.180
 1659BOLB   C2A39798   6.930  10.460   8.120
 1659BOLB   C3A39799   7.140  10.830   8.300
 1659BOLB   C4A39800   7.340  11.060   8.540
 1659BOLB   C1B39801   6.530   9.740   8.540
 1659BOLB   C2B39802   6.860   9.930   8.680
 1659BOLB   C3B39803   7.050  10.310   8.580
 1659BOLB   C4B39804   7.430  10.450   8.400
 1659BOLB   NC239805   8.350  13.140  10.150
 1659BOLB   PO239806   8.070  12.980   9.860
 1659BOLB   GL339807   7.860  12.640   9.580
 1659BOLB   GL439808   7.830  12.530   9.280
 1659BOLB   C1C39809   8.010  12.180   9.500
 1659BOLB   C2C39810   7.850  11.700   9.330
 1659BOLB   C3C39811   7.770  11.330   9.240
 1659BOLB   C4C39812   7.600  11.060   8.990
 1659BOLB   C1D39813   7.470  12.140   9.350
 1659BOLB   C2D39814   7.350  11.730   9.260
 1659BOLB   C3D39815   7.490  11.620   8.900
 1659BOLB   C4D39816   7.470  11.590   8.430
 1660BOLB   NC139817   5.030  14.120  16.820
 1660BOLB   PO139818   4.830  13.810  16.850
 1660BOLB   GL139819   4.540  13.530  16.970
 1660BOLB   GL239820   4.360  13.270  16.700
 1660BOLB   C1A39821   4.230  13.350  17.180
 1660BOLB   C2A39822   4.220  13.100  17.530
 1660BOLB   C3A39823   3.870  12.760  17.720
 1660BOLB   C4A39824   3.830  12.330  17.790
 1660BOLB   C1B39825   3.970  12.970  16.990
 1660BOLB   C2B39826   4.160  12.590  17.090
 1660BOLB   C3B39827   4.270  12.250  17.390
 1660BOLB   C4B39828   4.440  12.580  17.730
 1660BOLB   NC239829   3.290   9.870  18.440
 1660BOLB   PO239830   3.320  10.150  18.100
 1660BOLB   GL339831   3.500  10.430  17.900
 1660BOLB   GL439832   3.780  10.380  17.790
 1660BOLB   C1C39833   3.440  10.910  17.710
 1660BOLB   C2C39834   3.630  11.290  17.560
 1660BOLB   C3C39835   4.000  11.560  17.670
 1660BOLB   C4C39836   4.030  11.950  17.700
 1660BOLB   C1D39837   3.890  10.840  17.930
 1660BOLB   C2D39838   4.220  11.230  17.970
 1660BOLB   C3D39839   4.470  11.540  17.790
 1660BOLB   C4D39840   4.820  11.540  17.410
 1661BOLB   NC139841  10.160  10.930  17.090
 1661BOLB   PO139842  10.330  10.900  17.360
 1661BOLB   GL139843  10.460  10.470  17.420
 1661BOLB   GL239844  10.600  10.370  17.660
 1661BOLB   C1A39845  10.520  10.040  17.290
 1661BOLB   C2A39846  10.450   9.480  17.260
 1661BOLB   C3A39847  10.150   9.180  17.340
 1661BOLB   C4A39848   9.830   8.980  17.300
 1661BOLB   C1B39849  10.560  10.040  17.960
 1661BOLB   C2B39850  10.590   9.530  18.170
 1661BOLB   C3B39851  10.410   9.200  18.360
 1661BOLB   C4B39852   9.920   9.190  18.360
 1661BOLB   NC239853   8.470   7.250  17.560
 1661BOLB   PO239854   8.870   7.050  17.740
 1661BOLB   GL339855   8.970   7.490  17.520
 1661BOLB   GL439856   8.720   7.620  17.290
 1661BOLB   C1C39857   9.270   7.800  17.500
 1661BOLB   C2C39858   9.410   7.920  17.080
 1661BOLB   C3C39859   9.720   8.170  17.040
 1661BOLB   C4C39860   9.760   8.540  17.030
 1661BOLB   C1D39861   8.900   7.920  17.190
 1661BOLB   C2D39862   8.870   8.220  16.930
 1661BOLB   C3D39863   9.160   8.600  16.860
 1661BOLB   C4D39864   9.330   8.930  17.080
 1662BOLB   NC139865  19.720  19.730  13.880
 1662BOLB   PO139866  19.940  19.440  14.130
 1662BOLB   GL139867  20.230  19.590  14.330
 1662BOLB   GL239868  20.260  19.940  14.220
 1662BOLB   C1A39869  20.600  19.820  14.530
 1662BOLB   C2A39870  20.990  19.910  14.630
 1662BOLB   C3A39871  21.420  19.940  14.520
 1662BOLB   C4A39872  21.790  20.070  14.420
 1662BOLB   C1B39873  20.650  20.180  14.110
 1662BOLB   C2B39874  21.070  20.260  14.250
 1662BOLB   C3B39875  21.430  20.430  14.370
 1662BOLB   C4B39876  21.650  20.440  14.770
 1662BOLB   NC239877  23.750  21.850  14.860
 1662BOLB   PO239878  23.440  21.850  14.590
 1662BOLB   GL339879  23.220  21.450  14.660
 1662BOLB   GL439880  23.050  21.190  14.360
 1662BOLB   C1C39881  23.080  20.880  14.790
 1662BOLB   C2C39882  22.930  20.550  14.760
 1662BOLB   C3C39883  22.540  20.390  14.680
 1662BOLB   C4C39884  22.090  20.220  14.660
 1662BOLB   C1D39885  22.770  21.230  14.650
 1662BOLB   C2D39886  22.570  20.920  14.810
 1662BOLB   C3D39887  22.250  20.690  14.890
 1662BOLB   C4D39888  21.760  20.890  14.950
 1663BOLB   NC139889   9.210  13.410   9.120
 1663BOLB   PO139890   8.920  13.040   9.290
 1663BOLB   GL139891   8.700  12.740   9.200
 1663BOLB   GL239892   8.760  12.790   8.890
 1663BOLB   C1A39893   8.280  12.510   8.920
 1663BOLB   C2A39894   8.260  12.330   8.550
 1663BOLB   C3A39895   8.520  12.150   8.340
 1663BOLB   C4A39896   8.690  12.000   7.940
 1663BOLB   C1B39897   8.840  12.520   8.570
 1663BOLB   C2B39898   8.970  12.330   8.190
 1663BOLB   C3B39899   9.300  12.420   8.060
 1663BOLB   C4B39900   9.680  12.230   7.990
 1663BOLB   NC239901   8.600  11.210   5.620
 1663BOLB   PO239902   8.930  10.900   5.860
 1663BOLB   GL339903   8.890  11.280   6.120
 1663BOLB   GL439904   9.150  11.530   6.080
 1663BOLB   C1C39905   8.810  11.570   6.440
 1663BOLB   C2C39906   8.920  11.490   6.850
 1663BOLB   C3C39907   8.800  11.560   7.190
 1663BOLB   C4C39908   8.660  11.650   7.590
 1663BOLB   C1D39909   9.270  11.750   6.500
 1663BOLB   C2D39910   9.390  11.890   6.990
 1663BOLB   C3D39911   9.480  12.200   7.290
 1663BOLB   C4D39912   9.340  12.350   7.550
 1664BOLB   NC139913  16.640   8.040  17.950
 1664BOLB   PO139914  17.070   8.190  18.020
 1664BOLB   GL139915  17.100   8.610  18.060
 1664BOLB   GL239916  17.410   8.810  18.110
 1664BOLB   C1A39917  16.950   9.010  17.940
 1664BOLB   C2A39918  16.710   9.400  17.820
 1664BOLB   C3A39919  16.510   9.600  17.520
 1664BOLB   C4A39920  16.390   9.720  17.080
 1664BOLB   C1B39921  17.440   9.300  17.910
 1664BOLB   C2B39922  17.210   9.470  17.660
 1664BOLB   C3B39923  17.040   9.330  17.340
 1664BOLB   C4B39924  16.880   9.630  17.130
 1664BOLB   NC239925  18.600   8.250  16.730
 1664BOLB   PO239926  18.490   8.580  16.530
 1664BOLB   GL339927  18.230   8.910  16.400
 1664BOLB   GL439928  18.350   9.220  16.580
 1664BOLB   C1C39929  17.820   9.080  16.270
 1664BOLB   C2C39930  17.430   9.360  16.260
 1664BOLB   C3C39931  17.020   9.540  16.540
 1664BOLB   C4C39932  16.630   9.730  16.670
 1664BOLB   C1D39933  17.790   9.130  16.770
 1664BOLB   C2D39934  17.360   9.060  16.700
 1664BOLB   C3D39935  16.900   9.170  16.890
 1664BOLB   C4D39936  16.520   9.230  17.190
 1665BOLB   NC139937  14.200  15.560  20.870
 1665BOLB   PO139938  14.300  15.840  21.250
 1665BOLB   GL139939  14.390  15.490  21.560
 1665BOLB   GL239940  14.450  15.210  21.250
 1665BOLB   C1A39941  14.620  15.120  21.800
 1665BOLB   C2A39942  14.960  14.940  22.090
 1665BOLB   C3A39943  14.970  14.560  22.280
 1665BOLB   C4A39944  14.620  14.240  22.490
 1665BOLB   C1B39945  14.150  15.100  21.640
 1665BOLB   C2B39946  14.030  14.950  22.070
 1665BOLB   C3B39947  14.130  14.850  22.480
 1665BOLB   C4B39948  14.220  15.170  22.770
 1665BOLB   NC239949  14.020  13.550  24.900
 1665BOLB   PO239950  14.080  13.390  24.530
 1665BOLB   GL339951  13.980  13.440  24.040
 1665BOLB   GL439952  13.780  13.240  23.940
 1665BOLB   C1C39953  14.150  13.400  23.650
 1665BOLB   C2C39954  14.160  13.360  23.210
 1665BOLB   C3C39955  14.250  13.440  22.870
 1665BOLB   C4C39956  14.360  13.890  22.780
 1665BOLB   C1D39957  13.710  13.590  23.620
 1665BOLB   C2D39958  13.990  13.800  23.360
 1665BOLB   C3D39959  14.480  13.720  23.240
 1665BOLB   C4D39960  14.850  13.910  23.410
 1666BOLB   NC139961  16.410   9.460  20.690
 1666BOLB   PO139962  15.950   9.320  20.710
 1666BOLB   GL139963  15.980   9.500  20.230
 1666BOLB   GL239964  15.780   9.160  20.040
 1666BOLB   C1A39965  16.020   9.950  20.080
 1666BOLB   C2A39966  16.090  10.350  19.860
 1666BOLB   C3A39967  15.930  10.720  19.820
 1666BOLB   C4A39968  15.500  10.770  19.780
 1666BOLB   C1B39969  15.470   9.190  19.820
 1666BOLB   C2B39970  15.170   9.580  19.580
 1666BOLB   C3B39971  15.010   9.920  19.400
 1666BOLB   C4B39972  14.850  10.000  18.970
 1666BOLB   NC239973  14.570  12.670  18.400
 1666BOLB   PO239974  15.090  12.750  18.440
 1666BOLB   GL339975  14.880  12.530  18.720
 1666BOLB   GL439976  14.580  12.460  18.880
 1666BOLB   C1C39977  15.030  12.290  18.980
 1666BOLB   C2C39978  15.050  11.950  19.340
 1666BOLB   C3C39979  15.080  11.510  19.500
 1666BOLB   C4C39980  15.120  11.120  19.750
 1666BOLB   C1D39981  14.610  12.530  19.320
 1666BOLB   C2D39982  14.850  12.290  19.710
 1666BOLB   C3D39983  15.070  12.040  20.040
 1666BOLB   C4D39984  15.360  11.880  19.840
 1667BOLB   NC139985  10.670  10.810  17.030
 1667BOLB   PO139986  10.390  10.990  16.630
 1667BOLB   GL139987  10.350  10.530  16.690
 1667BOLB   GL239988  10.140  10.400  16.460
 1667BOLB   C1A39989  10.310  10.210  16.890
 1667BOLB   C2A39990  10.210   9.850  16.830
 1667BOLB   C3A39991  10.020   9.460  16.940
 1667BOLB   C4A39992   9.940   9.160  16.700
 1667BOLB   C1B39993   9.870  10.160  16.480
 1667BOLB   C2B39994   9.730   9.710  16.580
 1667BOLB   C3B39995   9.560   9.400  16.360
 1667BOLB   C4B39996   9.520   9.170  16.000
 1667BOLB   NC239997   8.510   6.830  17.140
 1667BOLB   PO239998   8.420   7.160  17.070
 1667BOLB   GL339999   8.470   7.560  16.880
 1667BOLB   GL440000   8.190   7.790  16.800
 1667BOLB   C1C40001   8.880   7.820  16.690
 1667BOLB   C2C40002   9.280   8.100  16.640
 1667BOLB   C3C40003   9.530   8.440  16.630
 1667BOLB   C4C40004   9.680   8.840  16.570
 1667BOLB   C1D40005   8.350   8.160  16.790
 1667BOLB   C2D40006   8.520   8.550  16.640
 1667BOLB   C3D40007   8.350   8.890  16.850
 1667BOLB   C4D40008   8.310   8.960  17.290
 1668BOLB   NC140009   6.970  12.730  11.050
 1668BOLB   PO140010   6.610  12.680  11.370
 1668BOLB   GL140011   6.380  12.380  11.220
 1668BOLB   GL240012   6.430  12.270  10.970
 1668BOLB   C1A40013   5.970  12.390  10.870
 1668BOLB   C2A40014   5.570  12.280  10.530
 1668BOLB   C3A40015   5.350  11.910  10.320
 1668BOLB   C4A40016   5.290  11.600  10.340
 1668BOLB   C1B40017   6.130  11.930  10.850
 1668BOLB   C2B40018   6.000  11.480  10.880
 1668BOLB   C3B40019   5.960  11.280  10.520
 1668BOLB   C4B40020   6.010  10.800  10.670
 1668BOLB   NC240021   3.630   9.980   9.900
 1668BOLB   PO240022   3.600  10.390   9.740
 1668BOLB   GL340023   3.800  10.800   9.810
 1668BOLB   GL440024   3.610  11.000   9.780
 1668BOLB   C1C40025   4.130  10.920   9.840
 1668BOLB   C2C40026   4.510  10.720  10.050
 1668BOLB   C3C40027   4.900  10.850  10.270
 1668BOLB   C4C40028   4.980  11.380  10.300
 1668BOLB   C1D40029   3.740  11.360   9.850
 1668BOLB   C2D40030   3.920  11.770   9.990
 1668BOLB   C3D40031   4.300  12.050   9.940
 1668BOLB   C4D40032   4.600  11.890   9.640
 1669BOLB   NC140033   9.760  10.950  12.990
 1669BOLB   PO140034   9.890  10.740  13.470
 1669BOLB   GL140035   9.680  10.460  13.120
 1669BOLB   GL240036   9.750  10.150  13.170
 1669BOLB   C1A40037   9.360   9.940  12.980
 1669BOLB   C2A40038   8.970   9.830  12.710
 1669BOLB   C3A40039   8.730   9.720  12.310
 1669BOLB   C4A40040   8.560   9.300  12.070
 1669BOLB   C1B40041   9.850   9.820  13.430
 1669BOLB   C2B40042   9.930   9.490  13.750
 1669BOLB   C3B40043   9.750   9.090  13.850
 1669BOLB   C4B40044   9.910   8.670  13.710
 1669BOLB   NC240045   6.940   7.910  10.640
 1669BOLB   PO240046   7.170   7.760  10.950
 1669BOLB   GL340047   7.270   8.150  11.020
 1669BOLB   GL440048   7.200   8.340  10.760
 1669BOLB   C1C40049   7.650   8.390  11.200
 1669BOLB   C2C40050   8.010   8.430  11.480
 1669BOLB   C3C40051   8.290   8.750  11.680
 1669BOLB   C4C40052   8.630   8.990  11.780
 1669BOLB   C1D40053   7.390   8.790  10.820
 1669BOLB   C2D40054   7.550   9.150  10.920
 1669BOLB   C3D40055   7.780   9.490  11.080
 1669BOLB   C4D40056   7.850   9.720  11.490
 1670BOLB   NC140057  14.440  12.380  17.750
 1670BOLB   PO140058  14.540  11.910  17.730
 1670BOLB   GL140059  14.740  11.730  17.940
 1670BOLB   GL240060  15.110  11.690  17.930
 1670BOLB   C1A40061  14.760  11.410  18.260
 1670BOLB   C2A40062  14.770  11.130  18.640
 1670BOLB   C3A40063  14.620  10.800  18.880
 1670BOLB   C4A40064  14.660  10.450  19.190
 1670BOLB   C1B40065  15.440  11.490  18.050
 1670BOLB   C2B40066  15.740  11.150  18.050
 1670BOLB   C3B40067  16.060  10.960  18.320
 1670BOLB   C4B40068  16.070  10.520  18.460
 1670BOLB   NC240069  15.800   8.410  20.120
 1670BOLB   PO240070  15.500   8.420  20.390
 1670BOLB   GL340071  15.240   8.730  19.960
 1670BOLB   GL440072  15.510   8.700  19.720
 1670BOLB   C1C40073  14.950   9.060  19.800
 1670BOLB   C2C40074  14.870   9.530  19.990
 1670BOLB   C3C40075  14.730   9.960  19.820
 1670BOLB   C4C40076  14.690  10.270  19.640
 1670BOLB   C1D40077  15.300   8.740  19.400
 1670BOLB   C2D40078  15.020   9.070  19.180
 1670BOLB   C3D40079  14.840   9.420  19.170
 1670BOLB   C4D40080  14.450   9.570  19.070
 1671BOLB   NC140081   0.160  12.260  16.940
 1671BOLB   PO140082   0.620  12.170  16.900
 1671BOLB   GL140083   0.920  12.420  16.870
 1671BOLB   GL240084   0.930  12.530  17.220
 1671BOLB   C1A40085   1.380  12.260  16.860
 1671BOLB   C2A40086   1.580  12.110  17.210
 1671BOLB   C3A40087   1.880  12.260  17.490
 1671BOLB   C4A40088   2.030  12.560  17.660
 1671BOLB   C1B40089   1.060  12.890  17.290
 1671BOLB   C2B40090   1.130  13.350  17.260
 1671BOLB   C3B40091   1.490  13.590  17.060
 1671BOLB   C4B40092   1.690  13.780  16.730
 1671BOLB   NC240093   0.350  12.420  17.860
 1671BOLB   PO240094   0.460  12.810  18.040
 1671BOLB   GL340095   0.790  13.180  17.880
 1671BOLB   GL440096   0.990  13.330  18.270
 1671BOLB   C1C40097   1.240  13.420  17.860
 1671BOLB   C2C40098   1.600  13.500  17.490
 1671BOLB   C3C40099   1.920  13.270  17.340
 1671BOLB   C4C40100   2.050  13.000  17.580
 1671BOLB   C1D40101   1.470  13.430  18.420
 1671BOLB   C2D40102   1.730  13.650  18.720
 1671BOLB   C3D40103   2.090  13.960  18.630
 1671BOLB   C4D40104   2.280  14.380  18.560
 1672BOLB   NC140105  17.450   7.260  15.240
 1672BOLB   PO140106  17.290   7.590  15.000
 1672BOLB   GL140107  16.920   8.000  15.070
 1672BOLB   GL240108  17.030   8.300  15.310
 1672BOLB   C1A40109  16.560   8.220  14.800
 1672BOLB   C2A40110  16.160   8.510  14.740
 1672BOLB   C3A40111  15.820   8.460  14.980
 1672BOLB   C4A40112  15.350   8.490  15.060
 1672BOLB   C1B40113  16.970   8.740  15.210
 1672BOLB   C2B40114  16.670   9.080  15.170
 1672BOLB   C3B40115  16.320   9.360  15.230
 1672BOLB   C4B40116  15.980   9.540  15.170
 1672BOLB   NC240117  15.350   7.250  13.190
 1672BOLB   PO240118  15.190   7.460  13.410
 1672BOLB   GL340119  15.250   7.880  13.410
 1672BOLB   GL440120  15.510   8.020  13.560
 1672BOLB   C1C40121  14.970   8.040  13.770
 1672BOLB   C2C40122  14.960   8.140  14.090
 1672BOLB   C3C40123  14.880   8.130  14.460
 1672BOLB   C4C40124  14.950   8.380  14.860
 1672BOLB   C1D40125  15.420   8.330  13.600
 1672BOLB   C2D40126  15.480   8.820  13.460
 1672BOLB   C3D40127  15.460   9.110  13.200
 1672BOLB   C4D40128  15.250   9.360  12.900
 1673BOLB   NC140129  19.860  17.690  15.390
 1673BOLB   PO140130  19.620  17.820  14.980
 1673BOLB   GL140131  19.970  17.540  14.890
 1673BOLB   GL240132  20.330  17.600  15.120
 1673BOLB   C1A40133  20.420  17.370  14.680
 1673BOLB   C2A40134  20.760  17.140  14.570
 1673BOLB   C3A40135  21.050  16.870  14.550
 1673BOLB   C4A40136  21.420  16.630  14.660
 1673BOLB   C1B40137  20.780  17.360  15.160
 1673BOLB   C2B40138  21.230  17.040  15.010
 1673BOLB   C3B40139  21.530  17.120  14.640
 1673BOLB   C4B40140  21.760  17.050  14.280
 1673BOLB   NC240141  23.610  15.800  14.710
 1673BOLB   PO240142  23.870  15.980  15.050
 1673BOLB   GL340143  23.370  16.150  14.980
 1673BOLB   GL440144  23.310  16.260  15.340
 1673BOLB   C1C40145  22.870  16.250  14.740
 1673BOLB   C2C40146  22.550  16.580  14.550
 1673BOLB   C3C40147  22.060  16.720  14.470
 1673BOLB   C4C40148  21.790  16.690  14.800
 1673BOLB   C1D40149  22.860  16.180  15.260
 1673BOLB   C2D40150  22.490  16.300  14.990
 1673BOLB   C3D40151  22.080  16.250  14.810
 1673BOLB   C4D40152  21.780  16.170  14.910
 1674BOLB   NC140153  14.650  15.110   8.040
 1674BOLB   PO140154  14.930  14.890   8.060
 1674BOLB   GL140155  15.320  14.880   7.840
 1674BOLB   GL240156  15.500  15.110   7.580
 1674BOLB   C1A40157  15.600  14.550   7.690
 1674BOLB   C2A40158  15.450  14.150   7.610
 1674BOLB   C3A40159  15.600  13.820   7.380
 1674BOLB   C4A40160  15.990  13.590   7.340
 1674BOLB   C1B40161  15.560  14.810   7.260
 1674BOLB   C2B40162  15.680  14.660   6.880
 1674BOLB   C3B40163  15.800  14.490   6.420
 1674BOLB   C4B40164  15.950  14.240   6.050
 1674BOLB   NC240165  16.790  11.770   5.850
 1674BOLB   PO240166  16.860  12.100   5.560
 1674BOLB   GL340167  16.980  12.440   5.920
 1674BOLB   GL440168  16.880  12.280   6.270
 1674BOLB   C1C40169  16.810  12.880   6.210
 1674BOLB   C2C40170  16.640  12.940   6.660
 1674BOLB   C3C40171  16.640  13.250   6.950
 1674BOLB   C4C40172  16.340  13.500   7.160
 1674BOLB   C1D40173  16.470  12.510   6.400
 1674BOLB   C2D40174  16.090  12.500   6.620
 1674BOLB   C3D40175  15.780  12.670   6.910
 1674BOLB   C4D40176  15.540  12.920   7.230
 1675BOLB   NC140177  12.460  11.370  13.170
 1675BOLB   PO140178  12.360  10.890  13.290
 1675BOLB   GL140179  12.440  10.590  13.230
 1675BOLB   GL240180  12.540  10.370  13.530
 1675BOLB   C1A40181  12.320  10.170  13.180
 1675BOLB   C2A40182  12.320   9.710  13.060
 1675BOLB   C3A40183  12.560   9.290  12.950
 1675BOLB   C4A40184  12.330   8.920  12.780
 1675BOLB   C1B40185  12.970  10.140  13.570
 1675BOLB   C2B40186  13.240   9.850  13.450
 1675BOLB   C3B40187  13.400   9.530  13.020
 1675BOLB   C4B40188  13.800   9.300  12.850
 1675BOLB   NC240189  12.320   7.160  11.190
 1675BOLB   PO240190  12.420   7.520  10.970
 1675BOLB   GL340191  12.340   7.940  10.970
 1675BOLB   GL440192  12.130   8.010  10.740
 1675BOLB   C1C40193  12.470   8.250  11.200
 1675BOLB   C2C40194  12.580   8.380  11.600
 1675BOLB   C3C40195  12.450   8.590  12.070
 1675BOLB   C4C40196  12.170   8.840  12.430
 1675BOLB   C1D40197  11.980   8.400  10.860
 1675BOLB   C2D40198  11.780   8.720  11.090
 1675BOLB   C3D40199  11.450   8.890  11.200
 1675BOLB   C4D40200  10.990   8.890  11.320
 1676BOLB   NC140201  13.320  11.750  12.020
 1676BOLB   PO140202  13.050  11.440  12.310
 1676BOLB   GL140203  13.310  11.190  12.220
 1676BOLB   GL240204  13.430  11.190  11.840
 1676BOLB   C1A40205  13.460  10.730  12.000
 1676BOLB   C2A40206  13.530  10.420  11.730
 1676BOLB   C3A40207  13.270  10.100  11.640
 1676BOLB   C4A40208  13.090   9.700  11.550
 1676BOLB   C1B40209  13.570  10.860  11.520
 1676BOLB   C2B40210  13.730  10.640  11.260
 1676BOLB   C3B40211  13.810  10.270  11.330
 1676BOLB   C4B40212  13.730   9.810  11.360
 1676BOLB   NC240213  14.010   7.690  11.650
 1676BOLB   PO240214  14.410   7.740  11.600
 1676BOLB   GL340215  14.130   8.130  11.840
 1676BOLB   GL440216  14.180   8.190  12.130
 1676BOLB   C1C40217  13.840   8.420  11.840
 1676BOLB   C2C40218  13.470   8.540  11.790
 1676BOLB   C3C40219  13.360   8.940  11.620
 1676BOLB   C4C40220  13.380   9.430  11.480
 1676BOLB   C1D40221  14.170   8.490  12.500
 1676BOLB   C2D40222  14.080   8.660  12.890
 1676BOLB   C3D40223  13.900   8.810  13.200
 1676BOLB   C4D40224  13.710   9.060  13.460
 1677BOLB   NC140225   5.070  10.790   6.390
 1677BOLB   PO140226   5.200  11.120   6.760
 1677BOLB   GL140227   5.450  11.240   7.210
 1677BOLB   GL240228   5.390  11.510   7.260
 1677BOLB   C1A40229   5.850  11.220   7.640
 1677BOLB   C2A40230   6.160  11.320   7.960
 1677BOLB   C3A40231   6.270  11.740   7.990
 1677BOLB   C4A40232   6.510  12.010   8.210
 1677BOLB   C1B40233   5.770  11.740   7.350
 1677BOLB   C2B40234   6.110  11.710   7.520
 1677BOLB   C3B40235   6.560  11.980   7.640
 1677BOLB   C4B40236   6.860  12.250   7.900
 1677BOLB   NC240237   7.980  13.590   9.340
 1677BOLB   PO240238   7.510  13.690   9.350
 1677BOLB   GL340239   7.240  13.370   9.220
 1677BOLB   GL440240   7.000  13.270   9.340
 1677BOLB   C1C40241   7.060  13.080   8.850
 1677BOLB   C2C40242   6.820  12.670   8.800
 1677BOLB   C3C40243   6.810  12.200   8.800
 1677BOLB   C4C40244   6.690  11.940   8.550
 1677BOLB   C1D40245   6.820  12.880   9.360
 1677BOLB   C2D40246   6.700  12.510   9.240
 1677BOLB   C3D40247   6.650  12.050   9.220
 1677BOLB   C4D40248   6.140  11.880   9.330
 1678BOLB   NC140249  10.370  15.570   3.310
 1678BOLB   PO140250  10.640  15.270   3.360
 1678BOLB   GL140251  10.760  15.610   3.620
 1678BOLB   GL240252  10.760  15.470   3.890
 1678BOLB   C1A40253  10.930  15.920   3.790
 1678BOLB   C2A40254  11.150  16.180   4.150
 1678BOLB   C3A40255  11.230  16.390   4.550
 1678BOLB   C4A40256  11.020  16.720   4.580
 1678BOLB   C1B40257  10.930  15.240   4.250
 1678BOLB   C2B40258  11.220  15.040   4.530
 1678BOLB   C3B40259  11.540  15.320   4.760
 1678BOLB   C4B40260  12.040  15.220   4.880
 1678BOLB   NC240261  10.030  16.960   2.860
 1678BOLB   PO240262  10.170  17.270   2.700
 1678BOLB   GL340263  10.130  17.370   3.150
 1678BOLB   GL440264  10.490  17.330   3.340
 1678BOLB   C1C40265  10.110  17.540   3.590
 1678BOLB   C2C40266  10.200  17.520   4.010
 1678BOLB   C3C40267  10.460  17.290   4.310
 1678BOLB   C4C40268  10.780  17.060   4.570
 1678BOLB   C1D40269  10.530  17.200   3.770
 1678BOLB   C2D40270  10.900  17.220   4.070
 1678BOLB   C3D40271  11.260  17.230   4.290
 1678BOLB   C4D40272  11.610  17.310   4.530
 1679BOLB   NC140273  11.450  18.370   6.400
 1679BOLB   PO140274  11.840  18.110   6.520
 1679BOLB   GL140275  11.800  18.060   6.180
 1679BOLB   GL240276  12.040  18.020   6.050
 1679BOLB   C1A40277  11.600  18.270   5.780
 1679BOLB   C2A40278  11.260  18.280   5.540
 1679BOLB   C3A40279  11.120  18.160   5.120
 1679BOLB   C4A40280  10.800  18.040   4.720
 1679BOLB   C1B40281  12.120  18.000   5.730
 1679BOLB   C2B40282  12.070  18.190   5.410
 1679BOLB   C3B40283  12.350  18.280   4.940
 1679BOLB   C4B40284  12.190  18.160   4.580
 1679BOLB   NC240285  12.120  17.700   2.540
 1679BOLB   PO240286  11.650  17.550   2.710
 1679BOLB   GL340287  11.830  17.770   3.020
 1679BOLB   GL440288  12.120  17.920   2.960
 1679BOLB   C1C40289  11.620  18.000   3.310
 1679BOLB   C2C40290  11.530  18.070   3.790
 1679BOLB   C3C40291  11.230  18.240   4.140
 1679BOLB   C4C40292  10.880  18.120   4.280
 1679BOLB   C1D40293  12.220  18.180   3.330
 1679BOLB   C2D40294  12.360  18.350   3.850
 1679BOLB   C3D40295  12.330  18.530   4.210
 1679BOLB   C4D40296  11.990  18.630   4.540
 1680BOLB   NC140297  15.420  11.670  14.590
 1680BOLB   PO140298  15.200  11.480  14.920
 1680BOLB   GL140299  15.400  11.040  14.930
 1680BOLB   GL240300  15.670  11.200  14.850
 1680BOLB   C1A40301  15.260  10.640  14.830
 1680BOLB   C2A40302  15.170  10.270  14.690
 1680BOLB   C3A40303  14.990   9.790  14.700
 1680BOLB   C4A40304  15.160   9.520  14.900
 1680BOLB   C1B40305  16.050  11.110  14.820
 1680BOLB   C2B40306  16.470  10.950  14.960
 1680BOLB   C3B40307  16.790  10.600  15.060
 1680BOLB   C4B40308  17.160  10.360  14.890
 1680BOLB   NC240309  16.480   7.480  15.820
 1680BOLB   PO240310  16.580   7.720  15.430
 1680BOLB   GL340311  16.430   8.020  15.160
 1680BOLB   GL440312  16.120   8.070  15.120
 1680BOLB   C1C40313  16.470   8.410  15.220
 1680BOLB   C2C40314  16.170   8.820  15.150
 1680BOLB   C3C40315  15.790   9.000  14.920
 1680BOLB   C4C40316  15.360   9.120  15.010
 1680BOLB   C1D40317  16.010   8.440  15.450
 1680BOLB   C2D40318  15.870   8.670  15.910
 1680BOLB   C3D40319  15.670   9.020  16.000
 1680BOLB   C4D40320  15.460   9.270  16.370
 1681BOLB   NC140321  15.430  12.450  12.450
 1681BOLB   PO140322  15.830  12.530  12.210
 1681BOLB   GL140323  15.970  12.230  12.020
 1681BOLB   GL240324  16.010  11.970  12.280
 1681BOLB   C1A40325  16.000  11.910  11.740
 1681BOLB   C2A40326  16.220  11.530  11.770
 1681BOLB   C3A40327  16.410  11.080  11.780
 1681BOLB   C4A40328  16.820  10.820  11.590
 1681BOLB   C1B40329  16.200  11.630  12.290
 1681BOLB   C2B40330  16.540  11.330  12.220
 1681BOLB   C3B40331  16.950  11.170  12.160
 1681BOLB   C4B40332  17.230  10.850  12.050
 1681BOLB   NC240333  19.130   9.480  11.780
 1681BOLB   PO240334  18.980   9.760  11.450
 1681BOLB   GL340335  18.700  10.030  11.590
 1681BOLB   GL440336  18.470  10.020  11.290
 1681BOLB   C1C40337  18.420  10.300  11.870
 1681BOLB   C2C40338  18.050  10.330  12.070
 1681BOLB   C3C40339  17.660  10.570  11.960
 1681BOLB   C4C40340  17.190  10.550  11.650
 1681BOLB   C1D40341  18.220  10.450  11.460
 1681BOLB   C2D40342  17.990  10.780  11.590
 1681BOLB   C3D40343  17.670  11.130  11.690
 1681BOLB   C4D40344  17.200  11.250  11.710
 1682BOLB   NC140345  16.450  16.110   8.790
 1682BOLB   PO140346  16.820  16.120   9.050
 1682BOLB   GL140347  17.010  16.030   8.600
 1682BOLB   GL240348  17.210  16.220   8.410
 1682BOLB   C1A40349  17.180  15.750   8.230
 1682BOLB   C2A40350  17.360  15.500   7.920
 1682BOLB   C3A40351  17.190  15.030   7.840
 1682BOLB   C4A40352  17.210  14.820   7.430
 1682BOLB   C1B40353  17.390  16.190   8.130
 1682BOLB   C2B40354  17.520  15.970   7.790
 1682BOLB   C3B40355  17.750  15.690   7.570
 1682BOLB   C4B40356  17.880  15.340   7.760
 1682BOLB   NC240357  17.940  13.380   5.850
 1682BOLB   PO240358  17.850  13.750   5.580
 1682BOLB   GL340359  17.690  13.790   6.050
 1682BOLB   GL440360  17.920  13.860   6.340
 1682BOLB   C1C40361  17.520  14.040   6.340
 1682BOLB   C2C40362  17.330  14.250   6.650
 1682BOLB   C3C40363  17.280  14.350   7.020
 1682BOLB   C4C40364  17.420  14.610   7.260
 1682BOLB   C1D40365  17.820  13.550   6.780
 1682BOLB   C2D40366  17.880  13.710   7.300
 1682BOLB   C3D40367  18.040  13.880   7.550
 1682BOLB   C4D40368  17.910  13.970   7.930
 1683BOLB   NC140369  17.820   8.010  14.780
 1683BOLB   PO140370  17.820   8.380  15.090
 1683BOLB   GL140371  17.820   8.780  15.340
 1683BOLB   GL240372  17.910   9.130  15.580
 1683BOLB   C1A40373  17.450   9.010  15.530
 1683BOLB   C2A40374  17.440   9.430  15.590
 1683BOLB   C3A40375  17.330   9.840  15.900
 1683BOLB   C4A40376  17.090   9.990  16.380
 1683BOLB   C1B40377  17.750   9.320  15.240
 1683BOLB   C2B40378  17.540   9.580  15.120
 1683BOLB   C3B40379  17.260   9.810  15.240
 1683BOLB   C4B40380  16.880  10.050  15.170
 1683BOLB   NC240381  18.220   8.360  17.690
 1683BOLB   PO240382  18.140   8.650  17.410
 1683BOLB   GL340383  18.020   9.110  17.240
 1683BOLB   GL440384  18.240   9.360  17.060
 1683BOLB   C1C40385  17.880   9.470  17.570
 1683BOLB   C2C40386  17.560   9.700  17.410
 1683BOLB   C3C40387  17.300   9.910  17.290
 1683BOLB   C4C40388  17.110  10.060  16.900
 1683BOLB   C1D40389  17.940   9.630  17.070
 1683BOLB   C2D40390  17.750   9.980  16.960
 1683BOLB   C3D40391  17.580  10.270  16.730
 1683BOLB   C4D40392  17.090  10.550  16.720
 1684BOLB   NC140393  11.540  10.700  14.060
 1684BOLB   PO140394  11.750  10.500  14.430
 1684BOLB   GL140395  11.880  10.150  14.470
 1684BOLB   GL240396  11.870  10.060  14.720
 1684BOLB   C1A40397  11.810   9.760  14.300
 1684BOLB   C2A40398  11.760   9.490  13.950
 1684BOLB   C3A40399  11.850   9.300  13.550
 1684BOLB   C4A40400  11.660   8.900  13.340
 1684BOLB   C1B40401  11.710   9.650  14.760
 1684BOLB   C2B40402  11.870   9.340  14.630
 1684BOLB   C3B40403  12.220   9.200  14.380
 1684BOLB   C4B40404  12.080   8.900  14.150
 1684BOLB   NC240405  10.960   6.880  12.900
 1684BOLB   PO240406  11.120   6.600  13.150
 1684BOLB   GL340407  11.190   6.930  13.320
 1684BOLB   GL440408  11.350   6.960  13.570
 1684BOLB   C1C40409  11.280   7.370  13.180
 1684BOLB   C2C40410  11.310   7.750  13.280
 1684BOLB   C3C40411  11.470   8.150  13.360
 1684BOLB   C4C40412  11.640   8.510  13.260
 1684BOLB   C1D40413  11.690   7.260  13.530
 1684BOLB   C2D40414  11.760   7.710  13.660
 1684BOLB   C3D40415  11.670   8.100  13.870
 1684BOLB   C4D40416  11.710   8.590  14.280
 1685BOLB   NC140417  12.390  12.130  10.320
 1685BOLB   PO140418  12.020  11.990  10.390
 1685BOLB   GL140419  12.170  11.680  10.190
 1685BOLB   GL240420  12.520  11.690  10.160
 1685BOLB   C1A40421  12.040  11.390   9.870
 1685BOLB   C2A40422  11.920  11.050   9.590
 1685BOLB   C3A40423  12.040  10.620   9.430
 1685BOLB   C4A40424  11.990  10.320   9.250
 1685BOLB   C1B40425  12.550  11.380   9.860
 1685BOLB   C2B40426  12.660  10.970   9.690
 1685BOLB   C3B40427  12.560  10.580   9.460
 1685BOLB   C4B40428  12.470  10.130   9.200
 1685BOLB   NC240429  12.260   7.850   9.030
 1685BOLB   PO240430  12.050   8.080   9.380
 1685BOLB   GL340431  11.970   8.460   9.520
 1685BOLB   GL440432  12.000   8.350   9.840
 1685BOLB   C1C40433  11.780   8.810   9.470
 1685BOLB   C2C40434  11.800   9.220   9.350
 1685BOLB   C3C40435  11.710   9.600   9.120
 1685BOLB   C4C40436  11.740   9.980   9.110
 1685BOLB   C1D40437  11.630   8.710  10.070
 1685BOLB   C2D40438  11.330   8.830  10.230
 1685BOLB   C3D40439  11.060   9.210  10.340
 1685BOLB   C4D40440  10.890   9.570  10.540
 1686BOLB   NC140441   8.100   7.180  15.440
 1686BOLB   PO140442   8.500   7.040  15.320
 1686BOLB   GL140443   8.800   7.400  15.210
 1686BOLB   GL240444   8.640   7.550  15.400
 1686BOLB   C1A40445   9.190   7.540  15.160
 1686BOLB   C2A40446   9.460   7.790  14.880
 1686BOLB   C3A40447   9.690   8.180  14.650
 1686BOLB   C4A40448   9.860   8.530  14.760
 1686BOLB   C1B40449   8.520   7.860  15.170
 1686BOLB   C2B40450   8.400   8.360  15.070
 1686BOLB   C3B40451   8.380   8.810  15.280
 1686BOLB   C4B40452   8.340   9.310  15.220
 1686BOLB   NC240453   9.950  11.310  15.310
 1686BOLB   PO240454  10.140  10.860  15.290
 1686BOLB   GL340455  10.120  10.450  15.400
 1686BOLB   GL440456  10.340  10.270  15.580
 1686BOLB   C1C40457   9.930  10.020  15.340
 1686BOLB   C2C40458   9.970   9.640  15.380
 1686BOLB   C3C40459   9.850   9.240  15.140
 1686BOLB   C4C40460  10.030   8.770  15.020
 1686BOLB   C1D40461  10.360   9.820  15.620
 1686BOLB   C2D40462  10.430   9.350  15.450
 1686BOLB   C3D40463  10.490   8.960  15.390
 1686BOLB   C4D40464  10.450   8.540  15.340
 1687BOLB   NC140465  15.230  11.780  23.040
 1687BOLB   PO140466  15.430  11.510  22.900
 1687BOLB   GL140467  15.130  11.560  22.520
 1687BOLB   GL240468  14.830  11.670  22.680
 1687BOLB   C1A40469  15.200  11.700  22.120
 1687BOLB   C2A40470  15.190  11.550  21.730
 1687BOLB   C3A40471  15.210  11.610  21.380
 1687BOLB   C4A40472  15.190  11.740  20.970
 1687BOLB   C1B40473  14.960  12.010  22.470
 1687BOLB   C2B40474  14.750  11.970  22.130
 1687BOLB   C3B40475  14.600  12.240  21.720
 1687BOLB   C4B40476  14.430  12.500  21.380
 1687BOLB   NC240477  13.900  13.430  18.920
 1687BOLB   PO240478  14.210  13.430  19.240
 1687BOLB   GL340479  14.430  13.140  19.530
 1687BOLB   GL440480  14.230  12.800  19.480
 1687BOLB   C1C40481  14.620  12.880  19.800
 1687BOLB   C2C40482  14.750  12.570  20.100
 1687BOLB   C3C40483  14.840  12.210  20.460
 1687BOLB   C4C40484  15.170  12.030  20.660
 1687BOLB   C1D40485  14.380  12.400  19.740
 1687BOLB   C2D40486  14.540  12.070  20.090
 1687BOLB   C3D40487  14.770  11.720  20.240
 1687BOLB   C4D40488  15.060  11.530  20.080
 1688BOLB   NC140489  15.800   7.800  13.200
 1688BOLB   PO140490  15.840   7.880  12.790
 1688BOLB   GL140491  15.580   8.160  13.020
 1688BOLB   GL240492  15.730   8.360  13.210
 1688BOLB   C1A40493  15.250   8.440  13.050
 1688BOLB   C2A40494  15.020   8.760  13.240
 1688BOLB   C3A40495  14.870   9.090  13.160
 1688BOLB   C4A40496  14.410   9.260  13.120
 1688BOLB   C1B40497  15.710   8.710  13.040
 1688BOLB   C2B40498  15.500   8.970  12.690
 1688BOLB   C3B40499  15.370   9.090  12.310
 1688BOLB   C4B40500  15.040   9.380  12.210
 1688BOLB   NC240501  12.960  11.080  13.960
 1688BOLB   PO240502  13.170  11.190  13.660
 1688BOLB   GL340503  13.240  10.800  13.420
 1688BOLB   GL440504  13.300  10.820  13.190
 1688BOLB   C1C40505  13.370  10.370  13.530
 1688BOLB   C2C40506  13.640  10.160  13.340
 1688BOLB   C3C40507  13.900   9.870  13.120
 1688BOLB   C4C40508  14.250   9.580  13.260
 1688BOLB   C1D40509  13.370  10.410  12.990
 1688BOLB   C2D40510  13.390   9.970  12.840
 1688BOLB   C3D40511  13.500   9.580  12.540
 1688BOLB   C4D40512  13.570   9.240  12.260
 1689BOLB   NC140513  14.920  17.170   7.370
 1689BOLB   PO140514  14.670  17.490   7.020
 1689BOLB   GL140515  14.890  17.350   6.770
 1689BOLB   GL240516  15.180  17.410   6.880
 1689BOLB   C1A40517  14.860  17.160   6.380
 1689BOLB   C2A40518  14.900  16.710   6.110
 1689BOLB   C3A40519  14.710  16.530   5.790
 1689BOLB   C4A40520  14.540  16.260   5.480
 1689BOLB   C1B40521  15.490  17.610   6.650
 1689BOLB   C2B40522  15.680  17.700   6.230
 1689BOLB   C3B40523  15.900  17.700   5.810
 1689BOLB   C4B40524  16.110  17.730   5.310
 1689BOLB   NC240525  14.680  14.440   3.730
 1689BOLB   PO240526  15.010  14.280   3.890
 1689BOLB   GL340527  15.030  14.500   4.230
 1689BOLB   GL440528  14.770  14.730   4.080
 1689BOLB   C1C40529  14.930  14.950   4.520
 1689BOLB   C2C40530  14.920  15.430   4.730
 1689BOLB   C3C40531  14.920  15.780   4.820
 1689BOLB   C4C40532  14.670  16.010   5.140
 1689BOLB   C1D40533  14.980  15.030   3.960
 1689BOLB   C2D40534  15.160  15.370   4.210
 1689BOLB   C3D40535  15.210  15.710   4.430
 1689BOLB   C4D40536  15.150  16.260   4.410
 1690BOLB   NC140537  13.190  17.470   7.020
 1690BOLB   PO140538  12.910  17.160   6.940
 1690BOLB   GL140539  12.900  17.070   6.450
 1690BOLB   GL240540  12.650  17.050   6.290
 1690BOLB   C1A40541  13.100  16.800   6.060
 1690BOLB   C2A40542  13.200  16.500   5.730
 1690BOLB   C3A40543  13.170  16.460   5.220
 1690BOLB   C4A40544  13.390  16.570   4.820
 1690BOLB   C1B40545  12.620  16.820   5.890
 1690BOLB   C2B40546  12.670  16.590   5.580
 1690BOLB   C3B40547  12.650  16.300   5.180
 1690BOLB   C4B40548  12.640  16.100   4.680
 1690BOLB   NC240549  13.730  15.570   2.830
 1690BOLB   PO240550  14.160  15.420   2.920
 1690BOLB   GL340551  13.990  15.730   3.220
 1690BOLB   GL440552  13.990  16.010   3.160
 1690BOLB   C1C40553  13.860  15.670   3.580
 1690BOLB   C2C40554  13.770  15.800   3.970
 1690BOLB   C3C40555  13.680  16.020   4.330
 1690BOLB   C4C40556  13.460  16.320   4.470
 1690BOLB   C1D40557  13.970  16.130   3.570
 1690BOLB   C2D40558  13.780  16.350   3.900
 1690BOLB   C3D40559  13.840  16.530   4.250
 1690BOLB   C4D40560  13.880  16.710   4.600
 1691BOLB   NC140561  13.730  12.630  18.610
 1691BOLB   PO140562  14.150  12.440  18.610
 1691BOLB   GL140563  14.210  12.040  18.760
 1691BOLB   GL240564  14.580  12.000  18.760
 1691BOLB   C1A40565  14.220  11.690  18.990
 1691BOLB   C2A40566  14.550  11.440  19.250
 1691BOLB   C3A40567  14.900  11.140  19.170
 1691BOLB   C4A40568  15.160  10.770  19.030
 1691BOLB   C1B40569  14.930  11.630  18.930
 1691BOLB   C2B40570  15.270  11.410  18.990
 1691BOLB   C3B40571  15.370  11.180  19.270
 1691BOLB   C4B40572  15.780  11.110  19.400
 1691BOLB   NC240573  17.200   9.380  20.380
 1691BOLB   PO240574  16.800   9.300  20.280
 1691BOLB   GL340575  16.600   9.580  20.040
 1691BOLB   GL440576  16.540   9.820  20.110
 1691BOLB   C1C40577  16.230   9.700  19.700
 1691BOLB   C2C40578  16.120  10.050  19.370
 1691BOLB   C3C40579  15.890  10.410  19.430
 1691BOLB   C4C40580  15.540  10.650  19.290
 1691BOLB   C1D40581  16.490  10.240  20.030
 1691BOLB   C2D40582  16.380  10.780  20.040
 1691BOLB   C3D40583  16.170  11.040  20.120
 1691BOLB   C4D40584  16.090  11.390  19.820
 1692BOLB   NC140585  13.230  10.390  21.680
 1692BOLB   PO140586  13.440   9.980  21.570
 1692BOLB   GL140587  13.320  10.220  21.240
 1692BOLB   GL240588  13.620  10.400  21.220
 1692BOLB   C1A40589  13.080  10.520  21.020
 1692BOLB   C2A40590  13.020  10.920  20.740
 1692BOLB   C3A40591  12.930  11.410  20.750
 1692BOLB   C4A40592  13.200  11.700  20.530
 1692BOLB   C1B40593  13.450  10.790  21.240
 1692BOLB   C2B40594  12.960  10.850  21.370
 1692BOLB   C3B40595  12.700  11.090  21.160
 1692BOLB   C4B40596  12.500  10.980  20.820
 1692BOLB   NC240597  12.890  11.700  18.500
 1692BOLB   PO240598  13.220  11.960  18.390
 1692BOLB   GL340599  13.250  11.810  18.800
 1692BOLB   GL440600  13.470  11.610  18.720
 1692BOLB   C1C40601  13.350  11.650  19.220
 1692BOLB   C2C40602  13.610  11.650  19.500
 1692BOLB   C3C40603  13.740  11.600  19.910
 1692BOLB   C4C40604  13.550  11.700  20.330
 1692BOLB   C1D40605  13.380  11.190  18.960
 1692BOLB   C2D40606  13.230  10.760  19.180
 1692BOLB   C3D40607  13.500  10.630  19.520
 1692BOLB   C4D40608  13.650  10.850  19.980
 1693BOLB   NC140609  11.330  12.450  18.790
 1693BOLB   PO140610  11.270  12.040  18.480
 1693BOLB   GL140611  11.040  11.950  18.810
 1693BOLB   GL240612  11.310  12.020  19.000
 1693BOLB   C1A40613  10.840  11.740  19.240
 1693BOLB   C2A40614  10.820  11.360  19.420
 1693BOLB   C3A40615  10.920  10.870  19.360
 1693BOLB   C4A40616  11.280  10.610  19.480
 1693BOLB   C1B40617  11.330  11.760  19.370
 1693BOLB   C2B40618  11.360  11.300  19.490
 1693BOLB   C3B40619  11.380  11.010  19.810
 1693BOLB   C4B40620  11.230  10.650  20.110
 1693BOLB   NC240621  10.890   8.490  20.570
 1693BOLB   PO240622  11.050   8.590  20.990
 1693BOLB   GL340623  10.990   9.030  20.950
 1693BOLB   GL440624  11.250   9.240  21.150
 1693BOLB   C1C40625  10.940   9.470  20.730
 1693BOLB   C2C40626  10.930   9.850  20.420
 1693BOLB   C3C40627  11.070  10.000  20.000
 1693BOLB   C4C40628  11.280  10.260  19.640
 1693BOLB   C1D40629  11.450   9.320  20.790
 1693BOLB   C2D40630  11.680   9.460  20.600
 1693BOLB   C3D40631  12.030   9.620  20.570
 1693BOLB   C4D40632  12.400   9.700  20.380
 1694BOLB   NC140633   6.170  14.260   9.420
 1694BOLB   PO140634   5.980  14.670   9.240
 1694BOLB   GL140635   5.770  14.390   8.930
 1694BOLB   GL240636   5.470  14.560   8.880
 1694BOLB   C1A40637   5.650  14.250   8.480
 1694BOLB   C2A40638   5.450  14.360   8.160
 1694BOLB   C3A40639   5.130  14.140   7.910
 1694BOLB   C4A40640   4.940  14.260   7.540
 1694BOLB   C1B40641   5.190  14.490   8.590
 1694BOLB   C2B40642   4.880  14.550   8.280
 1694BOLB   C3B40643   4.560  14.710   8.240
 1694BOLB   C4B40644   4.490  14.950   8.530
 1694BOLB   NC240645   4.130  13.870   5.690
 1694BOLB   PO240646   4.520  13.690   5.460
 1694BOLB   GL340647   4.770  13.930   5.700
 1694BOLB   GL440648   5.020  13.790   5.790
 1694BOLB   C1C40649   4.930  14.140   6.090
 1694BOLB   C2C40650   4.720  14.220   6.410
 1694BOLB   C3C40651   4.760  14.430   6.730
 1694BOLB   C4C40652   4.810  14.350   7.150
 1694BOLB   C1D40653   5.400  13.990   6.060
 1694BOLB   C2D40654   5.410  14.150   6.430
 1694BOLB   C3D40655   5.820  14.120   6.740
 1694BOLB   C4D40656   6.110  13.880   7.080
 1695BOLB   NC140657  15.340  13.800  18.940
 1695BOLB   PO140658  15.550  13.400  18.820
 1695BOLB   GL140659  15.810  13.250  19.130
 1695BOLB   GL240660  15.940  12.990  19.150
 1695BOLB   C1A40661  15.980  13.250  19.590
 1695BOLB   C2A40662  16.090  13.030  19.900
 1695BOLB   C3A40663  16.540  13.070  20.070
 1695BOLB   C4A40664  16.740  12.960  20.490
 1695BOLB   C1B40665  16.280  12.890  19.340
 1695BOLB   C2B40666  16.600  12.640  19.490
 1695BOLB   C3B40667  16.860  12.330  19.570
 1695BOLB   C4B40668  17.230  12.320  19.790
 1695BOLB   NC240669  19.170  11.950  21.210
 1695BOLB   PO240670  18.740  12.120  21.450
 1695BOLB   GL340671  18.470  12.350  21.560
 1695BOLB   GL440672  18.400  12.660  21.740
 1695BOLB   C1C40673  18.020  12.370  21.530
 1695BOLB   C2C40674  17.680  12.620  21.220
 1695BOLB   C3C40675  17.400  12.620  21.010
 1695BOLB   C4C40676  17.110  12.980  20.830
 1695BOLB   C1D40677  18.060  12.970  21.830
 1695BOLB   C2D40678  17.840  13.270  21.540
 1695BOLB   C3D40679  17.770  13.620  21.210
 1695BOLB   C4D40680  17.760  13.700  20.760
 1696BOLB   NC140681  10.710   7.520  19.490
 1696BOLB   PO140682  10.770   7.780  19.840
 1696BOLB   GL140683  10.820   8.240  19.600
 1696BOLB   GL240684  10.910   8.350  19.870
 1696BOLB   C1A40685  10.790   8.620  19.440
 1696BOLB   C2A40686  11.040   8.970  19.390
 1696BOLB   C3A40687  11.380   9.380  19.330
 1696BOLB   C4A40688  11.400   9.750  19.710
 1696BOLB   C1B40689  10.770   8.840  19.990
 1696BOLB   C2B40690  10.390   9.140  20.050
 1696BOLB   C3B40691  10.250   9.530  19.820
 1696BOLB   C4B40692  10.410   9.530  19.420
 1696BOLB   NC240693  12.700   8.130  20.510
 1696BOLB   PO240694  12.360   8.010  20.380
 1696BOLB   GL340695  12.280   8.400  20.270
 1696BOLB   GL440696  12.500   8.560  20.100
 1696BOLB   C1C40697  12.010   8.590  20.280
 1696BOLB   C2C40698  11.770   8.840  20.090
 1696BOLB   C3C40699  11.490   9.110  20.260
 1696BOLB   C4C40700  11.480   9.580  20.110
 1696BOLB   C1D40701  12.270   8.920  19.940
 1696BOLB   C2D40702  12.200   9.280  19.630
 1696BOLB   C3D40703  12.300   9.640  19.300
 1696BOLB   C4D40704  12.300   9.920  18.920
 1697BOLB   NC140705  11.440  11.550  10.970
 1697BOLB   PO140706  11.280  11.510  10.520
 1697BOLB   GL140707  11.520  11.130  10.660
 1697BOLB   GL240708  11.340  11.010  10.820
 1697BOLB   C1A40709  11.760  10.810  10.590
 1697BOLB   C2A40710  11.930  10.540  10.240
 1697BOLB   C3A40711  11.820  10.070  10.030
 1697BOLB   C4A40712  11.860   9.600  10.120
 1697BOLB   C1B40713  11.410  10.630  10.970
 1697BOLB   C2B40714  11.310  10.330  11.120
 1697BOLB   C3B40715  11.190   9.840  11.300
 1697BOLB   C4B40716  10.730   9.700  11.520
 1697BOLB   NC240717  13.200   7.360   9.160
 1697BOLB   PO240718  13.250   7.820   9.050
 1697BOLB   GL340719  13.030   8.020   9.380
 1697BOLB   GL440720  13.080   8.010   9.670
 1697BOLB   C1C40721  12.720   8.460   9.490
 1697BOLB   C2C40722  12.470   8.650   9.780
 1697BOLB   C3C40723  12.100   8.870   9.880
 1697BOLB   C4C40724  11.930   9.140  10.070
 1697BOLB   C1D40725  12.980   8.400   9.910
 1697BOLB   C2D40726  12.760   8.900  10.130
 1697BOLB   C3D40727  12.380   9.000  10.370
 1697BOLB   C4D40728  12.220   8.900  10.890
 1698BOLB   NC140729  12.910  11.720  17.490
 1698BOLB   PO140730  12.930  11.310  17.410
 1698BOLB   GL140731  12.810  10.820  17.330
 1698BOLB   GL240732  12.650  10.790  17.580
 1698BOLB   C1A40733  12.870  10.310  17.410
 1698BOLB   C2A40734  13.080   9.920  17.450
 1698BOLB   C3A40735  13.340   9.650  17.310
 1698BOLB   C4A40736  13.370   9.210  17.130
 1698BOLB   C1B40737  12.730  10.470  17.880
 1698BOLB   C2B40738  12.930  10.110  17.960
 1698BOLB   C3B40739  13.100   9.700  18.180
 1698BOLB   C4B40740  13.370   9.420  18.550
 1698BOLB   NC240741  13.750   6.870  17.040
 1698BOLB   PO240742  13.820   7.060  17.410
 1698BOLB   GL340743  14.050   7.390  17.290
 1698BOLB   GL440744  14.030   7.560  17.630
 1698BOLB   C1C40745  14.010   7.780  17.000
 1698BOLB   C2C40746  13.850   8.150  16.860
 1698BOLB   C3C40747  13.820   8.590  16.710
 1698BOLB   C4C40748  13.580   8.950  16.910
 1698BOLB   C1D40749  13.730   7.770  17.900
 1698BOLB   C2D40750  13.720   8.220  18.200
 1698BOLB   C3D40751  13.640   8.640  18.070
 1698BOLB   C4D40752  13.510   8.880  17.840
 1699BOLB   NC140753  19.820  18.530  12.580
 1699BOLB   PO140754  20.190  18.650  12.900
 1699BOLB   GL140755  20.510  18.410  12.590
 1699BOLB   GL240756  20.500  18.030  12.310
 1699BOLB   C1A40757  20.870  18.250  12.570
 1699BOLB   C2A40758  21.190  17.920  12.680
 1699BOLB   C3A40759  21.570  17.780  12.740
 1699BOLB   C4A40760  21.780  17.400  12.820
 1699BOLB   C1B40761  20.880  18.080  12.110
 1699BOLB   C2B40762  21.360  18.190  12.240
 1699BOLB   C3B40763  21.740  18.410  12.150
 1699BOLB   C4B40764  22.080  18.650  11.960
 1699BOLB   NC240765  23.940  16.680  13.890
 1699BOLB   PO240766  23.650  16.530  14.160
 1699BOLB   GL340767  23.430  16.700  13.760
 1699BOLB   GL440768  23.240  16.770  13.980
 1699BOLB   C1C40769  23.250  16.790  13.450
 1699BOLB   C2C40770  22.970  17.110  13.350
 1699BOLB   C3C40771  22.700  17.420  13.200
 1699BOLB   C4C40772  22.200  17.440  13.000
 1699BOLB   C1D40773  22.840  16.790  13.770
 1699BOLB   C2D40774  22.510  16.830  13.600
 1699BOLB   C3D40775  22.210  17.020  13.300
 1699BOLB   C4D40776  21.840  17.110  13.320
 1700BOLB   NC140777  21.130  27.840  13.860
 1700BOLB   PO140778  20.930  27.830  14.220
 1700BOLB   GL140779  20.580  27.630  14.270
 1700BOLB   GL240780  20.600  27.290  14.210
 1700BOLB   C1A40781  20.260  27.390  14.550
 1700BOLB   C2A40782  20.210  27.010  14.480
 1700BOLB   C3A40783  20.040  26.590  14.580
 1700BOLB   C4A40784  19.960  26.320  14.940
 1700BOLB   C1B40785  20.130  27.380  14.000
 1700BOLB   C2B40786  19.690  27.560  13.860
 1700BOLB   C3B40787  19.280  27.640  13.630
 1700BOLB   C4B40788  19.230  27.420  13.200
 1700BOLB   NC240789  21.560  26.750  16.720
 1700BOLB   PO240790  21.070  26.880  16.820
 1700BOLB   GL340791  20.840  26.640  16.580
 1700BOLB   GL440792  20.610  26.650  16.640
 1700BOLB   C1C40793  20.860  26.440  16.240
 1700BOLB   C2C40794  20.740  26.350  15.820
 1700BOLB   C3C40795  20.410  26.170  15.630
 1700BOLB   C4C40796  20.120  26.390  15.370
 1700BOLB   C1D40797  20.540  26.180  16.650
 1700BOLB   C2D40798  20.270  25.890  16.800
 1700BOLB   C3D40799  20.200  25.560  17.030
 1700BOLB   C4D40800  20.080  25.160  17.240
 1701BOLB   NC140801  23.020  18.900   9.550
 1701BOLB   PO140802  22.720  19.240   9.710
 1701BOLB   GL140803  22.370  19.440   9.740
 1701BOLB   GL240804  22.580  19.670   9.920
 1701BOLB   C1A40805  21.900  19.410   9.860
 1701BOLB   C2A40806  21.470  19.320   9.990
 1701BOLB   C3A40807  21.020  19.220   9.790
 1701BOLB   C4A40808  20.870  19.180   9.280
 1701BOLB   C1B40809  22.160  19.970   9.850
 1701BOLB   C2B40810  21.650  19.830   9.870
 1701BOLB   C3B40811  21.250  19.800   9.760
 1701BOLB   C4B40812  21.160  19.530   9.400
 1701BOLB   NC240813  22.230  19.330   7.000
 1701BOLB   PO240814  21.860  19.270   7.060
 1701BOLB   GL340815  21.500  19.420   7.360
 1701BOLB   GL440816  21.300  19.140   7.470
 1701BOLB   C1C40817  21.490  19.710   7.770
 1701BOLB   C2C40818  21.540  19.650   8.200
 1701BOLB   C3C40819  21.320  19.540   8.580
 1701BOLB   C4C40820  21.060  19.300   8.870
 1701BOLB   C1D40821  20.930  19.030   7.300
 1701BOLB   C2D40822  20.460  18.860   7.440
 1701BOLB   C3D40823  20.130  18.710   7.350
 1701BOLB   C4D40824  19.750  18.530   7.340
 1702BOLB   NC140825  23.670  16.370  11.420
 1702BOLB   PO140826  23.720  16.270  11.910
 1702BOLB   GL140827  23.340  16.220  11.810
 1702BOLB   GL240828  23.160  15.950  11.890
 1702BOLB   C1A40829  22.950  16.350  11.670
 1702BOLB   C2A40830  22.640  16.500  11.470
 1702BOLB   C3A40831  22.590  16.860  11.310
 1702BOLB   C4A40832  22.310  17.150  11.100
 1702BOLB   C1B40833  22.990  16.340  12.230
 1702BOLB   C2B40834  22.670  16.510  12.030
 1702BOLB   C3B40835  22.670  16.840  11.820
 1702BOLB   C4B40836  22.840  17.220  11.920
 1702BOLB   NC240837  23.530  17.800  10.300
 1702BOLB   PO240838  23.180  17.980  10.200
 1702BOLB   GL340839  22.780  18.210  10.450
 1702BOLB   GL440840  22.610  18.610  10.600
 1702BOLB   C1C40841  22.380  18.070  10.550
 1702BOLB   C2C40842  22.240  17.760  10.650
 1702BOLB   C3C40843  21.880  17.640  10.860
 1702BOLB   C4C40844  22.110  17.440  11.040
 1702BOLB   C1D40845  22.620  18.840  11.020
 1702BOLB   C2D40846  22.310  18.760  11.260
 1702BOLB   C3D40847  21.960  18.870  11.510
 1702BOLB   C4D40848  21.880  19.070  11.850
 1703BOLB   NC140849  17.550  18.480   8.890
 1703BOLB   PO140850  17.700  18.190   9.240
 1703BOLB   GL140851  18.000  18.190   8.920
 1703BOLB   GL240852  17.970  17.850   8.820
 1703BOLB   C1A40853  18.370  18.310   8.670
 1703BOLB   C2A40854  18.780  18.190   8.730
 1703BOLB   C3A40855  19.070  18.170   8.410
 1703BOLB   C4A40856  19.380  17.940   8.220
 1703BOLB   C1B40857  18.260  17.760   8.490
 1703BOLB   C2B40858  18.370  17.640   8.050
 1703BOLB   C3B40859  18.690  17.530   7.710
 1703BOLB   C4B40860  18.830  17.280   7.460
 1703BOLB   NC240861  21.590  17.550   7.070
 1703BOLB   PO240862  21.270  17.630   6.790
 1703BOLB   GL340863  20.830  17.890   6.920
 1703BOLB   GL440864  21.090  17.910   7.140
 1703BOLB   C1C40865  20.510  17.670   7.150
 1703BOLB   C2C40866  20.220  17.510   7.470
 1703BOLB   C3C40867  19.980  17.620   7.720
 1703BOLB   C4C40868  19.710  17.790   8.010
 1703BOLB   C1D40869  20.930  18.230   7.320
 1703BOLB   C2D40870  20.830  18.650   7.570
 1703BOLB   C3D40871  20.710  18.930   7.860
 1703BOLB   C4D40872  21.010  19.210   7.910
 1704BOLB   NC140873  14.770  21.760   3.090
 1704BOLB   PO140874  14.740  21.760   3.510
 1704BOLB   GL140875  14.590  21.630   3.900
 1704BOLB   GL240876  14.880  21.550   4.060
 1704BOLB   C1A40877  14.480  21.600   4.330
 1704BOLB   C2A40878  14.770  21.630   4.640
 1704BOLB   C3A40879  14.710  21.630   5.140
 1704BOLB   C4A40880  14.630  22.010   5.380
 1704BOLB   C1B40881  15.210  21.550   4.370
 1704BOLB   C2B40882  15.460  21.530   4.750
 1704BOLB   C3B40883  15.710  21.690   5.100
 1704BOLB   C4B40884  16.090  21.770   5.290
 1704BOLB   NC240885  16.230  22.820   4.210
 1704BOLB   PO240886  16.400  23.210   4.350
 1704BOLB   GL340887  16.340  22.950   4.660
 1704BOLB   GL440888  16.620  22.830   4.710
 1704BOLB   C1C40889  16.050  22.780   4.990
 1704BOLB   C2C40890  15.640  22.580   5.000
 1704BOLB   C3C40891  15.320  22.530   5.310
 1704BOLB   C4C40892  14.880  22.370   5.450
 1704BOLB   C1D40893  16.500  22.420   4.960
 1704BOLB   C2D40894  16.360  22.280   5.270
 1704BOLB   C3D40895  16.140  22.150   5.550
 1704BOLB   C4D40896  15.780  22.070   5.800
 1705BOLB   NC140897  16.980  17.350   8.610
 1705BOLB   PO140898  17.190  17.260   9.040
 1705BOLB   GL140899  17.540  17.200   8.810
 1705BOLB   GL240900  17.480  17.470   8.660
 1705BOLB   C1A40901  17.660  17.040   8.410
 1705BOLB   C2A40902  17.650  17.030   7.900
 1705BOLB   C3A40903  17.710  17.270   7.580
 1705BOLB   C4A40904  17.730  17.220   7.190
 1705BOLB   C1B40905  17.770  17.560   8.380
 1705BOLB   C2B40906  17.840  17.630   8.000
 1705BOLB   C3B40907  18.040  17.670   7.690
 1705BOLB   C4B40908  18.050  17.650   7.180
 1705BOLB   NC240909  19.050  17.870   5.160
 1705BOLB   PO240910  18.850  17.430   5.190
 1705BOLB   GL340911  18.620  17.180   5.450
 1705BOLB   GL440912  18.790  16.920   5.520
 1705BOLB   C1C40913  18.330  17.220   5.900
 1705BOLB   C2C40914  17.930  17.340   6.240
 1705BOLB   C3C40915  17.590  17.160   6.380
 1705BOLB   C4C40916  17.530  17.040   6.840
 1705BOLB   C1D40917  18.840  16.830   6.010
 1705BOLB   C2D40918  18.640  16.770   6.330
 1705BOLB   C3D40919  18.320  16.900   6.680
 1705BOLB   C4D40920  17.920  16.770   6.890
 1706BOLB   NC140921  18.970  21.220  17.250
 1706BOLB   PO140922  19.050  20.880  16.980
 1706BOLB   GL140923  19.360  20.760  17.130
 1706BOLB   GL240924  19.430  20.480  17.400
 1706BOLB   C1A40925  19.620  20.950  17.420
 1706BOLB   C2A40926  20.010  21.050  17.480
 1706BOLB   C3A40927  20.220  20.880  17.870
 1706BOLB   C4A40928  20.510  21.130  18.110
 1706BOLB   C1B40929  19.640  20.580  17.780
 1706BOLB   C2B40930  19.840  20.670  18.170
 1706BOLB   C3B40931  20.140  20.780  18.380
 1706BOLB   C4B40932  20.580  20.820  18.590
 1706BOLB   NC240933  22.590  21.120  19.170
 1706BOLB   PO240934  22.730  20.890  18.880
 1706BOLB   GL340935  22.340  21.050  18.700
 1706BOLB   GL440936  22.280  20.890  18.430
 1706BOLB   C1C40937  21.980  21.270  18.510
 1706BOLB   C2C40938  21.620  21.230  18.440
 1706BOLB   C3C40939  21.230  21.380  18.270
 1706BOLB   C4C40940  20.850  21.400  18.140
 1706BOLB   C1D40941  22.320  21.260  18.180
 1706BOLB   C2D40942  22.300  21.430  17.800
 1706BOLB   C3D40943  22.080  21.520  17.410
 1706BOLB   C4D40944  21.670  21.580  17.410
 1707BOLB   NC140945  18.390  14.980  10.980
 1707BOLB   PO140946  18.130  14.730  11.220
 1707BOLB   GL140947  18.280  14.450  10.990
 1707BOLB   GL240948  18.290  14.200  11.160
 1707BOLB   C1A40949  18.680  14.330  10.870
 1707BOLB   C2A40950  18.870  14.080  10.610
 1707BOLB   C3A40951  19.060  13.720  10.270
 1707BOLB   C4A40952  19.260  13.360  10.250
 1707BOLB   C1B40953  18.440  13.890  10.870
 1707BOLB   C2B40954  18.400  13.670  10.570
 1707BOLB   C3B40955  18.700  13.380  10.340
 1707BOLB   C4B40956  18.930  12.990  10.290
 1707BOLB   NC240957  20.030  11.310  10.500
 1707BOLB   PO240958  20.470  11.350  10.570
 1707BOLB   GL340959  20.350  11.640  10.780
 1707BOLB   GL440960  20.240  11.480  11.040
 1707BOLB   C1C40961  20.190  12.020  10.950
 1707BOLB   C2C40962  19.870  12.320  10.950
 1707BOLB   C3C40963  19.670  12.770  10.730
 1707BOLB   C4C40964  19.370  12.970  10.410
 1707BOLB   C1D40965  20.290  11.720  11.480
 1707BOLB   C2D40966  20.100  12.060  11.590
 1707BOLB   C3D40967  20.120  12.350  11.950
 1707BOLB   C4D40968  20.060  12.850  12.170
 1708BOLB   NC140969  23.550  15.010  12.390
 1708BOLB   PO140970  23.110  14.910  12.430
 1708BOLB   GL140971  22.690  15.120  12.590
 1708BOLB   GL240972  22.720  15.390  12.270
 1708BOLB   C1A40973  22.550  15.580  12.710
 1708BOLB   C2A40974  22.450  16.060  12.770
 1708BOLB   C3A40975  22.110  16.390  12.760
 1708BOLB   C4A40976  21.930  16.610  13.040
 1708BOLB   C1B40977  22.270  15.460  12.340
 1708BOLB   C2B40978  21.830  15.600  12.340
 1708BOLB   C3B40979  21.550  15.550  12.610
 1708BOLB   C4B40980  21.230  15.690  12.950
 1708BOLB   NC240981  19.530  17.250  13.210
 1708BOLB   PO240982  19.620  17.500  13.590
 1708BOLB   GL340983  19.990  17.390  13.410
 1708BOLB   GL440984  20.210  17.390  13.710
 1708BOLB   C1C40985  20.390  17.240  13.290
 1708BOLB   C2C40986  20.860  17.140  13.350
 1708BOLB   C3C40987  21.280  17.100  13.210
 1708BOLB   C4C40988  21.530  16.790  13.060
 1708BOLB   C1D40989  20.660  17.360  13.750
 1708BOLB   C2D40990  20.980  17.520  13.650
 1708BOLB   C3D40991  21.340  17.920  13.620
 1708BOLB   C4D40992  21.630  18.240  13.820
 1709BOLB   NC140993  16.200  23.680  10.790
 1709BOLB   PO140994  16.260  23.960  10.450
 1709BOLB   GL140995  16.540  24.240  10.230
 1709BOLB   GL240996  16.470  24.530  10.080
 1709BOLB   C1A40997  16.950  24.160  10.110
 1709BOLB   C2A40998  17.230  24.250   9.790
 1709BOLB   C3A40999  17.640  24.310   9.590
 1709BOLB   C4A41000  18.020  24.200   9.410
 1709BOLB   C1B41001  16.720  24.410   9.780
 1709BOLB   C2B41002  17.000  24.490   9.400
 1709BOLB   C3B41003  17.000  24.940   9.290
 1709BOLB   C4B41004  17.320  25.250   9.270
 1709BOLB   NC241005  19.470  25.830   8.480
 1709BOLB   PO241006  19.280  26.190   8.700
 1709BOLB   GL341007  19.030  25.960   8.960
 1709BOLB   GL441008  18.700  25.840   8.960
 1709BOLB   C1C41009  19.030  25.560   9.260
 1709BOLB   C2C41010  18.850  25.170   9.590
 1709BOLB   C3C41011  18.630  24.800   9.580
 1709BOLB   C4C41012  18.410  24.400   9.510
 1709BOLB   C1D41013  18.470  25.600   9.180
 1709BOLB   C2D41014  18.110  25.420   9.200
 1709BOLB   C3D41015  17.810  25.210   9.410
 1709BOLB   C4D41016  18.160  24.980   9.630
 1710BOLB   NC141017  13.750  21.740   3.100
 1710BOLB   PO141018  13.440  21.910   3.070
 1710BOLB   GL141019  13.290  21.720   3.390
 1710BOLB   GL241020  12.930  21.730   3.530
 1710BOLB   C1A41021  13.380  21.870   3.920
 1710BOLB   C2A41022  13.360  21.720   4.340
 1710BOLB   C3A41023  13.540  21.530   4.620
 1710BOLB   C4A41024  13.960  21.410   4.650
 1710BOLB   C1B41025  13.070  21.530   3.890
 1710BOLB   C2B41026  13.230  21.230   4.220
 1710BOLB   C3B41027  13.190  21.070   4.650
 1710BOLB   C4B41028  13.180  20.890   5.050
 1710BOLB   NC241029  15.110  20.740   3.070
 1710BOLB   PO241030  15.230  20.260   3.210
 1710BOLB   GL341031  15.040  20.410   3.470
 1710BOLB   GL441032  14.750  20.600   3.370
 1710BOLB   C1C41033  14.840  20.510   3.870
 1710BOLB   C2C41034  14.800  20.690   4.190
 1710BOLB   C3C41035  14.600  20.810   4.520
 1710BOLB   C4C41036  14.280  21.140   4.480
 1710BOLB   C1D41037  14.510  20.820   3.710
 1710BOLB   C2D41038  14.310  20.750   4.060
 1710BOLB   C3D41039  13.970  20.620   4.250
 1710BOLB   C4D41040  13.820  20.310   4.560
 1711BOLB   NC141041  14.490  11.370  13.320
 1711BOLB   PO141042  14.540  11.500  12.870
 1711BOLB   GL141043  14.570  11.040  12.840
 1711BOLB   GL241044  14.360  10.870  13.080
 1711BOLB   C1A41045  14.320  10.620  12.730
 1711BOLB   C2A41046  14.330  10.430  12.340
 1711BOLB   C3A41047  14.570  10.340  12.070
 1711BOLB   C4A41048  14.800   9.980  11.820
 1711BOLB   C1B41049  14.670  10.560  13.050
 1711BOLB   C2B41050  14.770  10.200  12.920
 1711BOLB   C3B41051  14.770   9.770  12.910
 1711BOLB   C4B41052  14.770   9.560  13.270
 1711BOLB   NC241053  15.370   7.740  12.400
 1711BOLB   PO241054  15.680   7.780  12.180
 1711BOLB   GL341055  15.500   8.200  12.350
 1711BOLB   GL441056  15.530   8.380  12.550
 1711BOLB   C1C41057  15.350   8.510  12.000
 1711BOLB   C2C41058  15.340   8.900  11.680
 1711BOLB   C3C41059  15.300   9.320  11.760
 1711BOLB   C4C41060  15.110   9.730  11.650
 1711BOLB   C1D41061  15.880   8.730  12.430
 1711BOLB   C2D41062  15.930   9.130  12.430
 1711BOLB   C3D41063  16.020   9.540  12.490
 1711BOLB   C4D41064  15.850   9.940  12.660
 1712BOLB   NC141065  19.200  20.930  11.460
 1712BOLB   PO141066  19.230  21.340  11.510
 1712BOLB   GL141067  19.650  21.100  11.520
 1712BOLB   GL241068  19.690  20.790  11.440
 1712BOLB   C1A41069  20.010  21.230  11.400
 1712BOLB   C2A41070  20.390  21.330  11.270
 1712BOLB   C3A41071  20.670  21.400  10.960
 1712BOLB   C4A41072  20.680  21.600  10.600
 1712BOLB   C1B41073  20.110  20.740  11.300
 1712BOLB   C2B41074  20.530  20.840  11.340
 1712BOLB   C3B41075  20.880  21.030  11.190
 1712BOLB   C4B41076  21.190  21.360  10.920
 1712BOLB   NC241077  22.330  21.490   8.360
 1712BOLB   PO241078  22.420  21.500   8.830
 1712BOLB   GL341079  21.970  21.350   8.930
 1712BOLB   GL441080  21.790  21.430   8.690
 1712BOLB   C1C41081  21.640  21.310   9.280
 1712BOLB   C2C41082  21.340  21.470   9.560
 1712BOLB   C3C41083  21.030  21.640   9.860
 1712BOLB   C4C41084  20.870  21.790  10.240
 1712BOLB   C1D41085  21.440  21.390   8.830
 1712BOLB   C2D41086  21.070  21.300   9.060
 1712BOLB   C3D41087  20.860  20.900   9.180
 1712BOLB   C4D41088  20.790  20.530   9.290
 1713BOLB   NC141089  18.830  19.710  18.030
 1713BOLB   PO141090  18.900  20.070  17.680
 1713BOLB   GL141091  19.210  20.260  17.950
 1713BOLB   GL241092  19.240  19.910  18.150
 1713BOLB   C1A41093  19.570  20.260  18.270
 1713BOLB   C2A41094  19.800  20.490  18.700
 1713BOLB   C3A41095  19.690  20.570  19.060
 1713BOLB   C4A41096  20.000  20.630  19.360
 1713BOLB   C1B41097  19.510  19.740  18.380
 1713BOLB   C2B41098  19.790  19.790  18.630
 1713BOLB   C3B41099  20.170  20.140  18.660
 1713BOLB   C4B41100  20.380  20.430  18.980
 1713BOLB   NC241101  21.540  21.480  20.810
 1713BOLB   PO241102  21.380  21.880  20.820
 1713BOLB   GL341103  21.090  21.630  20.730
 1713BOLB   GL441104  20.980  21.510  20.970
 1713BOLB   C1C41105  21.040  21.120  20.660
 1713BOLB   C2C41106  20.870  20.890  20.360
 1713BOLB   C3C41107  20.570  20.600  20.080
 1713BOLB   C4C41108  20.250  20.590  19.740
 1713BOLB   C1D41109  20.670  21.380  20.870
 1713BOLB   C2D41110  20.330  21.130  20.580
 1713BOLB   C3D41111  19.850  21.020  20.640
 1713BOLB   C4D41112  19.490  20.770  20.660
 1714BOLB   NC141113  13.490  24.160   9.080
 1714BOLB   PO141114  13.120  24.420   8.940
 1714BOLB   GL141115  12.990  24.500   8.590
 1714BOLB   GL241116  12.750  24.350   8.400
 1714BOLB   C1A41117  13.220  24.770   8.370
 1714BOLB   C2A41118  13.480  25.120   8.240
 1714BOLB   C3A41119  13.630  25.350   7.800
 1714BOLB   C4A41120  13.930  25.530   7.490
 1714BOLB   C1B41121  13.010  24.430   8.030
 1714BOLB   C2B41122  13.320  24.680   7.880
 1714BOLB   C3B41123  13.640  24.820   7.650
 1714BOLB   C4B41124  14.000  25.050   7.430
 1714BOLB   NC241125  15.460  27.100   5.750
 1714BOLB   PO241126  15.360  26.730   5.960
 1714BOLB   GL341127  15.160  26.620   6.320
 1714BOLB   GL441128  15.270  26.340   6.470
 1714BOLB   C1C41129  14.900  26.620   6.640
 1714BOLB   C2C41130  14.590  26.470   6.920
 1714BOLB   C3C41131  14.340  26.130   7.010
 1714BOLB   C4C41132  14.240  25.770   7.200
 1714BOLB   C1D41133  15.400  25.960   6.840
 1714BOLB   C2D41134  15.300  25.580   7.060
 1714BOLB   C3D41135  15.380  25.230   7.150
 1714BOLB   C4D41136  15.380  24.790   6.940
 1715BOLB   NC141137  14.790  22.920   8.340
 1715BOLB   PO141138  15.240  22.950   8.280
 1715BOLB   GL141139  15.070  23.230   7.930
 1715BOLB   GL241140  15.000  22.960   7.810
 1715BOLB   C1A41141  15.170  23.490   7.660
 1715BOLB   C2A41142  15.220  23.720   7.320
 1715BOLB   C3A41143  15.630  23.870   7.000
 1715BOLB   C4A41144  15.920  23.870   6.660
 1715BOLB   C1B41145  14.960  22.840   7.390
 1715BOLB   C2B41146  15.280  22.700   7.170
 1715BOLB   C3B41147  15.200  22.720   6.780
 1715BOLB   C4B41148  14.950  22.380   6.620
 1715BOLB   NC241149  17.150  25.160   5.000
 1715BOLB   PO241150  17.320  24.930   5.380
 1715BOLB   GL341151  17.280  24.730   5.860
 1715BOLB   GL441152  17.400  24.910   6.100
 1715BOLB   C1C41153  17.160  24.360   6.210
 1715BOLB   C2C41154  16.870  24.090   6.370
 1715BOLB   C3C41155  16.570  24.260   6.610
 1715BOLB   C4C41156  16.180  24.220   6.640
 1715BOLB   C1D41157  16.900  24.790   6.150
 1715BOLB   C2D41158  16.590  24.500   6.110
 1715BOLB   C3D41159  16.590  24.280   5.770
 1715BOLB   C4D41160  16.250  24.140   5.630
 1716BOLB   NC141161  17.790  15.250  10.440
 1716BOLB   PO141162  17.640  14.820  10.340
 1716BOLB   GL141163  17.940  14.460  10.440
 1716BOLB   GL241164  18.240  14.510  10.530
 1716BOLB   C1A41165  18.190  14.130  10.280
 1716BOLB   C2A41166  18.540  14.050  10.020
 1716BOLB   C3A41167  18.750  14.030   9.630
 1716BOLB   C4A41168  19.000  14.200   9.320
 1716BOLB   C1B41169  18.620  14.430  10.290
 1716BOLB   C2B41170  19.020  14.300   9.980
 1716BOLB   C3B41171  19.270  14.010   9.800
 1716BOLB   C4B41172  19.670  13.800  10.000
 1716BOLB   NC241173  20.860  13.280   8.020
 1716BOLB   PO241174  20.530  13.020   8.000
 1716BOLB   GL341175  20.350  13.470   8.160
 1716BOLB   GL441176  20.590  13.730   8.030
 1716BOLB   C1C41177  20.000  13.650   8.150
 1716BOLB   C2C41178  19.450  13.720   8.290
 1716BOLB   C3C41179  19.240  13.930   8.610
 1716BOLB   C4C41180  19.120  14.060   8.960
 1716BOLB   C1D41181  20.530  14.100   8.310
 1716BOLB   C2D41182  20.290  14.130   8.730
 1716BOLB   C3D41183  19.990  13.920   9.110
 1716BOLB   C4D41184  19.890  13.770   9.550
 1717BOLB   NC141185  24.150  16.080  14.260
 1717BOLB   PO141186  23.760  16.000  14.200
 1717BOLB   GL141187  23.350  16.170  14.000
 1717BOLB   GL241188  23.290  16.180  13.750
 1717BOLB   C1A41189  22.830  16.390  14.090
 1717BOLB   C2A41190  22.350  16.560  14.080
 1717BOLB   C3A41191  22.020  16.900  13.900
 1717BOLB   C4A41192  22.000  17.340  13.910
 1717BOLB   C1B41193  22.920  16.310  13.590
 1717BOLB   C2B41194  22.790  16.670  13.180
 1717BOLB   C3B41195  22.470  16.770  12.910
 1717BOLB   C4B41196  22.080  16.980  12.750
 1717BOLB   NC241197  23.890  17.880  14.580
 1717BOLB   PO241198  23.810  17.450  14.870
 1717BOLB   GL341199  23.470  17.230  14.830
 1717BOLB   GL441200  23.400  17.180  15.030
 1717BOLB   C1C41201  23.160  17.200  14.600
 1717BOLB   C2C41202  22.930  17.480  14.310
 1717BOLB   C3C41203  22.690  17.870  14.100
 1717BOLB   C4C41204  22.320  17.710  13.920
 1717BOLB   C1D41205  23.020  17.220  15.080
 1717BOLB   C2D41206  22.640  17.350  15.150
 1717BOLB   C3D41207  22.230  17.240  15.240
 1717BOLB   C4D41208  21.780  17.220  15.220
 1718BOLB   NC141209  19.490  21.790  15.140
 1718BOLB   PO141210  19.300  21.410  15.260
 1718BOLB   GL141211  19.660  21.510  15.550
 1718BOLB   GL241212  19.980  21.380  15.470
 1718BOLB   C1A41213  19.960  21.740  15.790
 1718BOLB   C2A41214  20.380  21.740  15.920
 1718BOLB   C3A41215  20.670  21.890  15.790
 1718BOLB   C4A41216  20.950  22.160  15.960
 1718BOLB   C1B41217  20.420  21.390  15.540
 1718BOLB   C2B41218  20.620  21.290  15.800
 1718BOLB   C3B41219  20.730  20.960  15.930
 1718BOLB   C4B41220  20.900  20.950  16.220
 1718BOLB   NC241221  23.140  23.350  16.600
 1718BOLB   PO241222  23.070  23.020  16.360
 1718BOLB   GL341223  22.740  22.860  16.280
 1718BOLB   GL441224  22.450  22.810  15.950
 1718BOLB   C1C41225  22.380  22.780  16.540
 1718BOLB   C2C41226  21.980  22.810  16.600
 1718BOLB   C3C41227  21.520  22.710  16.470
 1718BOLB   C4C41228  21.170  22.440  16.290
 1718BOLB   C1D41229  22.090  22.850  15.630
 1718BOLB   C2D41230  21.620  22.790  15.550
 1718BOLB   C3D41231  21.310  22.690  15.220
 1718BOLB   C4D41232  21.120  22.410  15.100
 1719BOLB   NC141233  19.110  16.010  13.330
 1719BOLB   PO141234  19.370  16.280  13.000
 1719BOLB   GL141235  19.820  16.210  13.070
 1719BOLB   GL241236  20.130  16.020  12.960
 1719BOLB   C1A41237  20.070  15.940  13.470
 1719BOLB   C2A41238  20.410  15.760  13.640
 1719BOLB   C3A41239  20.470  15.450  14.020
 1719BOLB   C4A41240  20.820  15.190  14.180
 1719BOLB   C1B41241  20.500  16.000  13.160
 1719BOLB   C2B41242  20.840  15.980  13.470
 1719BOLB   C3B41243  21.150  16.030  13.700
 1719BOLB   C4B41244  21.500  16.140  13.720
 1719BOLB   NC241245  22.760  13.130  14.450
 1719BOLB   PO241246  22.760  13.520  14.620
 1719BOLB   GL341247  22.480  13.870  14.550
 1719BOLB   GL441248  22.170  13.710  14.700
 1719BOLB   C1C41249  22.250  14.240  14.490
 1719BOLB   C2C41250  21.990  14.650  14.310
 1719BOLB   C3C41251  21.580  14.890  14.360
 1719BOLB   C4C41252  21.200  14.990  14.400
 1719BOLB   C1D41253  21.830  13.990  14.570
 1719BOLB   C2D41254  21.400  14.010  14.580
 1719BOLB   C3D41255  21.030  14.100  14.540
 1719BOLB   C4D41256  20.720  14.300  14.770
 1720BOLB   NC141257  13.980  25.710  11.700
 1720BOLB   PO141258  14.340  25.700  11.470
 1720BOLB   GL141259  14.160  26.090  11.440
 1720BOLB   GL241260  13.760  26.060  11.430
 1720BOLB   C1A41261  14.310  26.510  11.460
 1720BOLB   C2A41262  14.450  26.980  11.450
 1720BOLB   C3A41263  14.750  27.260  11.410
 1720BOLB   C4A41264  14.960  27.620  11.450
 1720BOLB   C1B41265  13.890  26.450  11.040
 1720BOLB   C2B41266  13.840  26.830  10.790
 1720BOLB   C3B41267  14.190  27.250  10.650
 1720BOLB   C4B41268  14.460  27.600  10.550
 1720BOLB   NC241269  15.950  29.770  10.960
 1720BOLB   PO241270  15.800  30.210  11.020
 1720BOLB   GL341271  15.610  29.880  11.330
 1720BOLB   GL441272  15.820  29.620  11.420
 1720BOLB   C1C41273  15.460  29.400  11.140
 1720BOLB   C2C41274  15.500  28.960  11.170
 1720BOLB   C3C41275  15.450  28.460  11.250
 1720BOLB   C4C41276  15.110  28.090  11.210
 1720BOLB   C1D41277  15.620  29.660  11.850
 1720BOLB   C2D41278  15.590  29.280  12.070
 1720BOLB   C3D41279  15.310  29.040  12.300
 1720BOLB   C4D41280  14.960  28.750  12.350
 1721BOLB   NC141281  19.200  15.220  22.910
 1721BOLB   PO141282  19.260  15.620  22.990
 1721BOLB   GL141283  18.990  15.670  22.650
 1721BOLB   GL241284  18.830  15.930  22.860
 1721BOLB   C1A41285  19.090  15.700  22.200
 1721BOLB   C2A41286  18.720  15.650  22.030
 1721BOLB   C3A41287  18.320  15.690  21.940
 1721BOLB   C4A41288  18.000  15.460  22.120
 1721BOLB   C1B41289  18.600  16.070  22.420
 1721BOLB   C2B41290  18.320  16.210  22.160
 1721BOLB   C3B41291  18.100  16.460  21.930
 1721BOLB   C4B41292  17.810  16.660  21.660
 1721BOLB   NC241293  18.280  13.730  23.650
 1721BOLB   PO241294  17.970  13.660  23.250
 1721BOLB   GL341295  17.980  13.880  22.830
 1721BOLB   GL441296  17.620  13.910  22.820
 1721BOLB   C1C41297  18.080  14.180  22.510
 1721BOLB   C2C41298  18.010  14.530  22.270
 1721BOLB   C3C41299  18.000  14.810  22.450
 1721BOLB   C4C41300  17.770  15.130  22.190
 1721BOLB   C1D41301  17.360  14.200  22.600
 1721BOLB   C2D41302  17.190  14.290  22.280
 1721BOLB   C3D41303  16.860  14.270  21.910
 1721BOLB   C4D41304  16.540  14.160  21.590
 1722BOLB   NC141305  15.600  23.350   9.710
 1722BOLB   PO141306  16.050  23.440   9.370
 1722BOLB   GL141307  16.240  23.600   9.130
 1722BOLB   GL241308  16.370  23.450   8.920
 1722BOLB   C1A41309  16.630  23.850   8.960
 1722BOLB   C2A41310  16.860  24.120   8.790
 1722BOLB   C3A41311  17.000  24.520   8.910
 1722BOLB   C4A41312  17.170  24.910   8.810
 1722BOLB   C1B41313  16.360  23.680   8.520
 1722BOLB   C2B41314  16.190  23.950   8.130
 1722BOLB   C3B41315  16.130  23.590   7.710
 1722BOLB   C4B41316  16.240  23.370   7.370
 1722BOLB   NC241317  17.820  27.100   7.860
 1722BOLB   PO241318  17.390  26.980   7.830
 1722BOLB   GL341319  17.230  26.630   7.920
 1722BOLB   GL441320  17.480  26.370   7.910
 1722BOLB   C1C41321  16.960  26.260   8.210
 1722BOLB   C2C41322  17.080  25.830   8.320
 1722BOLB   C3C41323  17.320  25.450   8.300
 1722BOLB   C4C41324  17.400  25.080   8.490
 1722BOLB   C1D41325  17.410  26.010   7.940
 1722BOLB   C2D41326  17.360  25.610   7.790
 1722BOLB   C3D41327  17.050  25.330   7.900
 1722BOLB   C4D41328  17.110  25.000   8.120
 1723BOLB   NC141329  10.940  31.630  14.720
 1723BOLB   PO141330  11.350  31.790  14.900
 1723BOLB   GL141331  11.200  31.380  15.100
 1723BOLB   GL241332  11.270  31.200  14.820
 1723BOLB   C1A41333  11.210  30.960  15.350
 1723BOLB   C2A41334  11.030  30.660  15.390
 1723BOLB   C3A41335  10.620  30.550  15.550
 1723BOLB   C4A41336  10.150  30.380  15.570
 1723BOLB   C1B41337  11.640  31.020  15.050
 1723BOLB   C2B41338  11.860  30.740  15.130
 1723BOLB   C3B41339  12.080  30.400  15.040
 1723BOLB   C4B41340  12.300  30.040  15.050
 1723BOLB   NC241341   8.020  31.530  14.690
 1723BOLB   PO241342   8.500  31.550  14.840
 1723BOLB   GL341343   8.860  31.240  14.820
 1723BOLB   GL441344   8.820  31.080  14.610
 1723BOLB   C1C41345   9.300  30.860  14.820
 1723BOLB   C2C41346   9.350  30.450  14.840
 1723BOLB   C3C41347   9.540  30.200  15.100
 1723BOLB   C4C41348   9.770  30.310  15.390
 1723BOLB   C1D41349   8.660  30.650  14.770
 1723BOLB   C2D41350   8.710  30.260  14.870
 1723BOLB   C3D41351   8.600  29.840  15.080
 1723BOLB   C4D41352   8.980  29.470  15.010
 1724BOLB   NC141353  14.070  21.140  22.050
 1724BOLB   PO141354  14.360  21.190  21.670
 1724BOLB   GL141355  14.450  21.390  21.970
 1724BOLB   GL241356  14.330  21.590  22.210
 1724BOLB   C1A41357  14.850  21.430  22.170
 1724BOLB   C2A41358  15.080  21.540  22.570
 1724BOLB   C3A41359  15.360  21.440  22.870
 1724BOLB   C4A41360  15.380  21.290  23.350
 1724BOLB   C1B41361  14.610  21.640  22.520
 1724BOLB   C2B41362  14.510  21.850  22.860
 1724BOLB   C3B41363  14.640  22.130  23.200
 1724BOLB   C4B41364  14.730  22.330  23.630
 1724BOLB   NC241365  15.910  20.990  25.740
 1724BOLB   PO241366  16.030  21.290  25.600
 1724BOLB   GL341367  16.130  21.090  25.210
 1724BOLB   GL441368  16.240  20.840  25.140
 1724BOLB   C1C41369  16.100  21.280  24.830
 1724BOLB   C2C41370  15.820  21.230  24.590
 1724BOLB   C3C41371  15.610  21.310  24.210
 1724BOLB   C4C41372  15.630  21.350  23.710
 1724BOLB   C1D41373  16.010  20.770  24.790
 1724BOLB   C2D41374  15.750  20.660  24.380
 1724BOLB   C3D41375  15.250  20.610  24.210
 1724BOLB   C4D41376  15.120  20.450  23.730
 1725BOLB   NC141377  19.220  16.860  12.060
 1725BOLB   PO141378  19.150  16.840  11.650
 1725BOLB   GL141379  19.300  16.580  11.330
 1725BOLB   GL241380  19.160  16.270  11.330
 1725BOLB   C1A41381  19.720  16.580  11.180
 1725BOLB   C2A41382  20.010  16.260  11.120
 1725BOLB   C3A41383  20.280  15.990  11.060
 1725BOLB   C4A41384  20.520  15.910  10.660
 1725BOLB   C1B41385  19.510  16.120  11.090
 1725BOLB   C2B41386  19.730  15.990  10.720
 1725BOLB   C3B41387  20.070  15.730  10.700
 1725BOLB   C4B41388  20.260  15.320  10.660
 1725BOLB   NC241389  22.630  15.550   9.830
 1725BOLB   PO241390  22.750  15.170  10.010
 1725BOLB   GL341391  22.310  14.990  10.050
 1725BOLB   GL441392  22.190  15.270  10.070
 1725BOLB   C1C41393  21.950  15.010  10.410
 1725BOLB   C2C41394  21.770  15.430  10.460
 1725BOLB   C3C41395  21.270  15.670  10.550
 1725BOLB   C4C41396  20.840  15.830  10.470
 1725BOLB   C1D41397  21.890  15.290   9.920
 1725BOLB   C2D41398  21.610  15.640   9.780
 1725BOLB   C3D41399  21.250  15.750   9.970
 1725BOLB   C4D41400  20.850  16.000   9.940
 1726BOLB   NC141401  13.100  21.620   7.410
 1726BOLB   PO141402  12.800  21.580   7.120
 1726BOLB   GL141403  12.960  21.640   6.730
 1726BOLB   GL241404  12.590  21.650   6.540
 1726BOLB   C1A41405  12.920  21.730   6.220
 1726BOLB   C2A41406  12.580  22.000   5.960
 1726BOLB   C3A41407  12.180  22.190   5.910
 1726BOLB   C4A41408  11.950  22.050   5.520
 1726BOLB   C1B41409  12.240  21.670   6.290
 1726BOLB   C2B41410  12.030  21.660   5.920
 1726BOLB   C3B41411  11.910  21.540   5.590
 1726BOLB   C4B41412  11.770  21.230   5.370
 1726BOLB   NC241413  11.090  22.720   3.540
 1726BOLB   PO241414  11.620  22.930   3.450
 1726BOLB   GL341415  11.480  22.590   3.770
 1726BOLB   GL441416  11.330  22.260   3.820
 1726BOLB   C1C41417  11.720  22.400   4.110
 1726BOLB   C2C41418  11.840  22.100   4.460
 1726BOLB   C3C41419  11.990  21.880   4.670
 1726BOLB   C4C41420  12.030  21.750   5.140
 1726BOLB   C1D41421  11.370  21.840   4.030
 1726BOLB   C2D41422  11.390  21.680   4.440
 1726BOLB   C3D41423  11.140  21.830   4.660
 1726BOLB   C4D41424  10.650  21.720   4.780
 1727BOLB   NC141425  17.220  17.250   9.550
 1727BOLB   PO141426  17.440  16.820   9.520
 1727BOLB   GL141427  17.690  16.720   9.160
 1727BOLB   GL241428  17.870  16.890   9.030
 1727BOLB   C1A41429  17.940  16.380   9.010
 1727BOLB   C2A41430  18.170  16.170   8.670
 1727BOLB   C3A41431  18.430  16.160   8.280
 1727BOLB   C4A41432  18.460  16.280   7.870
 1727BOLB   C1B41433  18.040  16.840   8.630
 1727BOLB   C2B41434  18.120  16.760   8.160
 1727BOLB   C3B41435  18.100  16.630   7.770
 1727BOLB   C4B41436  17.900  16.820   7.440
 1727BOLB   NC241437  19.240  14.930   6.030
 1727BOLB   PO241438  18.840  15.220   5.820
 1727BOLB   GL341439  18.610  15.380   6.090
 1727BOLB   GL441440  18.320  15.190   5.960
 1727BOLB   C1C41441  18.660  15.400   6.490
 1727BOLB   C2C41442  18.760  15.750   6.770
 1727BOLB   C3C41443  18.600  15.960   7.150
 1727BOLB   C4C41444  18.550  16.210   7.500
 1727BOLB   C1D41445  17.990  15.500   5.990
 1727BOLB   C2D41446  17.610  15.720   6.190
 1727BOLB   C3D41447  17.310  16.010   6.530
 1727BOLB   C4D41448  17.040  16.350   6.560
 1728BOLB   NC141449  13.120  29.560   8.420
 1728BOLB   PO141450  13.560  29.750   8.630
 1728BOLB   GL141451  13.540  29.270   8.690
 1728BOLB   GL241452  13.500  28.970   8.530
 1728BOLB   C1A41453  13.410  28.970   9.000
 1728BOLB   C2A41454  13.420  28.480   9.170
 1728BOLB   C3A41455  13.440  28.020   9.180
 1728BOLB   C4A41456  13.560  27.620   9.350
 1728BOLB   C1B41457  13.800  28.720   8.720
 1728BOLB   C2B41458  13.760  28.260   8.840
 1728BOLB   C3B41459  13.990  27.850   8.770
 1728BOLB   C4B41460  14.040  27.570   8.460
 1728BOLB   NC241461  15.040  29.070   8.300
 1728BOLB   PO241462  14.960  28.660   8.160
 1728BOLB   GL341463  14.640  28.320   8.150
 1728BOLB   GL441464  14.740  27.930   8.030
 1728BOLB   C1C41465  14.420  27.890   8.420
 1728BOLB   C2C41466  14.480  27.510   8.680
 1728BOLB   C3C41467  14.230  27.470   8.970
 1728BOLB   C4C41468  13.890  27.310   9.250
 1728BOLB   C1D41469  14.510  27.510   8.100
 1728BOLB   C2D41470  14.310  27.090   8.360
 1728BOLB   C3D41471  14.290  26.900   8.840
 1728BOLB   C4D41472  14.300  27.040   9.270
 1729BOLB   NC141473  18.490  22.550  11.840
 1729BOLB   PO141474  18.840  22.830  11.730
 1729BOLB   GL141475  19.090  23.090  11.400
 1729BOLB   GL241476  18.870  22.980  11.170
 1729BOLB   C1A41477  19.550  23.280  11.240
 1729BOLB   C2A41478  19.980  23.330  11.140
 1729BOLB   C3A41479  20.430  23.200  11.070
 1729BOLB   C4A41480  20.800  23.090  11.100
 1729BOLB   C1B41481  19.090  23.270  10.920
 1729BOLB   C2B41482  19.320  23.670  10.910
 1729BOLB   C3B41483  19.740  23.810  11.030
 1729BOLB   C4B41484  20.060  24.020  10.840
 1729BOLB   NC241485  22.660  22.400  10.370
 1729BOLB   PO241486  22.750  22.820  10.280
 1729BOLB   GL341487  22.520  23.080  10.600
 1729BOLB   GL441488  22.160  23.350  10.540
 1729BOLB   C1C41489  22.190  22.980  10.940
 1729BOLB   C2C41490  21.970  23.040  11.350
 1729BOLB   C3C41491  21.500  23.150  11.420
 1729BOLB   C4C41492  21.100  23.220  11.340
 1729BOLB   C1D41493  21.690  23.370  10.500
 1729BOLB   C2D41494  21.240  23.410  10.230
 1729BOLB   C3D41495  20.790  23.220  10.090
 1729BOLB   C4D41496  20.380  23.090  10.040
 1730BOLB   NC141497  17.660  16.720  10.010
 1730BOLB   PO141498  17.730  16.330   9.860
 1730BOLB   GL141499  18.010  16.260   9.550
 1730BOLB   GL241500  18.220  16.430   9.770
 1730BOLB   C1A41501  18.320  16.160   9.300
 1730BOLB   C2A41502  18.710  15.900   9.150
 1730BOLB   C3A41503  19.110  15.790   9.270
 1730BOLB   C4A41504  19.570  15.640   9.430
 1730BOLB   C1B41505  18.600  16.550   9.660
 1730BOLB   C2B41506  18.980  16.400   9.430
 1730BOLB   C3B41507  19.350  16.170   9.450
 1730BOLB   C4B41508  19.750  16.170   9.350
 1730BOLB   NC241509  20.640  15.000   7.220
 1730BOLB   PO241510  20.900  15.090   7.610
 1730BOLB   GL341511  20.850  15.100   8.050
 1730BOLB   GL441512  20.790  14.830   8.220
 1730BOLB   C1C41513  20.510  15.190   8.370
 1730BOLB   C2C41514  20.300  15.380   8.610
 1730BOLB   C3C41515  20.130  15.450   8.910
 1730BOLB   C4C41516  19.960  15.680   9.300
 1730BOLB   C1D41517  20.380  14.730   8.030
 1730BOLB   C2D41518  20.100  14.370   8.260
 1730BOLB   C3D41519  19.810  14.030   8.410
 1730BOLB   C4D41520  19.690  13.660   8.730
 1731BOLB   NC141521  17.000  13.450  16.160
 1731BOLB   PO141522  17.450  13.360  16.230
 1731BOLB   GL141523  17.930  13.300  16.150
 1731BOLB   GL241524  17.780  13.030  15.980
 1731BOLB   C1A41525  18.280  12.990  16.100
 1731BOLB   C2A41526  18.640  12.840  16.240
 1731BOLB   C3A41527  18.990  12.550  16.310
 1731BOLB   C4A41528  19.240  12.200  16.530
 1731BOLB   C1B41529  17.780  12.760  16.370
 1731BOLB   C2B41530  17.920  12.340  16.510
 1731BOLB   C3B41531  18.210  11.910  16.450
 1731BOLB   C4B41532  18.380  11.820  16.750
 1731BOLB   NC241533  21.870  12.070  16.760
 1731BOLB   PO241534  21.550  11.710  16.570
 1731BOLB   GL341535  21.100  11.660  16.750
 1731BOLB   GL441536  21.180  11.880  16.970
 1731BOLB   C1C41537  20.690  11.850  16.890
 1731BOLB   C2C41538  20.280  11.610  16.790
 1731BOLB   C3C41539  19.850  11.730  16.700
 1731BOLB   C4C41540  19.500  11.790  16.520
 1731BOLB   C1D41541  20.920  12.280  17.100
 1731BOLB   C2D41542  20.440  12.310  17.040
 1731BOLB   C3D41543  20.140  12.180  16.700
 1731BOLB   C4D41544  19.700  12.180  16.700
 1732BOLB   NC141545   8.150  22.100   7.990
 1732BOLB   PO141546   8.070  22.510   8.290
 1732BOLB   GL141547   7.870  22.560   7.920
 1732BOLB   GL241548   8.150  22.580   7.620
 1732BOLB   C1A41549   7.580  22.740   7.800
 1732BOLB   C2A41550   7.630  23.040   7.480
 1732BOLB   C3A41551   7.610  23.340   7.180
 1732BOLB   C4A41552   7.610  23.710   6.930
 1732BOLB   C1B41553   8.210  22.580   7.200
 1732BOLB   C2B41554   8.410  22.690   6.830
 1732BOLB   C3B41555   8.440  22.370   6.440
 1732BOLB   C4B41556   8.690  22.510   6.170
 1732BOLB   NC241557   6.710  24.240   4.350
 1732BOLB   PO241558   6.540  24.120   4.770
 1732BOLB   GL341559   6.800  24.050   5.120
 1732BOLB   GL441560   7.010  24.210   5.220
 1732BOLB   C1C41561   7.070  23.690   5.350
 1732BOLB   C2C41562   7.110  23.640   5.790
 1732BOLB   C3C41563   7.330  23.500   6.190
 1732BOLB   C4C41564   7.340  23.790   6.590
 1732BOLB   C1D41565   6.940  24.080   5.640
 1732BOLB   C2D41566   6.770  23.900   6.010
 1732BOLB   C3D41567   6.780  23.730   6.550
 1732BOLB   C4D41568   6.790  23.260   6.680
 1733BOLB   NC141569  16.390  24.620  11.080
 1733BOLB   PO141570  16.090  24.880  11.090
 1733BOLB   GL141571  16.540  25.080  11.030
 1733BOLB   GL241572  16.670  25.120  10.730
 1733BOLB   C1A41573  16.890  25.310  11.190
 1733BOLB   C2A41574  17.130  25.380  10.900
 1733BOLB   C3A41575  17.350  25.410  10.560
 1733BOLB   C4A41576  17.740  25.430  10.350
 1733BOLB   C1B41577  16.990  25.110  10.500
 1733BOLB   C2B41578  17.350  25.060  10.200
 1733BOLB   C3B41579  17.340  25.410   9.860
 1733BOLB   C4B41580  17.490  25.720   9.730
 1733BOLB   NC241581  19.860  26.230   9.330
 1733BOLB   PO241582  20.040  26.130   9.710
 1733BOLB   GL341583  19.600  25.990   9.720
 1733BOLB   GL441584  19.600  26.010   9.980
 1733BOLB   C1C41585  19.240  25.790   9.690
 1733BOLB   C2C41586  18.790  25.760   9.650
 1733BOLB   C3C41587  18.460  25.420   9.700
 1733BOLB   C4C41588  18.050  25.380   9.910
 1733BOLB   C1D41589  19.560  25.630  10.080
 1733BOLB   C2D41590  19.320  25.210  10.120
 1733BOLB   C3D41591  18.810  25.090  10.070
 1733BOLB   C4D41592  18.370  25.100  10.100
 1734BOLB   NC141593  14.690  20.610   7.500
 1734BOLB   PO141594  14.390  20.850   7.330
 1734BOLB   GL141595  14.380  21.170   7.010
 1734BOLB   GL241596  14.180  21.000   6.830
 1734BOLB   C1A41597  14.400  21.450   6.690
 1734BOLB   C2A41598  14.440  21.500   6.270
 1734BOLB   C3A41599  14.740  21.530   5.830
 1734BOLB   C4A41600  15.200  21.580   5.670
 1734BOLB   C1B41601  14.370  21.000   6.390
 1734BOLB   C2B41602  14.710  20.980   5.980
 1734BOLB   C3B41603  15.030  21.040   5.750
 1734BOLB   C4B41604  14.900  21.200   5.390
 1734BOLB   NC241605  16.320  21.840   3.760
 1734BOLB   PO241606  16.340  22.250   4.050
 1734BOLB   GL341607  16.160  21.980   4.310
 1734BOLB   GL441608  15.930  21.870   4.050
 1734BOLB   C1C41609  15.770  22.120   4.510
 1734BOLB   C2C41610  15.470  22.160   4.770
 1734BOLB   C3C41611  15.160  22.000   5.100
 1734BOLB   C4C41612  15.350  22.000   5.520
 1734BOLB   C1D41613  15.850  21.590   4.390
 1734BOLB   C2D41614  15.950  21.350   4.800
 1734BOLB   C3D41615  15.670  21.100   5.150
 1734BOLB   C4D41616  15.430  21.110   5.450
 1735BOLB   NC141617  11.780  26.460  19.580
 1735BOLB   PO141618  12.190  26.360  19.610
 1735BOLB   GL141619  12.280  26.720  19.870
 1735BOLB   GL241620  12.450  27.010  19.700
 1735BOLB   C1A41621  12.310  26.880  20.230
 1735BOLB   C2A41622  12.530  26.900  20.650
 1735BOLB   C3A41623  12.720  26.990  21.020
 1735BOLB   C4A41624  13.050  27.040  21.330
 1735BOLB   C1B41625  12.340  27.310  20.030
 1735BOLB   C2B41626  12.060  27.360  20.350
 1735BOLB   C3B41627  11.870  27.390  20.750
 1735BOLB   C4B41628  11.840  27.830  21.120
 1735BOLB   NC241629  15.120  28.380  22.110
 1735BOLB   PO241630  14.880  28.210  22.410
 1735BOLB   GL341631  14.640  28.160  22.070
 1735BOLB   GL441632  14.740  28.260  21.770
 1735BOLB   C1C41633  14.500  27.800  21.830
 1735BOLB   C2C41634  14.170  27.590  21.660
 1735BOLB   C3C41635  13.740  27.360  21.490
 1735BOLB   C4C41636  13.310  27.260  21.610
 1735BOLB   C1D41637  14.740  28.000  21.500
 1735BOLB   C2D41638  15.000  27.840  21.100
 1735BOLB   C3D41639  15.130  27.650  20.790
 1735BOLB   C4D41640  15.000  27.250  20.450
 1736BOLB   NC141641  20.060  19.750   5.980
 1736BOLB   PO141642  19.930  20.110   5.990
 1736BOLB   GL141643  19.590  19.920   6.090
 1736BOLB   GL241644  19.280  19.820   5.850
 1736BOLB   C1A41645  19.330  19.730   6.350
 1736BOLB   C2A41646  19.190  19.540   6.710
 1736BOLB   C3A41647  18.840  19.700   7.040
 1736BOLB   C4A41648  18.950  19.530   7.440
 1736BOLB   C1B41649  18.860  19.670   5.960
 1736BOLB   C2B41650  18.800  19.830   6.360
 1736BOLB   C3B41651  18.460  19.850   6.710
 1736BOLB   C4B41652  18.250  19.720   7.050
 1736BOLB   NC241653  20.240  18.740   6.000
 1736BOLB   PO241654  20.660  18.790   6.240
 1736BOLB   GL341655  20.360  18.700   6.520
 1736BOLB   GL441656  20.260  18.380   6.540
 1736BOLB   C1C41657  19.950  18.570   6.810
 1736BOLB   C2C41658  19.620  18.740   6.870
 1736BOLB   C3C41659  19.310  18.880   7.160
 1736BOLB   C4C41660  19.090  19.090   7.480
 1736BOLB   C1D41661  20.270  18.140   7.020
 1736BOLB   C2D41662  19.940  18.100   7.440
 1736BOLB   C3D41663  19.700  18.210   7.710
 1736BOLB   C4D41664  19.380  18.570   7.660
 1737BOLB   NC141665  17.440  19.610   8.820
 1737BOLB   PO141666  17.760  19.930   8.780
 1737BOLB   GL141667  18.010  19.780   8.480
 1737BOLB   GL241668  17.890  19.510   8.530
 1737BOLB   C1A41669  18.240  19.960   8.260
 1737BOLB   C2A41670  18.510  20.240   8.050
 1737BOLB   C3A41671  18.460  20.610   7.910
 1737BOLB   C4A41672  18.520  20.830   7.570
 1737BOLB   C1B41673  18.340  19.330   8.510
 1737BOLB   C2B41674  18.650  19.400   8.330
 1737BOLB   C3B41675  18.880  19.200   8.110
 1737BOLB   C4B41676  19.220  18.910   8.030
 1737BOLB   NC241677  19.830  20.460   5.150
 1737BOLB   PO241678  19.580  20.220   5.360
 1737BOLB   GL341679  19.540  20.280   5.750
 1737BOLB   GL441680  19.150  20.330   5.630
 1737BOLB   C1C41681  19.240  20.240   6.200
 1737BOLB   C2C41682  19.140  20.140   6.640
 1737BOLB   C3C41683  19.140  20.350   7.070
 1737BOLB   C4C41684  18.820  20.750   7.170
 1737BOLB   C1D41685  19.010  20.620   5.960
 1737BOLB   C2D41686  18.720  20.540   6.280
 1737BOLB   C3D41687  18.690  20.470   6.660
 1737BOLB   C4D41688  18.620  20.180   7.090
 1738BOLB   NC141689  17.510  16.310   9.430
 1738BOLB   PO141690  17.290  16.230   9.020
 1738BOLB   GL141691  17.630  16.080   8.840
 1738BOLB   GL241692  17.720  15.830   9.060
 1738BOLB   C1A41693  17.580  15.740   8.530
 1738BOLB   C2A41694  17.840  15.760   8.210
 1738BOLB   C3A41695  18.230  15.730   8.270
 1738BOLB   C4A41696  18.650  15.660   8.140
 1738BOLB   C1B41697  18.100  15.780   9.020
 1738BOLB   C2B41698  18.470  15.720   8.700
 1738BOLB   C3B41699  18.860  15.840   8.650
 1738BOLB   C4B41700  19.180  16.140   8.920
 1738BOLB   NC241701  20.110  15.300   6.410
 1738BOLB   PO241702  19.850  15.600   6.240
 1738BOLB   GL341703  19.630  15.780   6.550
 1738BOLB   GL441704  19.610  16.090   6.620
 1738BOLB   C1C41705  19.570  15.750   6.980
 1738BOLB   C2C41706  19.580  15.740   7.400
 1738BOLB   C3C41707  19.400  15.650   7.840
 1738BOLB   C4C41708  19.050  15.780   8.160
 1738BOLB   C1D41709  19.260  16.050   6.710
 1738BOLB   C2D41710  18.930  16.240   6.910
 1738BOLB   C3D41711  18.620  16.520   6.870
 1738BOLB   C4D41712  18.320  16.760   7.180
 1739BOLB   NC141713  21.660  11.890  10.730
 1739BOLB   PO141714  21.330  11.940  11.100
 1739BOLB   GL141715  21.010  12.010  11.120
 1739BOLB   GL241716  20.760  11.950  11.380
 1739BOLB   C1A41717  20.750  12.000  10.810
 1739BOLB   C2A41718  20.390  12.250  10.510
 1739BOLB   C3A41719  20.000  12.420  10.290
 1739BOLB   C4A41720  19.920  12.910  10.200
 1739BOLB   C1B41721  20.560  12.330  11.620
 1739BOLB   C2B41722  20.240  12.530  11.500
 1739BOLB   C3B41723  20.010  12.900  11.690
 1739BOLB   C4B41724  19.610  13.080  11.850
 1739BOLB   NC241725  21.130  12.480   9.550
 1739BOLB   PO241726  20.710  12.620   9.370
 1739BOLB   GL341727  20.260  12.640   9.360
 1739BOLB   GL441728  20.140  12.360   9.600
 1739BOLB   C1C41729  19.840  12.760   9.230
 1739BOLB   C2C41730  19.400  13.130   9.300
 1739BOLB   C3C41731  19.440  13.450   9.690
 1739BOLB   C4C41732  19.670  13.250  10.000
 1739BOLB   C1D41733  19.890  12.600   9.830
 1739BOLB   C2D41734  19.540  12.570  10.090
 1739BOLB   C3D41735  19.150  12.540  10.130
 1739BOLB   C4D41736  18.730  12.610  10.050
 1740BOLB   NC141737  18.960  20.340  17.060
 1740BOLB   PO141738  19.070  19.940  17.180
 1740BOLB   GL141739  19.450  19.990  17.120
 1740BOLB   GL241740  19.640  19.730  17.130
 1740BOLB   C1A41741  19.990  19.970  17.350
 1740BOLB   C2A41742  20.240  20.030  17.040
 1740BOLB   C3A41743  20.730  20.170  17.110
 1740BOLB   C4A41744  21.130  20.400  17.330
 1740BOLB   C1B41745  20.030  19.570  16.990
 1740BOLB   C2B41746  20.400  19.500  17.250
 1740BOLB   C3B41747  20.640  19.770  17.360
 1740BOLB   C4B41748  21.110  19.870  17.330
 1740BOLB   NC241749  22.800  20.790  18.400
 1740BOLB   PO241750  23.020  21.010  18.030
 1740BOLB   GL341751  22.840  20.740  17.810
 1740BOLB   GL441752  22.790  20.380  17.540
 1740BOLB   C1C41753  22.440  20.870  17.840
 1740BOLB   C2C41754  21.940  20.920  18.000
 1740BOLB   C3C41755  21.500  20.760  17.960
 1740BOLB   C4C41756  21.210  20.690  17.600
 1740BOLB   C1D41757  22.410  20.500  17.510
 1740BOLB   C2D41758  22.100  20.570  17.150
 1740BOLB   C3D41759  22.100  20.800  16.700
 1740BOLB   C4D41760  22.040  20.950  16.250
 1741BOLB   NC141761  15.300  23.930   4.250
 1741BOLB   PO141762  15.490  24.230   4.270
 1741BOLB   GL141763  15.690  23.930   4.590
 1741BOLB   GL241764  15.480  24.070   4.850
 1741BOLB   C1A41765  15.760  23.450   4.790
 1741BOLB   C2A41766  15.690  23.020   4.570
 1741BOLB   C3A41767  15.400  22.840   4.660
 1741BOLB   C4A41768  15.130  22.680   4.780
 1741BOLB   C1B41769  15.550  23.690   5.130
 1741BOLB   C2B41770  15.680  23.380   5.330
 1741BOLB   C3B41771  15.570  23.000   5.360
 1741BOLB   C4B41772  15.750  22.620   5.530
 1741BOLB   NC241773  14.100  23.430   3.760
 1741BOLB   PO241774  14.340  23.740   3.830
 1741BOLB   GL341775  14.380  23.520   4.290
 1741BOLB   GL441776  14.690  23.560   4.430
 1741BOLB   C1C41777  14.220  23.430   4.680
 1741BOLB   C2C41778  14.290  23.310   5.130
 1741BOLB   C3C41779  14.470  22.920   5.290
 1741BOLB   C4C41780  14.770  22.690   5.050
 1741BOLB   C1D41781  14.720  23.550   4.910
 1741BOLB   C2D41782  14.790  23.330   5.210
 1741BOLB   C3D41783  14.790  23.330   5.620
 1741BOLB   C4D41784  14.830  23.070   5.900
 1742BOLB   NC141785  15.630  13.950   9.020
 1742BOLB   PO141786  15.760  13.800   9.450
 1742BOLB   GL141787  16.100  13.580   9.550
 1742BOLB   GL241788  16.280  13.610   9.320
 1742BOLB   C1A41789  16.530  13.360   9.690
 1742BOLB   C2A41790  16.760  12.950   9.610
 1742BOLB   C3A41791  17.150  12.860   9.540
 1742BOLB   C4A41792  17.520  12.820   9.520
 1742BOLB   C1B41793  16.400  13.130   9.290
 1742BOLB   C2B41794  16.780  12.890   9.080
 1742BOLB   C3B41795  16.870  12.560   8.870
 1742BOLB   C4B41796  17.020  12.150   8.850
 1742BOLB   NC241797  19.710  11.640   8.140
 1742BOLB   PO241798  19.710  11.680   8.630
 1742BOLB   GL341799  19.270  11.750   8.750
 1742BOLB   GL441800  19.310  12.020   8.810
 1742BOLB   C1C41801  18.860  12.020   8.920
 1742BOLB   C2C41802  18.660  12.240   9.220
 1742BOLB   C3C41803  18.350  12.480   9.260
 1742BOLB   C4C41804  17.970  12.670   9.500
 1742BOLB   C1D41805  19.210  12.090   9.240
 1742BOLB   C2D41806  19.070  12.290   9.740
 1742BOLB   C3D41807  19.000  12.020  10.170
 1742BOLB   C4D41808  19.390  11.690  10.360
 1743BOLB   NC141809  17.180  24.700  18.210
 1743BOLB   PO141810  17.630  24.520  18.160
 1743BOLB   GL141811  17.980  24.670  18.410
 1743BOLB   GL241812  17.690  24.890  18.480
 1743BOLB   C1A41813  18.340  25.000  18.370
 1743BOLB   C2A41814  18.680  25.000  18.070
 1743BOLB   C3A41815  19.040  25.070  17.810
 1743BOLB   C4A41816  19.430  24.940  17.730
 1743BOLB   C1B41817  17.870  25.330  18.380
 1743BOLB   C2B41818  18.250  25.470  17.990
 1743BOLB   C3B41819  18.440  25.810  17.740
 1743BOLB   C4B41820  18.620  25.980  17.340
 1743BOLB   NC241821  21.380  24.820  18.200
 1743BOLB   PO241822  21.590  24.480  18.460
 1743BOLB   GL341823  21.230  24.520  18.540
 1743BOLB   GL441824  21.040  24.420  18.770
 1743BOLB   C1C41825  20.820  24.470  18.330
 1743BOLB   C2C41826  20.560  24.460  17.950
 1743BOLB   C3C41827  20.300  24.700  17.780
 1743BOLB   C4C41828  19.950  24.960  17.670
 1743BOLB   C1D41829  20.670  24.810  18.660
 1743BOLB   C2D41830  20.360  24.980  18.600
 1743BOLB   C3D41831  20.070  25.110  18.320
 1743BOLB   C4D41832  20.050  25.380  17.960
 1744BOLB   NC141833  21.050  18.070   5.910
 1744BOLB   PO141834  20.910  17.840   6.400
 1744BOLB   GL141835  20.410  17.920   6.490
 1744BOLB   GL241836  20.260  17.660   6.740
 1744BOLB   C1A41837  19.960  18.010   6.660
 1744BOLB   C2A41838  19.700  18.100   7.010
 1744BOLB   C3A41839  19.420  18.090   7.350
 1744BOLB   C4A41840  19.210  18.070   7.750
 1744BOLB   C1B41841  19.980  17.730   7.070
 1744BOLB   C2B41842  19.590  17.670   7.270
 1744BOLB   C3B41843  19.050  17.730   7.380
 1744BOLB   C4B41844  18.470  17.710   7.330
 1744BOLB   NC241845  17.900  18.610   9.600
 1744BOLB   PO241846  17.710  18.830   9.210
 1744BOLB   GL341847  18.030  18.720   9.030
 1744BOLB   GL441848  18.210  18.530   9.170
 1744BOLB   C1C41849  18.250  18.800   8.640
 1744BOLB   C2C41850  18.610  18.890   8.460
 1744BOLB   C3C41851  18.800  18.690   8.280
 1744BOLB   C4C41852  18.970  18.400   7.960
 1744BOLB   C1D41853  18.540  18.690   9.120
 1744BOLB   C2D41854  18.900  18.660   8.810
 1744BOLB   C3D41855  19.200  18.640   8.500
 1744BOLB   C4D41856  19.480  18.400   8.160
 1745BOLB   NC141857  21.120  20.830  22.080
 1745BOLB   PO141858  20.760  21.130  21.880
 1745BOLB   GL141859  20.500  21.130  21.640
 1745BOLB   GL241860  20.530  21.580  21.670
 1745BOLB   C1A41861  20.370  21.130  21.170
 1745BOLB   C2A41862  20.130  20.780  20.970
 1745BOLB   C3A41863  19.880  20.520  20.710
 1745BOLB   C4A41864  19.540  20.230  20.730
 1745BOLB   C1B41865  20.180  21.530  21.390
 1745BOLB   C2B41866  19.860  21.240  21.200
 1745BOLB   C3B41867  19.630  20.860  21.120
 1745BOLB   C4B41868  19.650  20.430  21.180
 1745BOLB   NC241869  21.610  18.780  22.020
 1745BOLB   PO241870  21.160  18.870  21.970
 1745BOLB   GL341871  20.670  19.010  22.010
 1745BOLB   GL441872  20.360  18.900  22.140
 1745BOLB   C1C41873  20.360  19.310  21.790
 1745BOLB   C2C41874  20.050  19.490  21.550
 1745BOLB   C3C41875  19.840  19.790  21.480
 1745BOLB   C4C41876  19.620  19.890  21.010
 1745BOLB   C1D41877  20.020  18.990  21.860
 1745BOLB   C2D41878  19.770  19.050  21.480
 1745BOLB   C3D41879  19.390  18.920  21.270
 1745BOLB   C4D41880  19.280  18.470  21.290
 1746BOLB   NC141881  18.440  18.210  10.410
 1746BOLB   PO141882  18.430  17.960   9.980
 1746BOLB   GL141883  18.700  18.160   9.710
 1746BOLB   GL241884  18.610  18.300   9.460
 1746BOLB   C1A41885  19.140  18.070   9.570
 1746BOLB   C2A41886  19.470  17.950   9.330
 1746BOLB   C3A41887  19.700  17.880   9.100
 1746BOLB   C4A41888  20.090  17.670   8.960
 1746BOLB   C1B41889  18.880  17.910   9.200
 1746BOLB   C2B41890  19.190  17.760   8.950
 1746BOLB   C3B41891  19.310  17.740   8.680
 1746BOLB   C4B41892  19.670  17.640   8.520
 1746BOLB   NC241893  22.540  17.510   7.890
 1746BOLB   PO241894  22.280  17.260   8.260
 1746BOLB   GL341895  22.010  17.310   8.640
 1746BOLB   GL441896  22.180  17.560   8.900
 1746BOLB   C1C41897  21.710  17.550   8.980
 1746BOLB   C2C41898  21.440  17.860   8.880
 1746BOLB   C3C41899  20.940  17.840   8.990
 1746BOLB   C4C41900  20.510  17.730   9.050
 1746BOLB   C1D41901  21.980  17.800   8.540
 1746BOLB   C2D41902  21.600  17.620   8.330
 1746BOLB   C3D41903  21.220  17.570   8.400
 1746BOLB   C4D41904  20.980  17.190   8.360
 1747BOLB   NC141905  14.890  25.330  10.850
 1747BOLB   PO141906  14.880  25.550  11.210
 1747BOLB   GL141907  14.850  25.940  11.270
 1747BOLB   GL241908  14.530  26.140  11.120
 1747BOLB   C1A41909  14.930  26.250  10.870
 1747BOLB   C2A41910  14.910  26.630  10.760
 1747BOLB   C3A41911  15.060  26.990  10.500
 1747BOLB   C4A41912  15.110  27.450  10.500
 1747BOLB   C1B41913  14.390  26.490  10.900
 1747BOLB   C2B41914  14.410  26.900  10.970
 1747BOLB   C3B41915  14.650  27.210  10.870
 1747BOLB   C4B41916  14.870  27.650  10.920
 1747BOLB   NC241917  16.320  28.960   9.720
 1747BOLB   PO241918  16.050  29.400   9.730
 1747BOLB   GL341919  15.830  29.150   9.950
 1747BOLB   GL441920  15.650  29.300  10.120
 1747BOLB   C1C41921  15.790  28.750   9.970
 1747BOLB   C2C41922  15.540  28.440  10.070
 1747BOLB   C3C41923  15.320  28.230  10.410
 1747BOLB   C4C41924  15.060  27.870  10.450
 1747BOLB   C1D41925  15.360  29.000  10.190
 1747BOLB   C2D41926  15.040  28.640  10.200
 1747BOLB   C3D41927  14.770  28.220  10.120
 1747BOLB   C4D41928  14.340  27.970  10.130
 1748BOLB   NC141929  21.930  23.830   9.640
 1748BOLB   PO141930  21.790  23.780   9.240
 1748BOLB   GL141931  21.340  23.700   9.540
 1748BOLB   GL241932  21.470  23.490   9.760
 1748BOLB   C1A41933  20.980  23.470   9.650
 1748BOLB   C2A41934  20.540  23.370   9.630
 1748BOLB   C3A41935  20.310  23.000   9.510
 1748BOLB   C4A41936  20.120  22.600   9.650
 1748BOLB   C1B41937  21.250  23.110   9.800
 1748BOLB   C2B41938  21.260  22.750   9.480
 1748BOLB   C3B41939  20.980  22.590   9.430
 1748BOLB   C4B41940  20.590  22.640   9.360
 1748BOLB   NC241941  21.580  22.570   8.540
 1748BOLB   PO241942  21.860  22.270   8.700
 1748BOLB   GL341943  21.650  22.180   9.060
 1748BOLB   GL441944  21.650  21.870   9.200
 1748BOLB   C1C41945  21.300  22.240   9.400
 1748BOLB   C2C41946  21.030  22.170   9.860
 1748BOLB   C3C41947  20.660  22.200  10.020
 1748BOLB   C4C41948  20.240  22.190   9.830
 1748BOLB   C1D41949  21.270  21.770   9.160
 1748BOLB   C2D41950  20.930  21.690   9.370
 1748BOLB   C3D41951  20.760  21.360   9.570
 1748BOLB   C4D41952  20.330  21.280   9.590
 1749BOLB   NC141953  21.730  26.410  11.460
 1749BOLB   PO141954  21.470  25.990  11.510
 1749BOLB   GL141955  21.280  25.590  11.720
 1749BOLB   GL241956  21.460  25.270  11.780
 1749BOLB   C1A41957  21.000  25.500  12.090
 1749BOLB   C2A41958  20.590  25.210  12.220
 1749BOLB   C3A41959  20.360  24.910  12.550
 1749BOLB   C4A41960  20.210  24.520  12.540
 1749BOLB   C1B41961  21.240  25.040  12.080
 1749BOLB   C2B41962  20.830  24.830  12.080
 1749BOLB   C3B41963  20.630  24.550  12.260
 1749BOLB   C4B41964  20.440  24.300  12.130
 1749BOLB   NC241965  18.630  22.680  13.170
 1749BOLB   PO241966  18.760  22.590  12.740
 1749BOLB   GL341967  19.170  22.800  12.670
 1749BOLB   GL441968  19.450  22.730  12.690
 1749BOLB   C1C41969  19.480  23.250  12.780
 1749BOLB   C2C41970  19.750  23.600  12.890
 1749BOLB   C3C41971  20.060  23.740  12.700
 1749BOLB   C4C41972  20.040  24.160  12.540
 1749BOLB   C1D41973  19.870  22.730  12.530
 1749BOLB   C2D41974  20.330  22.920  12.520
 1749BOLB   C3D41975  20.510  23.360  12.590
 1749BOLB   C4D41976  20.630  23.780  12.840
 1750BOLB   NC141977  17.500  19.180   9.600
 1750BOLB   PO141978  17.320  19.190   9.160
 1750BOLB   GL141979  17.510  19.140   8.690
 1750BOLB   GL241980  17.750  19.060   8.600
 1750BOLB   C1A41981  17.390  18.850   8.310
 1750BOLB   C2A41982  17.470  18.550   7.950
 1750BOLB   C3A41983  17.600  18.580   7.580
 1750BOLB   C4A41984  17.780  18.570   7.170
 1750BOLB   C1B41985  17.990  19.070   8.280
 1750BOLB   C2B41986  18.390  19.040   8.020
 1750BOLB   C3B41987  18.540  19.260   7.510
 1750BOLB   C4B41988  18.740  19.220   7.160
 1750BOLB   NC241989  19.530  18.640   5.250
 1750BOLB   PO241990  19.130  18.360   5.280
 1750BOLB   GL341991  18.850  18.350   5.520
 1750BOLB   GL441992  18.640  18.260   5.380
 1750BOLB   C1C41993  18.620  18.350   5.840
 1750BOLB   C2C41994  18.390  18.450   6.100
 1750BOLB   C3C41995  18.320  18.520   6.470
 1750BOLB   C4C41996  17.990  18.530   6.820
 1750BOLB   C1D41997  18.250  18.420   5.550
 1750BOLB   C2D41998  17.940  18.500   5.890
 1750BOLB   C3D41999  17.490  18.610   6.070
 1750BOLB   C4D42000  17.370  18.630   6.370
 1751BOLB   NC142001  22.970  17.960   9.680
 1751BOLB   PO142002  22.930  18.390   9.450
 1751BOLB   GL142003  22.630  18.630   9.780
 1751BOLB   GL242004  22.710  18.680  10.150
 1751BOLB   C1A42005  22.200  18.870   9.800
 1751BOLB   C2A42006  21.790  18.940   9.760
 1751BOLB   C3A42007  21.390  18.850   9.690
 1751BOLB   C4A42008  21.040  18.720   9.760
 1751BOLB   C1B42009  22.340  18.960  10.240
 1751BOLB   C2B42010  21.850  19.060  10.380
 1751BOLB   C3B42011  21.480  19.140  10.720
 1751BOLB   C4B42012  21.430  19.420  11.100
 1751BOLB   NC242013  18.280  18.440   9.790
 1751BOLB   PO242014  18.640  18.510  10.110
 1751BOLB   GL342015  19.080  18.490   9.910
 1751BOLB   GL442016  19.240  18.740   9.720
 1751BOLB   C1C42017  19.570  18.270   9.950
 1751BOLB   C2C42018  19.880  18.200   9.690
 1751BOLB   C3C42019  20.180  18.540   9.640
 1751BOLB   C4C42020  20.600  18.620   9.700
 1751BOLB   C1D42021  19.540  18.520   9.460
 1751BOLB   C2D42022  19.890  18.330   9.220
 1751BOLB   C3D42023  20.160  18.020   9.320
 1751BOLB   C4D42024  20.320  17.970   9.770
 1752BOLB   NC142025  12.730  22.380   7.870
 1752BOLB   PO142026  13.000  22.550   7.630
 1752BOLB   GL142027  13.130  22.510   7.160
 1752BOLB   GL242028  13.490  22.630   7.160
 1752BOLB   C1A42029  13.210  22.660   6.700
 1752BOLB   C2A42030  13.200  22.880   6.310
 1752BOLB   C3A42031  13.450  23.170   6.110
 1752BOLB   C4A42032  13.580  23.600   5.940
 1752BOLB   C1B42033  13.650  22.850   6.760
 1752BOLB   C2B42034  13.780  22.760   6.410
 1752BOLB   C3B42035  13.810  22.830   6.050
 1752BOLB   C4B42036  14.090  22.810   5.700
 1752BOLB   NC242037  12.740  25.260   4.400
 1752BOLB   PO242038  13.240  25.360   4.250
 1752BOLB   GL342039  13.330  25.080   4.600
 1752BOLB   GL442040  12.950  25.040   4.810
 1752BOLB   C1C42041  13.450  24.870   4.960
 1752BOLB   C2C42042  13.540  24.470   4.990
 1752BOLB   C3C42043  13.670  24.130   5.280
 1752BOLB   C4C42044  13.660  23.870   5.570
 1752BOLB   C1D42045  12.540  25.090   5.050
 1752BOLB   C2D42046  12.380  25.010   5.400
 1752BOLB   C3D42047  12.590  24.820   5.770
 1752BOLB   C4D42048  12.920  24.560   5.810
 1753BOLB   NC142049   7.040  16.970  21.270
 1753BOLB   PO142050   6.650  16.960  21.190
 1753BOLB   GL142051   6.270  16.900  21.500
 1753BOLB   GL242052   6.290  17.030  21.870
 1753BOLB   C1A42053   5.970  16.620  21.630
 1753BOLB   C2A42054   5.880  16.410  21.990
 1753BOLB   C3A42055   5.800  16.240  22.380
 1753BOLB   C4A42056   5.980  15.970  22.660
 1753BOLB   C1B42057   6.320  16.610  22.090
 1753BOLB   C2B42058   6.370  16.300  22.350
 1753BOLB   C3B42059   6.490  16.030  22.530
 1753BOLB   C4B42060   6.600  15.940  22.880
 1753BOLB   NC242061   5.180  15.050  24.720
 1753BOLB   PO242062   4.790  15.080  24.450
 1753BOLB   GL342063   4.860  15.090  24.110
 1753BOLB   GL442064   5.040  14.830  24.010
 1753BOLB   C1C42065   5.050  15.330  23.740
 1753BOLB   C2C42066   5.490  15.490  23.500
 1753BOLB   C3C42067   5.590  15.520  23.150
 1753BOLB   C4C42068   5.890  15.830  23.050
 1753BOLB   C1D42069   5.050  14.890  23.550
 1753BOLB   C2D42070   5.070  15.220  23.130
 1753BOLB   C3D42071   5.030  15.670  22.950
 1753BOLB   C4D42072   4.820  15.980  22.780
 1754BOLB   NC142073  18.590  14.710  13.500
 1754BOLB   PO142074  18.620  14.730  12.940
 1754BOLB   GL142075  18.850  14.530  12.630
 1754BOLB   GL242076  18.780  14.420  12.370
 1754BOLB   C1A42077  19.290  14.370  12.540
 1754BOLB   C2A42078  19.780  14.280  12.530
 1754BOLB   C3A42079  20.200  14.410  12.360
 1754BOLB   C4A42080  20.480  14.740  12.260
 1754BOLB   C1B42081  18.950  13.990  12.410
 1754BOLB   C2B42082  19.170  13.680  12.590
 1754BOLB   C3B42083  19.350  13.210  12.650
 1754BOLB   C4B42084  19.720  12.960  12.520
 1754BOLB   NC242085  21.960  13.330  12.120
 1754BOLB   PO242086  22.080  13.660  11.880
 1754BOLB   GL342087  21.950  13.810  11.530
 1754BOLB   GL442088  21.770  13.600  11.300
 1754BOLB   C1C42089  21.590  14.110  11.530
 1754BOLB   C2C42090  21.430  14.530  11.560
 1754BOLB   C3C42091  21.140  14.870  11.610
 1754BOLB   C4C42092  20.840  14.870  11.910
 1754BOLB   C1D42093  21.300  13.710  11.250
 1754BOLB   C2D42094  21.050  13.970  11.300
 1754BOLB   C3D42095  20.670  14.060  11.470
 1754BOLB   C4D42096  20.270  14.060  11.160
 1755BOLB   NC142097  18.620  19.350  10.330
 1755BOLB   PO142098  18.910  19.770  10.310
 1755BOLB   GL142099  18.990  19.600   9.890
 1755BOLB   GL242100  19.140  19.320   9.770
 1755BOLB   C1A42101  19.170  19.610   9.380
 1755BOLB   C2A42102  19.410  19.300   9.040
 1755BOLB   C3A42103  19.890  19.220   8.900
 1755BOLB   C4A42104  20.260  19.470   8.760
 1755BOLB   C1B42105  19.500  19.540   9.890
 1755BOLB   C2B42106  19.670  19.540   9.450
 1755BOLB   C3B42107  20.140  19.480   9.390
 1755BOLB   C4B42108  20.520  19.580   9.340
 1755BOLB   NC242109  22.540  20.220   8.070
 1755BOLB   PO242110  22.170  20.550   7.850
 1755BOLB   GL342111  21.730  20.360   7.880
 1755BOLB   GL442112  21.550  20.550   7.950
 1755BOLB   C1C42113  21.580  20.140   8.250
 1755BOLB   C2C42114  21.160  20.030   8.440
 1755BOLB   C3C42115  21.020  19.880   8.810
 1755BOLB   C4C42116  20.690  19.590   8.860
 1755BOLB   C1D42117  21.160  20.510   8.190
 1755BOLB   C2D42118  20.720  20.640   8.320
 1755BOLB   C3D42119  20.430  20.660   8.850
 1755BOLB   C4D42120  20.260  20.910   9.280
 1756BOLB   NC142121  13.530  24.890   9.650
 1756BOLB   PO142122  13.360  25.180   9.870
 1756BOLB   GL142123  13.410  25.600   9.660
 1756BOLB   GL242124  13.230  25.610   9.330
 1756BOLB   C1A42125  13.540  25.990   9.270
 1756BOLB   C2A42126  13.510  26.500   9.250
 1756BOLB   C3A42127  13.740  26.840   9.010
 1756BOLB   C4A42128  13.850  27.190   8.730
 1756BOLB   C1B42129  13.060  25.800   8.900
 1756BOLB   C2B42130  13.030  26.040   8.550
 1756BOLB   C3B42131  13.080  26.070   8.150
 1756BOLB   C4B42132  13.050  26.420   7.760
 1756BOLB   NC242133  12.900  29.010   7.300
 1756BOLB   PO242134  12.980  28.820   7.700
 1756BOLB   GL342135  13.030  28.520   7.930
 1756BOLB   GL442136  13.240  28.550   8.160
 1756BOLB   C1C42137  12.900  28.080   7.930
 1756BOLB   C2C42138  12.930  27.690   8.080
 1756BOLB   C3C42139  13.280  27.330   8.050
 1756BOLB   C4C42140  13.530  27.110   8.380
 1756BOLB   C1D42141  13.650  28.400   8.340
 1756BOLB   C2D42142  14.110  28.310   8.480
 1756BOLB   C3D42143  14.350  28.160   8.910
 1756BOLB   C4D42144  14.410  28.130   9.270
 1757BOLB   NC142145  15.180  23.490   8.730
 1757BOLB   PO142146  15.310  23.840   8.980
 1757BOLB   GL142147  15.320  24.090   8.580
 1757BOLB   GL242148  15.610  23.990   8.430
 1757BOLB   C1A42149  15.390  24.450   8.260
 1757BOLB   C2A42150  15.430  24.720   7.930
 1757BOLB   C3A42151  15.470  25.070   7.610
 1757BOLB   C4A42152  15.120  25.360   7.500
 1757BOLB   C1B42153  15.970  24.330   8.440
 1757BOLB   C2B42154  16.170  24.580   8.140
 1757BOLB   C3B42155  16.330  24.400   7.730
 1757BOLB   C4B42156  16.160  24.100   7.550
 1757BOLB   NC242157  15.250  26.600   5.490
 1757BOLB   PO242158  15.100  26.220   5.360
 1757BOLB   GL342159  14.840  26.010   5.740
 1757BOLB   GL442160  14.520  26.110   5.810
 1757BOLB   C1C42161  14.860  25.670   6.040
 1757BOLB   C2C42162  14.780  25.640   6.520
 1757BOLB   C3C42163  14.670  25.650   6.930
 1757BOLB   C4C42164  14.870  25.400   7.080
 1757BOLB   C1D42165  14.350  26.040   6.180
 1757BOLB   C2D42166  14.330  25.880   6.550
 1757BOLB   C3D42167  14.060  25.610   6.760
 1757BOLB   C4D42168  13.920  25.290   6.470
 1758BOLB   NC142169  17.490  23.640  11.390
 1758BOLB   PO142170  17.530  23.240  11.340
 1758BOLB   GL142171  17.890  23.310  11.090
 1758BOLB   GL242172  17.990  23.610  11.180
 1758BOLB   C1A42173  18.070  23.510  10.660
 1758BOLB   C2A42174  18.490  23.740  10.390
 1758BOLB   C3A42175  18.910  23.660  10.440
 1758BOLB   C4A42176  19.260  23.620  10.410
 1758BOLB   C1B42177  18.350  23.790  11.100
 1758BOLB   C2B42178  18.830  23.810  10.950
 1758BOLB   C3B42179  19.140  24.030  10.710
 1758BOLB   C4B42180  19.090  24.430  10.600
 1758BOLB   NC242181  21.420  24.790   9.850
 1758BOLB   PO242182  21.110  24.720   9.500
 1758BOLB   GL342183  20.890  24.630   9.800
 1758BOLB   GL442184  21.050  24.690  10.110
 1758BOLB   C1C42185  20.780  24.270  10.050
 1758BOLB   C2C42186  20.390  24.090  10.220
 1758BOLB   C3C42187  20.020  24.000  10.370
 1758BOLB   C4C42188  19.650  23.730  10.510
 1758BOLB   C1D42189  20.660  24.920  10.270
 1758BOLB   C2D42190  20.270  25.070  10.530
 1758BOLB   C3D42191  19.980  24.810  10.720
 1758BOLB   C4D42192  19.670  24.400  10.640
 1759BOLB   NC142193  18.270  24.450  15.250
 1759BOLB   PO142194  18.260  24.720  15.680
 1759BOLB   GL142195  18.460  25.100  15.940
 1759BOLB   GL242196  18.360  25.400  15.750
 1759BOLB   C1A42197  18.870  25.250  16.150
 1759BOLB   C2A42198  19.040  25.570  16.470
 1759BOLB   C3A42199  18.960  26.030  16.360
 1759BOLB   C4A42200  18.990  26.440  16.500
 1759BOLB   C1B42201  18.380  25.830  15.570
 1759BOLB   C2B42202  18.300  26.070  15.200
 1759BOLB   C3B42203  18.640  26.290  15.010
 1759BOLB   C4B42204  18.750  26.400  14.700
 1759BOLB   NC242205  21.030  27.330  17.070
 1759BOLB   PO242206  20.740  27.630  17.320
 1759BOLB   GL342207  20.490  27.260  17.170
 1759BOLB   GL442208  20.540  27.040  17.320
 1759BOLB   C1C42209  20.190  27.380  17.030
 1759BOLB   C2C42210  19.780  27.290  16.880
 1759BOLB   C3C42211  19.550  27.020  16.680
 1759BOLB   C4C42212  19.420  26.660  16.560
 1759BOLB   C1D42213  20.120  27.240  17.500
 1759BOLB   C2D42214  19.910  27.500  17.750
 1759BOLB   C3D42215  19.500  27.630  17.670
 1759BOLB   C4D42216  19.100  27.620  17.490
 1760BOLB   NC142217  15.230  12.120  16.610
 1760BOLB   PO142218  15.180  11.730  16.430
 1760BOLB   GL142219  15.300  11.400  16.660
 1760BOLB   GL242220  15.120  11.240  16.690
 1760BOLB   C1A42221  15.650  11.110  16.630
 1760BOLB   C2A42222  16.070  10.950  16.720
 1760BOLB   C3A42223  16.380  10.600  16.810
 1760BOLB   C4A42224  16.680  10.360  16.840
 1760BOLB   C1B42225  15.270  10.720  16.730
 1760BOLB   C2B42226  15.280  10.240  16.840
 1760BOLB   C3B42227  15.670   9.990  16.830
 1760BOLB   C4B42228  15.900   9.760  17.140
 1760BOLB   NC242229  18.090   8.860  18.330
 1760BOLB   PO242230  18.140   9.340  18.310
 1760BOLB   GL342231  17.950   9.620  18.110
 1760BOLB   GL442232  18.040   9.850  18.280
 1760BOLB   C1C42233  17.570   9.860  17.960
 1760BOLB   C2C42234  17.200  10.000  17.830
 1760BOLB   C3C42235  16.890   9.900  17.570
 1760BOLB   C4C42236  16.760  10.140  17.240
 1760BOLB   C1D42237  18.060   9.920  17.800
 1760BOLB   C2D42238  17.770  10.140  17.470
 1760BOLB   C3D42239  17.460  10.340  17.250
 1760BOLB   C4D42240  17.220  10.780  17.150
 1761BOLB   NC142241  10.360  12.750   9.780
 1761BOLB   PO142242   9.970  12.870   9.450
 1761BOLB   GL142243   9.860  12.510   9.150
 1761BOLB   GL242244   9.570  12.310   9.310
 1761BOLB   C1A42245  10.020  12.220   8.780
 1761BOLB   C2A42246   9.800  11.980   8.420
 1761BOLB   C3A42247   9.610  11.520   8.180
 1761BOLB   C4A42248   9.280  11.180   8.190
 1761BOLB   C1B42249   9.600  12.060   9.010
 1761BOLB   C2B42250   9.520  11.650   8.720
 1761BOLB   C3B42251   9.590  11.220   8.690
 1761BOLB   C4B42252   9.620  10.790   8.840
 1761BOLB   NC242253   7.590   9.810   7.110
 1761BOLB   PO242254   7.800   9.950   6.800
 1761BOLB   GL342255   7.970  10.190   7.100
 1761BOLB   GL442256   8.090  10.500   7.130
 1761BOLB   C1C42257   7.850  10.330   7.620
 1761BOLB   C2C42258   8.040  10.580   7.990
 1761BOLB   C3C42259   8.290  10.910   8.200
 1761BOLB   C4C42260   8.750  11.120   8.260
 1761BOLB   C1D42261   8.230  10.860   7.260
 1761BOLB   C2D42262   8.110  11.100   7.680
 1761BOLB   C3D42263   8.360  11.320   7.880
 1761BOLB   C4D42264   8.260  11.770   7.890
 1762BOLB   NC142265  20.420  16.290   6.140
 1762BOLB   PO142266  20.090  16.510   5.920
 1762BOLB   GL142267  19.720  16.820   6.050
 1762BOLB   GL242268  19.720  17.120   6.140
 1762BOLB   C1A42269  19.280  16.830   6.280
 1762BOLB   C2A42270  19.070  16.940   6.590
 1762BOLB   C3A42271  18.870  16.920   6.870
 1762BOLB   C4A42272  19.040  16.670   7.180
 1762BOLB   C1B42273  19.410  17.390   6.350
 1762BOLB   C2B42274  19.170  17.690   6.130
 1762BOLB   C3B42275  18.770  17.990   6.240
 1762BOLB   C4B42276  18.500  18.010   6.570
 1762BOLB   NC242277  20.780  16.430   7.070
 1762BOLB   PO242278  20.910  16.070   7.360
 1762BOLB   GL342279  20.530  16.230   7.490
 1762BOLB   GL442280  20.400  16.570   7.300
 1762BOLB   C1C42281  20.140  16.190   7.460
 1762BOLB   C2C42282  19.910  16.270   7.810
 1762BOLB   C3C42283  19.530  16.230   7.760
 1762BOLB   C4C42284  19.320  16.540   7.610
 1762BOLB   C1D42285  19.950  16.670   7.520
 1762BOLB   C2D42286  19.640  16.840   7.830
 1762BOLB   C3D42287  19.950  16.830   8.170
 1762BOLB   C4D42288  20.180  16.740   8.540
 1763BOLB   NC142289  14.420  24.560  10.350
 1763BOLB   PO142290  14.310  24.730  10.000
 1763BOLB   GL142291  14.430  25.130   9.990
 1763BOLB   GL242292  14.170  25.360  10.110
 1763BOLB   C1A42293  14.600  25.490   9.900
 1763BOLB   C2A42294  14.830  25.700   9.570
 1763BOLB   C3A42295  15.160  25.780   9.370
 1763BOLB   C4A42296  15.350  25.720   9.030
 1763BOLB   C1B42297  14.150  25.620   9.780
 1763BOLB   C2B42298  14.410  25.930   9.650
 1763BOLB   C3B42299  14.450  26.420   9.770
 1763BOLB   C4B42300  14.510  26.850   9.840
 1763BOLB   NC242301  16.380  27.530   7.210
 1763BOLB   PO242302  16.450  27.440   7.590
 1763BOLB   GL342303  16.290  27.210   7.910
 1763BOLB   GL442304  15.890  27.250   8.000
 1763BOLB   C1C42305  16.250  26.870   8.180
 1763BOLB   C2C42306  16.070  26.560   8.440
 1763BOLB   C3C42307  15.850  26.260   8.550
 1763BOLB   C4C42308  15.660  25.940   8.820
 1763BOLB   C1D42309  15.840  27.040   8.420
 1763BOLB   C2D42310  15.730  26.740   8.710
 1763BOLB   C3D42311  15.430  26.530   8.920
 1763BOLB   C4D42312  15.330  26.230   9.210
 1764BOLB   NC142313  18.750  23.260   5.710
 1764BOLB   PO142314  18.630  22.890   5.670
 1764BOLB   GL142315  18.480  22.980   6.050
 1764BOLB   GL242316  18.690  22.970   6.320
 1764BOLB   C1A42317  18.150  22.630   6.190
 1764BOLB   C2A42318  18.010  22.450   6.640
 1764BOLB   C3A42319  18.140  22.380   6.950
 1764BOLB   C4A42320  18.330  22.170   7.220
 1764BOLB   C1B42321  18.860  23.020   6.570
 1764BOLB   C2B42322  19.040  23.190   6.910
 1764BOLB   C3B42323  19.160  23.210   7.370
 1764BOLB   C4B42324  18.830  23.140   7.770
 1764BOLB   NC242325  20.170  21.780   6.430
 1764BOLB   PO242326  19.760  21.800   6.280
 1764BOLB   GL342327  19.700  21.410   6.420
 1764BOLB   GL442328  19.780  21.170   6.340
 1764BOLB   C1C42329  19.430  21.290   6.730
 1764BOLB   C2C42330  19.050  21.220   7.010
 1764BOLB   C3C42331  19.000  21.600   7.200
 1764BOLB   C4C42332  18.660  21.870   7.260
 1764BOLB   C1D42333  19.590  20.840   6.650
 1764BOLB   C2D42334  19.500  20.850   6.980
 1764BOLB   C3D42335  19.290  20.870   7.360
 1764BOLB   C4D42336  18.980  20.920   7.710
 1765BOLB   NC142337  17.240  23.940  12.070
 1765BOLB   PO142338  17.540  23.650  11.880
 1765BOLB   GL142339  17.910  23.830  11.750
 1765BOLB   GL242340  17.840  24.100  11.550
 1765BOLB   C1A42341  18.310  23.990  11.590
 1765BOLB   C2A42342  18.510  24.230  11.290
 1765BOLB   C3A42343  18.540  24.500  10.960
 1765BOLB   C4A42344  18.390  24.940  10.640
 1765BOLB   C1B42345  18.040  24.410  11.510
 1765BOLB   C2B42346  18.330  24.670  11.540
 1765BOLB   C3B42347  18.710  24.670  11.440
 1765BOLB   C4B42348  18.870  24.910  11.810
 1765BOLB   NC242349  19.550  27.000   9.110
 1765BOLB   PO242350  19.060  26.960   9.260
 1765BOLB   GL342351  18.750  26.710   9.480
 1765BOLB   GL442352  18.520  26.640   9.370
 1765BOLB   C1C42353  18.620  26.320   9.740
 1765BOLB   C2C42354  18.580  26.040  10.020
 1765BOLB   C3C42355  18.360  25.650  10.180
 1765BOLB   C4C42356  18.260  25.420  10.450
 1765BOLB   C1D42357  18.190  26.390   9.510
 1765BOLB   C2D42358  17.870  26.060   9.310
 1765BOLB   C3D42359  17.670  25.650   9.180
 1765BOLB   C4D42360  17.460  25.440   8.820
 1766BOLB   NC142361  17.180  21.430   9.420
 1766BOLB   PO142362  17.320  21.680   9.110
 1766BOLB   GL142363  17.610  21.880   8.790
 1766BOLB   GL242364  17.540  21.620   8.570
 1766BOLB   C1A42365  17.970  21.940   8.480
 1766BOLB   C2A42366  18.390  22.020   8.170
 1766BOLB   C3A42367  18.880  22.220   8.190
 1766BOLB   C4A42368  19.320  22.440   8.060
 1766BOLB   C1B42369  17.570  21.810   8.210
 1766BOLB   C2B42370  17.600  22.150   7.900
 1766BOLB   C3B42371  17.700  22.590   7.750
 1766BOLB   C4B42372  17.940  22.990   7.580
 1766BOLB   NC242373  20.200  23.590   6.890
 1766BOLB   PO242374  20.260  23.340   6.480
 1766BOLB   GL342375  20.070  23.130   6.850
 1766BOLB   GL442376  19.820  22.960   6.730
 1766BOLB   C1C42377  20.190  22.940   7.110
 1766BOLB   C2C42378  20.260  22.690   7.400
 1766BOLB   C3C42379  20.030  22.450   7.650
 1766BOLB   C4C42380  19.620  22.370   7.790
 1766BOLB   C1D42381  19.440  22.920   6.990
 1766BOLB   C2D42382  19.190  22.610   7.230
 1766BOLB   C3D42383  18.750  22.790   7.350
 1766BOLB   C4D42384  18.300  22.620   7.320
 1767BOLB   NC142385  23.220  21.940  10.960
 1767BOLB   PO142386  23.200  21.520  10.670
 1767BOLB   GL142387  22.840  21.510  10.860
 1767BOLB   GL242388  22.770  21.730  11.070
 1767BOLB   C1A42389  22.520  21.350  10.890
 1767BOLB   C2A42390  22.090  21.270  10.850
 1767BOLB   C3A42391  21.810  21.040  10.800
 1767BOLB   C4A42392  21.390  21.030  10.580
 1767BOLB   C1B42393  22.320  21.650  11.230
 1767BOLB   C2B42394  22.030  21.640  11.570
 1767BOLB   C3B42395  21.840  21.340  11.810
 1767BOLB   C4B42396  21.610  20.910  11.930
 1767BOLB   NC242397  23.170  21.640  10.170
 1767BOLB   PO242398  22.960  21.570   9.840
 1767BOLB   GL342399  22.610  21.620   9.840
 1767BOLB   GL442400  22.670  21.460  10.270
 1767BOLB   C1C42401  22.190  21.430   9.870
 1767BOLB   C2C42402  21.760  21.290   9.820
 1767BOLB   C3C42403  21.410  21.260  10.050
 1767BOLB   C4C42404  21.290  21.370  10.390
 1767BOLB   C1D42405  22.410  21.150  10.470
 1767BOLB   C2D42406  22.330  20.860  10.760
 1767BOLB   C3D42407  22.160  20.660  11.180
 1767BOLB   C4D42408  21.880  20.410  11.480
 1768BOLB   NC142409  13.580  25.530  10.740
 1768BOLB   PO142410  13.270  25.470  10.340
 1768BOLB   GL142411  13.050  25.760  10.130
 1768BOLB   GL242412  12.800  25.860  10.250
 1768BOLB   C1A42413  13.150  25.960   9.860
 1768BOLB   C2A42414  13.230  26.220   9.690
 1768BOLB   C3A42415  13.130  26.630   9.580
 1768BOLB   C4A42416  13.120  26.820   9.170
 1768BOLB   C1B42417  12.850  26.330  10.230
 1768BOLB   C2B42418  12.750  26.670   9.930
 1768BOLB   C3B42419  12.810  27.000   9.580
 1768BOLB   C4B42420  12.780  27.450   9.660
 1768BOLB   NC242421  13.010  28.490   7.290
 1768BOLB   PO242422  13.410  28.350   7.440
 1768BOLB   GL342423  13.480  28.170   7.790
 1768BOLB   GL442424  13.530  27.740   7.760
 1768BOLB   C1C42425  13.320  28.040   8.200
 1768BOLB   C2C42426  13.460  27.880   8.670
 1768BOLB   C3C42427  13.500  27.530   8.860
 1768BOLB   C4C42428  13.340  27.190   8.870
 1768BOLB   C1D42429  13.600  27.300   7.690
 1768BOLB   C2D42430  13.500  26.920   7.900
 1768BOLB   C3D42431  13.340  26.560   8.190
 1768BOLB   C4D42432  13.470  26.230   8.420
 1769BOLB   NC142433  12.170  23.570   8.450
 1769BOLB   PO142434  12.480  23.850   8.470
 1769BOLB   GL142435  12.350  23.990   8.180
 1769BOLB   GL242436  12.260  24.250   8.350
 1769BOLB   C1A42437  12.140  24.150   7.750
 1769BOLB   C2A42438  12.250  24.510   7.490
 1769BOLB   C3A42439  12.240  24.810   7.280
 1769BOLB   C4A42440  12.110  25.200   7.020
 1769BOLB   C1B42441  12.490  24.490   8.000
 1769BOLB   C2B42442  12.660  24.860   7.800
 1769BOLB   C3B42443  12.600  25.180   7.650
 1769BOLB   C4B42444  12.730  25.560   7.400
 1769BOLB   NC242445  12.130  27.280   5.880
 1769BOLB   PO242446  12.580  27.090   5.920
 1769BOLB   GL342447  12.870  26.810   6.180
 1769BOLB   GL442448  12.510  26.690   6.210
 1769BOLB   C1C42449  12.970  26.410   6.470
 1769BOLB   C2C42450  12.780  26.240   6.790
 1769BOLB   C3C42451  12.510  26.020   7.110
 1769BOLB   C4C42452  12.190  25.670   6.910
 1769BOLB   C1D42453  12.410  26.370   6.540
 1769BOLB   C2D42454  12.380  25.900   6.560
 1769BOLB   C3D42455  12.630  25.600   6.820
 1769BOLB   C4D42456  12.550  25.280   7.050
 1770BOLB   NC142457  22.460  18.010   8.990
 1770BOLB   PO142458  22.700  17.900   8.600
 1770BOLB   GL142459  22.250  18.180   8.580
 1770BOLB   GL242460  21.880  18.200   8.340
 1770BOLB   C1A42461  22.060  18.480   8.950
 1770BOLB   C2A42462  22.090  18.430   9.470
 1770BOLB   C3A42463  21.980  18.140   9.780
 1770BOLB   C4A42464  21.710  17.910   9.710
 1770BOLB   C1B42465  21.600  18.340   8.720
 1770BOLB   C2B42466  21.160  18.330   8.880
 1770BOLB   C3B42467  20.740  18.290   8.830
 1770BOLB   C4B42468  20.360  18.190   8.860
 1770BOLB   NC242469  22.340  16.770   8.030
 1770BOLB   PO242470  22.240  17.110   7.740
 1770BOLB   GL342471  21.840  16.990   8.120
 1770BOLB   GL442472  21.710  16.790   8.140
 1770BOLB   C1C42473  21.560  17.190   8.490
 1770BOLB   C2C42474  21.290  17.330   8.830
 1770BOLB   C3C42475  21.280  17.470   9.200
 1770BOLB   C4C42476  21.560  17.730   9.440
 1770BOLB   C1D42477  21.400  17.200   8.010
 1770BOLB   C2D42478  21.000  17.420   7.910
 1770BOLB   C3D42479  20.900  17.820   8.070
 1770BOLB   C4D42480  20.530  18.040   8.230
 1771BOLB   NC142481  17.060  25.300  14.950
 1771BOLB   PO142482  16.870  25.520  14.570
 1771BOLB   GL142483  17.180  25.710  14.290
 1771BOLB   GL242484  17.330  25.640  13.950
 1771BOLB   C1A42485  17.330  26.130  14.250
 1771BOLB   C2A42486  17.550  26.310  14.410
 1771BOLB   C3A42487  17.890  26.580  14.560
 1771BOLB   C4A42488  17.980  27.030  14.640
 1771BOLB   C1B42489  17.370  25.900  13.630
 1771BOLB   C2B42490  17.380  25.930  13.190
 1771BOLB   C3B42491  17.550  26.050  12.900
 1771BOLB   C4B42492  17.660  26.480  12.650
 1771BOLB   NC242493  19.230  28.740  13.550
 1771BOLB   PO242494  19.030  28.830  13.960
 1771BOLB   GL342495  18.750  28.490  14.260
 1771BOLB   GL442496  18.780  28.500  14.510
 1771BOLB   C1C42497  18.650  28.100  14.190
 1771BOLB   C2C42498  18.360  27.760  14.320
 1771BOLB   C3C42499  18.300  27.590  14.670
 1771BOLB   C4C42500  18.060  27.340  14.720
 1771BOLB   C1D42501  18.550  28.240  14.690
 1771BOLB   C2D42502  18.130  27.990  14.890
 1771BOLB   C3D42503  18.150  27.900  15.380
 1771BOLB   C4D42504  17.810  27.920  15.560
 1772BOLB   NC142505  22.130  13.720  10.960
 1772BOLB   PO142506  21.930  13.780  10.540
 1772BOLB   GL142507  21.630  13.860  10.780
 1772BOLB   GL242508  21.800  14.130  10.980
 1772BOLB   C1A42509  21.160  13.870  10.800
 1772BOLB   C2A42510  20.810  14.140  10.920
 1772BOLB   C3A42511  20.560  14.440  11.130
 1772BOLB   C4A42512  20.530  14.740  11.550
 1772BOLB   C1B42513  21.440  14.300  11.020
 1772BOLB   C2B42514  21.030  14.470  11.230
 1772BOLB   C3B42515  20.930  14.420  11.680
 1772BOLB   C4B42516  20.850  14.460  12.170
 1772BOLB   NC242517  22.450  14.490  11.040
 1772BOLB   PO242518  22.200  14.200  11.220
 1772BOLB   GL342519  22.210  14.630  11.500
 1772BOLB   GL442520  22.060  14.500  11.630
 1772BOLB   C1C42521  21.870  15.010  11.560
 1772BOLB   C2C42522  21.420  15.240  11.430
 1772BOLB   C3C42523  20.990  15.390  11.390
 1772BOLB   C4C42524  20.610  15.100  11.490
 1772BOLB   C1D42525  21.970  14.770  11.940
 1772BOLB   C2D42526  21.800  15.080  12.260
 1772BOLB   C3D42527  21.670  15.020  12.630
 1772BOLB   C4D42528  21.830  14.870  12.880
 1773BOLB   NC142529  19.270  19.510  16.890
 1773BOLB   PO142530  19.580  19.650  16.620
 1773BOLB   GL142531  19.850  19.930  16.730
 1773BOLB   GL242532  19.640  20.160  16.670
 1773BOLB   C1A42533  20.210  20.240  16.610
 1773BOLB   C2A42534  20.620  20.280  16.620
 1773BOLB   C3A42535  21.000  20.490  16.520
 1773BOLB   C4A42536  21.350  20.730  16.280
 1773BOLB   C1B42537  19.760  20.430  16.960
 1773BOLB   C2B42538  19.920  20.550  17.390
 1773BOLB   C3B42539  20.340  20.360  17.590
 1773BOLB   C4B42540  20.750  20.580  17.600
 1773BOLB   NC242541  24.000  21.070  15.510
 1773BOLB   PO242542  23.690  21.410  15.570
 1773BOLB   GL342543  23.250  21.530  15.620
 1773BOLB   GL442544  23.140  21.720  15.940
 1773BOLB   C1C42545  22.880  21.380  15.590
 1773BOLB   C2C42546  22.370  21.200  15.750
 1773BOLB   C3C42547  22.000  20.980  15.730
 1773BOLB   C4C42548  21.620  20.950  15.980
 1773BOLB   C1D42549  22.680  21.510  16.070
 1773BOLB   C2D42550  22.360  21.530  16.090
 1773BOLB   C3D42551  21.820  21.400  16.000
 1773BOLB   C4D42552  21.470  21.550  15.800
 1774BOLB   NC142553  19.210  21.000  11.930
 1774BOLB   PO142554  19.160  21.250  12.300
 1774BOLB   GL142555  19.620  21.160  12.210
 1774BOLB   GL242556  19.790  21.210  12.370
 1774BOLB   C1A42557  19.850  21.400  11.830
 1774BOLB   C2A42558  20.240  21.510  11.820
 1774BOLB   C3A42559  20.550  21.670  11.580
 1774BOLB   C4A42560  20.890  21.660  11.340
 1774BOLB   C1B42561  20.170  21.320  12.280
 1774BOLB   C2B42562  20.620  21.370  12.390
 1774BOLB   C3B42563  20.950  21.650  12.530
 1774BOLB   C4B42564  21.250  21.800  12.500
 1774BOLB   NC242565  22.700  23.730  11.070
 1774BOLB   PO242566  22.890  23.290  11.000
 1774BOLB   GL342567  22.560  23.030  11.270
 1774BOLB   GL442568  22.530  23.370  11.430
 1774BOLB   C1C42569  22.230  22.600  11.210
 1774BOLB   C2C42570  21.930  22.390  10.920
 1774BOLB   C3C42571  21.600  22.140  11.010
 1774BOLB   C4C42572  21.330  21.880  11.120
 1774BOLB   C1D42573  22.290  23.220  11.710
 1774BOLB   C2D42574  21.970  23.190  11.890
 1774BOLB   C3D42575  21.680  22.950  12.000
 1774BOLB   C4D42576  21.260  22.990  11.880
 1775BOLB   NC142577  16.010  24.380  10.360
 1775BOLB   PO142578  15.830  24.580  10.750
 1775BOLB   GL142579  16.210  24.820  10.600
 1775BOLB   GL242580  16.140  25.080  10.660
 1775BOLB   C1A42581  16.530  25.020  10.250
 1775BOLB   C2A42582  16.820  25.090  10.000
 1775BOLB   C3A42583  16.880  25.300   9.680
 1775BOLB   C4A42584  17.020  25.610   9.430
 1775BOLB   C1B42585  16.280  25.470  10.550
 1775BOLB   C2B42586  16.710  25.620  10.660
 1775BOLB   C3B42587  16.980  25.920  10.730
 1775BOLB   C4B42588  17.140  26.320  10.670
 1775BOLB   NC242589  18.570  26.510   8.140
 1775BOLB   PO242590  18.340  26.940   8.030
 1775BOLB   GL342591  17.970  26.640   8.070
 1775BOLB   GL442592  17.720  26.750   8.210
 1775BOLB   C1C42593  17.860  26.240   8.310
 1775BOLB   C2C42594  17.590  25.980   8.420
 1775BOLB   C3C42595  17.440  25.910   8.780
 1775BOLB   C4C42596  17.190  25.790   9.130
 1775BOLB   C1D42597  17.440  26.560   8.570
 1775BOLB   C2D42598  17.090  26.400   8.700
 1775BOLB   C3D42599  16.820  26.080   8.740
 1775BOLB   C4D42600  16.550  25.810   8.560
 1776BOLB   NC142601  22.150  21.030  19.670
 1776BOLB   PO142602  22.240  20.790  19.990
 1776BOLB   GL142603  21.830  20.620  19.810
 1776BOLB   GL242604  22.000  20.590  19.450
 1776BOLB   C1A42605  21.390  20.790  19.690
 1776BOLB   C2A42606  20.960  20.740  19.700
 1776BOLB   C3A42607  20.610  20.920  19.660
 1776BOLB   C4A42608  20.470  21.330  19.590
 1776BOLB   C1B42609  21.590  20.700  19.240
 1776BOLB   C2B42610  21.430  20.800  18.780
 1776BOLB   C3B42611  21.220  20.910  18.450
 1776BOLB   C4B42612  20.940  20.890  18.160
 1776BOLB   NC242613  21.200  23.100  21.240
 1776BOLB   PO242614  21.110  22.750  21.310
 1776BOLB   GL342615  20.930  22.790  20.910
 1776BOLB   GL442616  20.630  22.810  20.990
 1776BOLB   C1C42617  20.790  22.550  20.590
 1776BOLB   C2C42618  20.670  22.170  20.300
 1776BOLB   C3C42619  20.500  22.030  19.860
 1776BOLB   C4C42620  20.700  21.660  19.710
 1776BOLB   C1D42621  20.230  22.640  20.830
 1776BOLB   C2D42622  20.290  22.420  20.510
 1776BOLB   C3D42623  20.020  22.140  20.390
 1776BOLB   C4D42624  19.840  21.920  20.270
 1777BOLB   NC142625  19.820  20.970   5.440
 1777BOLB   PO142626  19.720  21.020   5.890
 1777BOLB   GL142627  19.540  20.750   6.130
 1777BOLB   GL242628  19.700  20.510   6.270
 1777BOLB   C1A42629  19.210  20.620   6.460
 1777BOLB   C2A42630  18.940  20.940   6.640
 1777BOLB   C3A42631  18.600  21.150   7.010
 1777BOLB   C4A42632  18.520  21.260   7.420
 1777BOLB   C1B42633  19.610  20.210   6.590
 1777BOLB   C2B42634  19.620  20.330   7.090
 1777BOLB   C3B42635  19.720  19.980   7.380
 1777BOLB   C4B42636  19.690  20.100   7.820
 1777BOLB   NC242637  20.410  21.080   6.290
 1777BOLB   PO242638  20.610  21.540   6.400
 1777BOLB   GL342639  20.250  21.330   6.720
 1777BOLB   GL442640  20.090  20.940   6.630
 1777BOLB   C1C42641  19.890  21.510   6.950
 1777BOLB   C2C42642  19.480  21.470   7.220
 1777BOLB   C3C42643  19.270  21.310   7.600
 1777BOLB   C4C42644  18.800  21.380   7.620
 1777BOLB   C1D42645  19.960  21.040   7.010
 1777BOLB   C2D42646  19.730  21.100   7.410
 1777BOLB   C3D42647  19.710  21.370   7.740
 1777BOLB   C4D42648  19.530  21.480   8.100
 1778BOLB   NC142649  16.700  21.200   8.710
 1778BOLB   PO142650  16.430  21.550   8.540
 1778BOLB   GL142651  16.820  21.800   8.450
 1778BOLB   GL242652  17.130  21.920   8.480
 1778BOLB   C1A42653  16.860  22.060   8.090
 1778BOLB   C2A42654  17.140  22.150   7.720
 1778BOLB   C3A42655  17.460  22.320   7.410
 1778BOLB   C4A42656  17.750  22.640   7.160
 1778BOLB   C1B42657  17.360  22.270   8.460
 1778BOLB   C2B42658  17.510  22.650   8.200
 1778BOLB   C3B42659  17.710  22.940   8.120
 1778BOLB   C4B42660  17.570  23.280   7.920
 1778BOLB   NC242661  19.640  24.350   6.570
 1778BOLB   PO242662  19.420  24.360   6.940
 1778BOLB   GL342663  19.140  24.080   7.050
 1778BOLB   GL442664  19.280  23.770   6.950
 1778BOLB   C1C42665  18.700  24.040   7.010
 1778BOLB   C2C42666  18.440  23.720   6.930
 1778BOLB   C3C42667  18.140  23.340   7.040
 1778BOLB   C4C42668  18.050  22.930   6.990
 1778BOLB   C1D42669  18.920  23.640   7.230
 1778BOLB   C2D42670  18.560  23.400   7.440
 1778BOLB   C3D42671  18.530  23.500   7.900
 1778BOLB   C4D42672  18.490  23.130   8.190
 1779BOLB   NC142673  20.710  23.710  20.750
 1779BOLB   PO142674  20.820  23.280  20.830
 1779BOLB   GL142675  20.490  23.120  20.650
 1779BOLB   GL242676  20.330  23.390  20.670
 1779BOLB   C1A42677  20.140  22.860  20.400
 1779BOLB   C2A42678  19.860  22.690  20.090
 1779BOLB   C3A42679  19.820  22.300  19.930
 1779BOLB   C4A42680  20.030  22.010  19.650
 1779BOLB   C1B42681  20.230  23.350  20.220
 1779BOLB   C2B42682  19.990  23.320  19.820
 1779BOLB   C3B42683  19.740  23.160  19.480
 1779BOLB   C4B42684  19.350  22.910  19.420
 1779BOLB   NC242685  22.260  22.520  19.110
 1779BOLB   PO242686  22.030  22.800  18.890
 1779BOLB   GL342687  21.840  22.310  18.850
 1779BOLB   GL442688  21.780  22.330  18.540
 1779BOLB   C1C42689  21.400  22.360  18.910
 1779BOLB   C2C42690  21.180  22.170  19.270
 1779BOLB   C3C42691  20.770  22.010  19.380
 1779BOLB   C4C42692  20.320  21.890  19.330
 1779BOLB   C1D42693  21.370  22.260  18.400
 1779BOLB   C2D42694  20.950  22.180  18.220
 1779BOLB   C3D42695  20.760  21.860  18.040
 1779BOLB   C4D42696  20.340  21.710  18.150
 1780BOLB   NC142697  19.130  19.910  10.780
 1780BOLB   PO142698  19.100  20.380  10.780
 1780BOLB   GL142699  19.500  20.200  10.650
 1780BOLB   GL242700  19.640  19.920  10.790
 1780BOLB   C1A42701  19.880  20.110  10.320
 1780BOLB   C2A42702  19.900  19.840  10.010
 1780BOLB   C3A42703  20.200  19.970   9.690
 1780BOLB   C4A42704  20.570  20.120   9.540
 1780BOLB   C1B42705  20.120  20.070  10.750
 1780BOLB   C2B42706  20.380  20.400  10.940
 1780BOLB   C3B42707  20.720  20.750  10.850
 1780BOLB   C4B42708  20.870  21.070  10.620
 1780BOLB   NC242709  22.770  20.780   8.740
 1780BOLB   PO242710  22.480  20.640   8.410
 1780BOLB   GL342711  22.330  20.500   8.800
 1780BOLB   GL442712  22.170  20.130   8.720
 1780BOLB   C1C42713  21.910  20.490   8.950
 1780BOLB   C2C42714  21.570  20.440   9.170
 1780BOLB   C3C42715  21.140  20.140   9.210
 1780BOLB   C4C42716  20.920  19.960   9.430
 1780BOLB   C1D42717  22.030  20.040   9.090
 1780BOLB   C2D42718  22.090  19.710   9.410
 1780BOLB   C3D42719  22.010  19.240   9.360
 1780BOLB   C4D42720  22.130  18.960   9.220
 1781BOLB   NC142721  18.460  21.800  16.700
 1781BOLB   PO142722  18.880  21.970  16.700
 1781BOLB   GL142723  19.290  22.180  16.520
 1781BOLB   GL242724  19.360  22.540  16.520
 1781BOLB   C1A42725  19.670  22.200  16.780
 1781BOLB   C2A42726  19.890  22.220  17.190
 1781BOLB   C3A42727  20.350  22.090  17.490
 1781BOLB   C4A42728  20.670  21.950  17.490
 1781BOLB   C1B42729  19.730  22.770  16.580
 1781BOLB   C2B42730  20.040  23.090  16.780
 1781BOLB   C3B42731  20.400  22.960  16.860
 1781BOLB   C4B42732  20.860  22.820  17.010
 1781BOLB   NC242733  22.800  21.670  18.790
 1781BOLB   PO242734  22.550  22.030  18.840
 1781BOLB   GL342735  22.300  21.830  18.660
 1781BOLB   GL442736  22.360  21.550  18.550
 1781BOLB   C1C42737  21.820  21.740  18.640
 1781BOLB   C2C42738  21.550  21.780  18.350
 1781BOLB   C3C42739  21.260  21.780  17.940
 1781BOLB   C4C42740  21.040  21.740  17.610
 1781BOLB   C1D42741  22.170  21.510  18.960
 1781BOLB   C2D42742  21.760  21.340  18.980
 1781BOLB   C3D42743  21.360  21.390  18.830
 1781BOLB   C4D42744  21.010  21.250  18.770
 1782BOLB   NC142745  19.440  17.580  12.790
 1782BOLB   PO142746  19.350  17.220  12.730
 1782BOLB   GL142747  19.890  17.140  12.690
 1782BOLB   GL242748  20.000  17.240  12.890
 1782BOLB   C1A42749  20.000  16.770  12.620
 1782BOLB   C2A42750  20.350  16.470  12.900
 1782BOLB   C3A42751  20.820  16.360  13.020
 1782BOLB   C4A42752  21.270  16.180  13.140
 1782BOLB   C1B42753  20.430  17.160  12.690
 1782BOLB   C2B42754  20.870  17.090  12.510
 1782BOLB   C3B42755  21.120  16.820  12.280
 1782BOLB   C4B42756  21.470  16.820  12.070
 1782BOLB   NC242757  23.090  14.740  13.830
 1782BOLB   PO242758  23.220  14.870  14.280
 1782BOLB   GL342759  22.740  15.040  14.050
 1782BOLB   GL442760  22.620  14.820  13.790
 1782BOLB   C1C42761  22.590  15.360  13.800
 1782BOLB   C2C42762  22.250  15.520  13.700
 1782BOLB   C3C42763  21.920  15.810  13.610
 1782BOLB   C4C42764  21.730  16.170  13.280
 1782BOLB   C1D42765  22.420  15.030  13.500
 1782BOLB   C2D42766  21.970  15.100  13.560
 1782BOLB   C3D42767  21.620  15.380  13.590
 1782BOLB   C4D42768  21.430  15.730  13.410
 1783BOLB   NC142769  16.820  15.640   9.040
 1783BOLB   PO142770  16.530  15.620   8.720
 1783BOLB   GL142771  16.640  15.760   8.340
 1783BOLB   GL242772  16.690  16.030   8.200
 1783BOLB   C1A42773  16.440  15.630   7.970
 1783BOLB   C2A42774  16.450  15.370   7.580
 1783BOLB   C3A42775  16.510  14.990   7.220
 1783BOLB   C4A42776  16.810  14.640   7.110
 1783BOLB   C1B42777  16.870  15.880   7.890
 1783BOLB   C2B42778  16.950  15.590   7.740
 1783BOLB   C3B42779  16.970  15.280   7.320
 1783BOLB   C4B42780  17.240  15.160   7.040
 1783BOLB   NC242781  17.120  12.830   5.050
 1783BOLB   PO242782  16.780  13.010   5.060
 1783BOLB   GL342783  16.860  13.190   5.410
 1783BOLB   GL442784  17.030  12.960   5.790
 1783BOLB   C1C42785  16.840  13.510   5.660
 1783BOLB   C2C42786  16.790  13.880   5.990
 1783BOLB   C3C42787  16.820  13.980   6.400
 1783BOLB   C4C42788  16.850  14.290   6.790
 1783BOLB   C1D42789  16.580  13.160   5.840
 1783BOLB   C2D42790  16.430  13.500   6.090
 1783BOLB   C3D42791  16.250  13.900   6.240
 1783BOLB   C4D42792  16.350  14.220   6.460
 1784BOLB   NC142793  12.360  10.870  15.220
 1784BOLB   PO142794  12.090  10.730  15.570
 1784BOLB   GL142795  12.150  10.330  15.560
 1784BOLB   GL242796  12.050  10.220  15.190
 1784BOLB   C1A42797  12.110   9.800  15.600
 1784BOLB   C2A42798  12.150   9.390  15.780
 1784BOLB   C3A42799  12.350   9.040  15.930
 1784BOLB   C4A42800  12.240   8.600  16.170
 1784BOLB   C1B42801  12.080   9.810  15.130
 1784BOLB   C2B42802  11.890   9.490  15.210
 1784BOLB   C3B42803  12.040   9.020  15.230
 1784BOLB   C4B42804  12.100   8.860  14.870
 1784BOLB   NC242805  11.720   6.310  15.440
 1784BOLB   PO242806  11.710   6.380  15.940
 1784BOLB   GL342807  11.760   6.680  15.860
 1784BOLB   GL442808  11.900   6.780  15.640
 1784BOLB   C1C42809  11.930   7.030  16.060
 1784BOLB   C2C42810  12.070   7.360  16.350
 1784BOLB   C3C42811  12.080   7.780  16.390
 1784BOLB   C4C42812  12.120   8.130  16.110
 1784BOLB   C1D42813  11.810   7.140  15.490
 1784BOLB   C2D42814  11.530   7.470  15.350
 1784BOLB   C3D42815  11.600   7.900  15.160
 1784BOLB   C4D42816  11.390   8.250  15.090
 1785BOLB   NC142817  19.230  21.680   5.410
 1785BOLB   PO142818  19.400  21.230   5.510
 1785BOLB   GL142819  19.050  21.150   5.840
 1785BOLB   GL242820  19.190  21.150   6.070
 1785BOLB   C1A42821  18.710  21.010   6.070
 1785BOLB   C2A42822  18.460  21.070   6.370
 1785BOLB   C3A42823  18.290  20.820   6.570
 1785BOLB   C4A42824  18.240  20.420   6.480
 1785BOLB   C1B42825  19.000  21.370   6.420
 1785BOLB   C2B42826  18.880  21.690   6.690
 1785BOLB   C3B42827  18.680  22.020   6.760
 1785BOLB   C4B42828  18.720  22.420   7.080
 1785BOLB   NC242829  19.650  19.780   5.540
 1785BOLB   PO242830  19.580  19.420   5.830
 1785BOLB   GL342831  19.230  19.260   5.670
 1785BOLB   GL442832  19.210  19.530   5.420
 1785BOLB   C1C42833  18.810  19.210   5.750
 1785BOLB   C2C42834  18.520  19.330   6.120
 1785BOLB   C3C42835  18.360  19.760   6.060
 1785BOLB   C4C42836  18.440  20.140   6.160
 1785BOLB   C1D42837  18.960  19.840   5.540
 1785BOLB   C2D42838  18.650  20.170   5.670
 1785BOLB   C3D42839  18.440  20.630   5.770
 1785BOLB   C4D42840  18.220  20.850   5.480
 1786BOLB   NC142841  15.090  25.280  12.340
 1786BOLB   PO142842  15.220  25.480  12.010
 1786BOLB   GL142843  15.430  25.810  11.800
 1786BOLB   GL242844  15.180  26.050  11.670
 1786BOLB   C1A42845  15.680  26.190  11.500
 1786BOLB   C2A42846  15.790  26.370  11.090
 1786BOLB   C3A42847  16.200  26.480  10.800
 1786BOLB   C4A42848  16.410  26.590  10.390
 1786BOLB   C1B42849  15.280  26.470  11.580
 1786BOLB   C2B42850  15.710  26.660  11.550
 1786BOLB   C3B42851  15.980  26.880  11.310
 1786BOLB   C4B42852  15.950  27.300  11.100
 1786BOLB   NC242853  17.540  27.380   8.630
 1786BOLB   PO242854  18.010  27.230   8.400
 1786BOLB   GL342855  17.910  27.010   8.800
 1786BOLB   GL442856  18.120  26.820   8.990
 1786BOLB   C1C42857  17.600  26.980   9.060
 1786BOLB   C2C42858  17.340  26.770   9.460
 1786BOLB   C3C42859  17.100  26.770   9.900
 1786BOLB   C4C42860  16.770  26.620  10.120
 1786BOLB   C1D42861  17.790  26.540   9.110
 1786BOLB   C2D42862  17.370  26.270   9.150
 1786BOLB   C3D42863  17.030  26.260   9.250
 1786BOLB   C4D42864  16.720  26.490   9.000
 1787BOLB   NC142865  22.440  17.500  20.290
 1787BOLB   PO142866  22.560  17.670  19.870
 1787BOLB   GL142867  22.310  17.920  19.550
 1787BOLB   GL242868  22.340  18.320  19.650
 1787BOLB   C1A42869  21.890  17.940  19.590
 1787BOLB   C2A42870  21.490  17.940  19.400
 1787BOLB   C3A42871  21.110  18.140  19.310
 1787BOLB   C4A42872  20.690  18.140  19.340
 1787BOLB   C1B42873  22.000  18.410  19.420
 1787BOLB   C2B42874  21.500  18.470  19.440
 1787BOLB   C3B42875  20.990  18.570  19.560
 1787BOLB   C4B42876  20.600  18.500  19.630
 1787BOLB   NC242877  18.530  18.080  18.180
 1787BOLB   PO242878  18.430  17.650  18.190
 1787BOLB   GL342879  18.880  17.730  18.270
 1787BOLB   GL442880  19.110  17.480  18.170
 1787BOLB   C1C42881  19.260  17.750  18.550
 1787BOLB   C2C42882  19.590  17.540  18.890
 1787BOLB   C3C42883  19.970  17.700  19.180
 1787BOLB   C4C42884  20.290  17.990  19.200
 1787BOLB   C1D42885  19.450  17.250  18.480
 1787BOLB   C2D42886  19.600  17.010  18.850
 1787BOLB   C3D42887  19.720  16.640  19.140
 1787BOLB   C4D42888  20.060  16.610  19.460
 1788BOLB   NC142889  13.390  22.790   3.440
 1788BOLB   PO142890  13.310  23.090   3.730
 1788BOLB   GL142891  13.100  23.100   4.050
 1788BOLB   GL242892  12.850  23.400   4.090
 1788BOLB   C1A42893  13.050  22.800   4.320
 1788BOLB   C2A42894  13.130  22.730   4.760
 1788BOLB   C3A42895  13.360  22.890   5.120
 1788BOLB   C4A42896  13.360  23.260   5.330
 1788BOLB   C1B42897  12.780  23.250   4.390
 1788BOLB   C2B42898  12.920  23.180   4.840
 1788BOLB   C3B42899  12.880  23.040   5.250
 1788BOLB   C4B42900  13.030  22.620   5.340
 1788BOLB   NC242901  13.670  24.810   3.710
 1788BOLB   PO242902  13.270  24.640   3.910
 1788BOLB   GL342903  13.560  24.490   4.270
 1788BOLB   GL442904  13.440  24.550   4.520
 1788BOLB   C1C42905  13.550  24.040   4.470
 1788BOLB   C2C42906  13.390  24.070   4.780
 1788BOLB   C3C42907  13.210  24.020   5.090
 1788BOLB   C4C42908  13.170  23.660   5.350
 1788BOLB   C1D42909  12.940  24.370   4.780
 1788BOLB   C2D42910  12.690  24.120   5.010
 1788BOLB   C3D42911  12.600  23.800   5.190
 1788BOLB   C4D42912  12.690  23.670   5.640
 1789BOLB   NC142913  14.650  24.830   9.600
 1789BOLB   PO142914  14.890  24.950   9.940
 1789BOLB   GL142915  15.130  25.060   9.540
 1789BOLB   GL242916  15.410  24.910   9.560
 1789BOLB   C1A42917  14.920  25.320   9.280
 1789BOLB   C2A42918  14.860  25.630   8.940
 1789BOLB   C3A42919  14.900  26.080   9.030
 1789BOLB   C4A42920  14.850  26.510   8.960
 1789BOLB   C1B42921  15.530  25.280   9.210
 1789BOLB   C2B42922  15.840  25.560   9.130
 1789BOLB   C3B42923  16.340  25.680   9.060
 1789BOLB   C4B42924  16.620  26.040   9.160
 1789BOLB   NC242925  15.870  27.140   6.660
 1789BOLB   PO242926  15.940  27.490   6.980
 1789BOLB   GL342927  15.540  27.250   7.210
 1789BOLB   GL442928  15.170  27.280   7.290
 1789BOLB   C1C42929  15.550  27.070   7.650
 1789BOLB   C2C42930  15.460  26.980   8.060
 1789BOLB   C3C42931  15.210  26.790   8.410
 1789BOLB   C4C42932  15.080  26.690   8.680
 1789BOLB   C1D42933  15.010  27.150   7.720
 1789BOLB   C2D42934  14.790  27.000   8.120
 1789BOLB   C3D42935  14.580  26.720   8.480
 1789BOLB   C4D42936  14.240  26.410   8.570
 1790BOLB   NC142937  17.720  16.730  10.590
 1790BOLB   PO142938  18.030  16.580  10.310
 1790BOLB   GL142939  18.450  16.620  10.160
 1790BOLB   GL242940  18.630  16.910  10.090
 1790BOLB   C1A42941  18.860  16.350  10.070
 1790BOLB   C2A42942  19.180  16.050   9.870
 1790BOLB   C3A42943  19.630  16.010   9.830
 1790BOLB   C4A42944  20.080  16.150   9.740
 1790BOLB   C1B42945  19.040  16.910   9.850
 1790BOLB   C2B42946  19.260  16.820   9.420
 1790BOLB   C3B42947  19.450  16.980   8.980
 1790BOLB   C4B42948  19.540  16.950   8.550
 1790BOLB   NC242949  22.330  15.960   8.930
 1790BOLB   PO242950  22.330  16.460   8.800
 1790BOLB   GL342951  21.870  16.490   8.800
 1790BOLB   GL442952  21.780  16.760   8.640
 1790BOLB   C1C42953  21.400  16.430   8.850
 1790BOLB   C2C42954  21.110  16.090   9.030
 1790BOLB   C3C42955  20.860  16.040   9.390
 1790BOLB   C4C42956  20.530  16.220   9.610
 1790BOLB   C1D42957  21.690  17.060   8.980
 1790BOLB   C2D42958  21.510  17.140   9.490
 1790BOLB   C3D42959  21.270  16.960   9.830
 1790BOLB   C4D42960  21.150  16.800  10.180
 1791BOLB   NC142961  12.540  27.250  13.810
 1791BOLB   PO142962  12.570  27.410  13.380
 1791BOLB   GL142963  12.600  27.860  13.740
 1791BOLB   GL242964  12.850  27.890  14.030
 1791BOLB   C1A42965  12.570  28.300  13.680
 1791BOLB   C2A42966  12.690  28.650  13.410
 1791BOLB   C3A42967  12.700  28.970  13.160
 1791BOLB   C4A42968  12.600  29.180  12.690
 1791BOLB   C1B42969  12.900  28.400  14.060
 1791BOLB   C2B42970  12.780  28.720  13.910
 1791BOLB   C3B42971  12.840  29.150  14.010
 1791BOLB   C4B42972  12.780  29.580  14.310
 1791BOLB   NC242973  12.940  31.430  12.810
 1791BOLB   PO242974  13.250  31.510  13.070
 1791BOLB   GL342975  13.240  31.140  13.100
 1791BOLB   GL442976  13.540  30.950  13.060
 1791BOLB   C1C42977  13.030  30.770  12.960
 1791BOLB   C2C42978  12.820  30.390  13.020
 1791BOLB   C3C42979  12.860  29.980  12.870
 1791BOLB   C4C42980  12.800  29.640  12.550
 1791BOLB   C1D42981  13.650  30.550  13.100
 1791BOLB   C2D42982  13.660  30.180  13.210
 1791BOLB   C3D42983  13.700  29.780  13.240
 1791BOLB   C4D42984  13.790  29.470  13.520
 1792BOLB   NC142985  15.060  13.630   9.950
 1792BOLB   PO142986  15.060  13.610   9.350
 1792BOLB   GL142987  15.220  13.350   9.110
 1792BOLB   GL242988  15.240  13.020   9.270
 1792BOLB   C1A42989  15.480  13.260   8.750
 1792BOLB   C2A42990  15.820  13.080   8.630
 1792BOLB   C3A42991  16.110  12.720   8.550
 1792BOLB   C4A42992  16.480  12.580   8.540
 1792BOLB   C1B42993  15.440  12.720   9.120
 1792BOLB   C2B42994  15.310  12.420   8.890
 1792BOLB   C3B42995  15.250  12.110   8.580
 1792BOLB   C4B42996  15.400  11.780   8.290
 1792BOLB   NC242997  17.440  11.330   7.030
 1792BOLB   PO242998  17.610  11.700   7.010
 1792BOLB   GL342999  17.520  11.800   7.380
 1792BOLB   GL443000  17.750  11.860   7.600
 1792BOLB   C1C43001  17.220  11.780   7.700
 1792BOLB   C2C43002  16.930  11.980   7.770
 1792BOLB   C3C43003  16.820  12.080   8.120
 1792BOLB   C4C43004  16.740  12.310   8.440
 1792BOLB   C1D43005  17.940  12.330   7.480
 1792BOLB   C2D43006  17.600  12.650   7.260
 1792BOLB   C3D43007  17.330  12.940   7.240
 1792BOLB   C4D43008  16.960  12.950   7.100
 1793BOLB   NC143009  18.520  19.860  17.350
 1793BOLB   PO143010  18.760  19.610  17.500
 1793BOLB   GL143011  19.200  19.660  17.570
 1793BOLB   GL243012  19.320  19.470  17.360
 1793BOLB   C1A43013  19.570  19.910  17.650
 1793BOLB   C2A43014  19.890  20.150  17.930
 1793BOLB   C3A43015  20.240  20.300  18.180
 1793BOLB   C4A43016  20.560  20.510  18.080
 1793BOLB   C1B43017  19.890  19.420  17.560
 1793BOLB   C2B43018  20.270  19.710  17.700
 1793BOLB   C3B43019  20.630  19.970  17.880
 1793BOLB   C4B43020  20.960  20.010  17.830
 1793BOLB   NC243021  22.670  20.830  19.780
 1793BOLB   PO243022  22.470  20.750  19.430
 1793BOLB   GL343023  22.360  20.520  19.100
 1793BOLB   GL443024  22.580  20.390  18.910
 1793BOLB   C1C43025  22.010  20.460  18.740
 1793BOLB   C2C43026  21.710  20.240  18.580
 1793BOLB   C3C43027  21.420  20.340  18.340
 1793BOLB   C4C43028  21.020  20.370  18.170
 1793BOLB   C1D43029  22.390  20.200  18.540
 1793BOLB   C2D43030  22.080  19.900  18.320
 1793BOLB   C3D43031  21.710  20.110  18.060
 1793BOLB   C4D43032  21.460  20.260  17.740
 1794BOLB   NC143033  16.440  25.340  13.670
 1794BOLB   PO143034  16.460  25.570  14.050
 1794BOLB   GL143035  16.640  25.960  13.930
 1794BOLB   GL243036  16.980  25.960  13.890
 1794BOLB   C1A43037  16.690  26.400  14.040
 1794BOLB   C2A43038  16.820  26.770  14.320
 1794BOLB   C3A43039  16.700  27.180  14.270
 1794BOLB   C4A43040  16.770  27.610  14.170
 1794BOLB   C1B43041  17.230  26.320  13.870
 1794BOLB   C2B43042  17.270  26.700  13.860
 1794BOLB   C3B43043  17.440  27.090  13.850
 1794BOLB   C4B43044  17.450  27.570  13.690
 1794BOLB   NC243045  18.660  29.120  13.970
 1794BOLB   PO243046  18.800  29.020  13.480
 1794BOLB   GL343047  18.440  28.640  13.550
 1794BOLB   GL443048  18.510  28.640  13.890
 1794BOLB   C1C43049  18.080  28.470  13.760
 1794BOLB   C2C43050  17.740  28.230  14.030
 1794BOLB   C3C43051  17.480  27.890  14.040
 1794BOLB   C4C43052  17.080  27.610  14.020
 1794BOLB   C1D43053  18.250  28.400  14.320
 1794BOLB   C2D43054  17.980  28.100  14.410
 1794BOLB   C3D43055  17.800  27.710  14.490
 1794BOLB   C4D43056  17.550  27.410  14.230
 1795BOLB   NC143057  19.020  21.630  12.800
 1795BOLB   PO143058  19.310  21.850  13.010
 1795BOLB   GL143059  19.550  22.100  13.190
 1795BOLB   GL243060  19.660  22.410  13.030
 1795BOLB   C1A43061  19.940  22.220  13.380
 1795BOLB   C2A43062  20.340  22.460  13.240
 1795BOLB   C3A43063  20.550  22.720  12.880
 1795BOLB   C4A43064  20.850  22.610  12.560
 1795BOLB   C1B43065  20.070  22.340  12.860
 1795BOLB   C2B43066  20.490  22.180  12.770
 1795BOLB   C3B43067  20.780  22.140  12.390
 1795BOLB   C4B43068  21.060  22.080  12.130
 1795BOLB   NC243069  19.450  21.600  12.440
 1795BOLB   PO243070  19.080  21.810  12.320
 1795BOLB   GL343071  19.460  22.040  12.110
 1795BOLB   GL443072  19.560  22.350  12.160
 1795BOLB   C1C43073  19.840  21.940  11.870
 1795BOLB   C2C43074  20.230  22.010  11.760
 1795BOLB   C3C43075  20.540  22.250  11.990
 1795BOLB   C4C43076  20.780  22.670  12.170
 1795BOLB   C1D43077  19.720  22.400  11.820
 1795BOLB   C2D43078  20.110  22.570  11.610
 1795BOLB   C3D43079  20.470  22.800  11.770
 1795BOLB   C4D43080  20.790  22.990  11.650
 1796BOLB   NC143081  22.430  15.500   9.120
 1796BOLB   PO143082  22.530  15.820   9.440
 1796BOLB   GL143083  22.320  16.250   9.420
 1796BOLB   GL243084  22.300  16.550   9.290
 1796BOLB   C1A43085  21.800  16.270   9.250
 1796BOLB   C2A43086  21.470  16.630   9.330
 1796BOLB   C3A43087  21.080  16.910   9.430
 1796BOLB   C4A43088  20.900  17.210   9.160
 1796BOLB   C1B43089  22.060  16.870   9.350
 1796BOLB   C2B43090  22.000  17.320   9.340
 1796BOLB   C3B43091  22.030  17.730   9.340
 1796BOLB   C4B43092  21.800  18.120   9.210
 1796BOLB   NC243093  22.200  18.540   8.170
 1796BOLB   PO243094  21.940  18.820   7.970
 1796BOLB   GL343095  21.630  18.540   8.070
 1796BOLB   GL443096  21.640  18.720   8.370
 1796BOLB   C1C43097  21.310  18.350   8.330
 1796BOLB   C2C43098  21.030  18.060   8.470
 1796BOLB   C3C43099  20.770  17.700   8.520
 1796BOLB   C4C43100  20.820  17.430   8.750
 1796BOLB   C1D43101  21.290  18.840   8.650
 1796BOLB   C2D43102  20.830  18.790   8.830
 1796BOLB   C3D43103  20.670  18.610   9.200
 1796BOLB   C4D43104  20.610  18.150   9.310
 1797BOLB   NC143105  13.890  27.160  16.430
 1797BOLB   PO143106  14.150  27.510  16.340
 1797BOLB   GL143107  14.460  27.860  16.440
 1797BOLB   GL243108  14.570  28.130  16.170
 1797BOLB   C1A43109  14.920  27.930  16.550
 1797BOLB   C2A43110  15.060  28.310  16.710
 1797BOLB   C3A43111  14.990  28.680  16.770
 1797BOLB   C4A43112  15.080  29.080  16.920
 1797BOLB   C1B43113  14.320  28.510  16.160
 1797BOLB   C2B43114  14.230  28.980  16.010
 1797BOLB   C3B43115  14.050  29.400  15.980
 1797BOLB   C4B43116  13.760  29.710  15.850
 1797BOLB   NC243117  16.210  30.480  17.880
 1797BOLB   PO243118  15.940  30.820  18.120
 1797BOLB   GL343119  15.670  30.480  17.880
 1797BOLB   GL443120  15.370  30.430  18.020
 1797BOLB   C1C43121  15.520  30.260  17.500
 1797BOLB   C2C43122  15.230  30.230  17.210
 1797BOLB   C3C43123  15.020  29.920  17.000
 1797BOLB   C4C43124  14.990  29.450  17.120
 1797BOLB   C1D43125  15.390  29.990  18.200
 1797BOLB   C2D43126  15.080  29.590  18.090
 1797BOLB   C3D43127  15.000  29.110  17.940
 1797BOLB   C4D43128  14.870  28.580  17.870
 1798BOLB   NC143129  17.660  20.270   9.160
 1798BOLB   PO143130  17.980  20.400   9.350
 1798BOLB   GL143131  18.320  20.670   9.130
 1798BOLB   GL243132  18.470  20.950   9.080
 1798BOLB   C1A43133  18.720  20.690   8.820
 1798BOLB   C2A43134  18.930  20.380   8.570
 1798BOLB   C3A43135  19.360  20.070   8.460
 1798BOLB   C4A43136  19.700  20.090   8.440
 1798BOLB   C1B43137  18.350  21.020   8.670
 1798BOLB   C2B43138  18.220  20.990   8.230
 1798BOLB   C3B43139  18.120  21.210   7.760
 1798BOLB   C4B43140  18.020  21.050   7.350
 1798BOLB   NC243141  20.890  19.920   6.150
 1798BOLB   PO243142  20.530  19.650   6.330
 1798BOLB   GL343143  20.210  19.670   6.480
 1798BOLB   GL443144  19.960  19.910   6.490
 1798BOLB   C1C43145  20.010  19.470   6.840
 1798BOLB   C2C43146  19.890  19.520   7.300
 1798BOLB   C3C43147  19.820  19.630   7.750
 1798BOLB   C4C43148  19.870  19.870   8.220
 1798BOLB   C1D43149  19.660  19.800   6.820
 1798BOLB   C2D43150  19.280  19.890   7.090
 1798BOLB   C3D43151  19.010  20.000   7.460
 1798BOLB   C4D43152  18.790  20.400   7.580
 1799BOLB   NC143153  13.080  21.110   7.210
 1799BOLB   PO143154  12.970  20.660   7.070
 1799BOLB   GL143155  12.890  20.770   6.620
 1799BOLB   GL243156  12.540  20.680   6.490
 1799BOLB   C1A43157  12.840  21.200   6.460
 1799BOLB   C2A43158  12.580  21.410   6.110
 1799BOLB   C3A43159  12.570  21.570   5.720
 1799BOLB   C4A43160  12.870  21.890   5.570
 1799BOLB   C1B43161  12.650  20.870   6.140
 1799BOLB   C2B43162  12.690  20.940   5.670
 1799BOLB   C3B43163  12.770  21.250   5.330
 1799BOLB   C4B43164  12.720  21.360   4.890
 1799BOLB   NC243165  12.290  23.300   3.460
 1799BOLB   PO243166  12.520  23.530   3.730
 1799BOLB   GL343167  12.420  23.170   3.930
 1799BOLB   GL443168  12.310  23.270   4.200
 1799BOLB   C1C43169  12.620  22.820   4.150
 1799BOLB   C2C43170  12.760  22.460   4.440
 1799BOLB   C3C43171  12.790  22.320   4.860
 1799BOLB   C4C43172  12.910  22.150   5.240
 1799BOLB   C1D43173  12.350  22.980   4.590
 1799BOLB   C2D43174  12.540  22.760   4.870
 1799BOLB   C3D43175  12.550  22.620   5.270
 1799BOLB   C4D43176  12.500  22.750   5.640
 1800BOLB   NC143177  19.980  18.850  11.540
 1800BOLB   PO143178  19.660  19.280  11.370
 1800BOLB   GL143179  19.750  19.390  11.010
 1800BOLB   GL243180  19.970  19.210  10.780
 1800BOLB   C1A43181  20.060  19.730  11.020
 1800BOLB   C2A43182  20.400  19.780  11.310
 1800BOLB   C3A43183  20.650  19.610  11.680
 1800BOLB   C4A43184  20.980  19.470  11.730
 1800BOLB   C1B43185  20.310  18.900  10.600
 1800BOLB   C2B43186  20.600  18.710  10.310
 1800BOLB   C3B43187  20.980  18.540  10.390
 1800BOLB   C4B43188  21.330  18.240  10.400
 1800BOLB   NC243189  23.700  18.590  10.630
 1800BOLB   PO243190  23.450  18.790  10.880
 1800BOLB   GL343191  22.980  19.080  10.750
 1800BOLB   GL443192  22.740  19.120  10.520
 1800BOLB   C1C43193  22.760  19.480  10.940
 1800BOLB   C2C43194  22.280  19.650  11.190
 1800BOLB   C3C43195  21.910  19.550  11.310
 1800BOLB   C4C43196  21.500  19.400  11.610
 1800BOLB   C1D43197  22.390  19.220  10.740
 1800BOLB   C2D43198  22.140  18.900  10.730
 1800BOLB   C3D43199  21.680  18.690  10.610
 1800BOLB   C4D43200  21.270  18.730  10.730
 1801BOLB   NC143201  18.910  18.950  10.050
 1801BOLB   PO143202  19.130  19.260  10.370
 1801BOLB   GL143203  19.490  19.050  10.110
 1801BOLB   GL243204  19.740  19.200  10.270
 1801BOLB   C1A43205  19.760  18.890   9.850
 1801BOLB   C2A43206  19.850  19.000   9.520
 1801BOLB   C3A43207  19.920  18.830   9.250
 1801BOLB   C4A43208  20.240  18.660   8.920
 1801BOLB   C1B43209  19.940  19.300   9.990
 1801BOLB   C2B43210  20.330  19.520   9.830
 1801BOLB   C3B43211  20.690  19.660   9.820
 1801BOLB   C4B43212  20.810  20.000  10.050
 1801BOLB   NC243213  21.870  18.290   7.050
 1801BOLB   PO243214  21.850  17.930   7.280
 1801BOLB   GL343215  21.480  18.060   7.460
 1801BOLB   GL443216  21.420  18.370   7.270
 1801BOLB   C1C43217  21.250  18.190   7.870
 1801BOLB   C2C43218  20.840  18.360   7.960
 1801BOLB   C3C43219  20.520  18.560   8.080
 1801BOLB   C4C43220  20.460  18.680   8.500
 1801BOLB   C1D43221  21.360  18.680   7.640
 1801BOLB   C2D43222  21.190  18.760   7.960
 1801BOLB   C3D43223  20.930  18.830   8.300
 1801BOLB   C4D43224  20.660  19.170   8.510
 1802BOLB   NC143225  11.380  20.360   6.970
 1802BOLB   PO143226  11.050  20.670   6.820
 1802BOLB   GL143227  10.970  20.820   6.540
 1802BOLB   GL243228  10.800  21.080   6.380
 1802BOLB   C1A43229  10.820  20.660   6.050
 1802BOLB   C2A43230  10.820  20.450   5.670
 1802BOLB   C3A43231  10.930  20.690   5.250
 1802BOLB   C4A43232  11.050  20.800   4.780
 1802BOLB   C1B43233  10.680  21.140   6.180
 1802BOLB   C2B43234  10.610  21.480   5.910
 1802BOLB   C3B43235  10.700  21.690   5.510
 1802BOLB   C4B43236  10.900  21.910   5.160
 1802BOLB   NC243237  10.140  20.530   2.510
 1802BOLB   PO243238  10.280  20.140   2.620
 1802BOLB   GL343239  10.650  20.130   2.930
 1802BOLB   GL443240  10.920  19.790   2.880
 1802BOLB   C1C43241  10.710  20.240   3.330
 1802BOLB   C2C43242  10.780  20.450   3.730
 1802BOLB   C3C43243  10.940  20.740   3.980
 1802BOLB   C4C43244  11.140  20.810   4.370
 1802BOLB   C1D43245  10.760  19.720   3.310
 1802BOLB   C2D43246  10.630  19.880   3.770
 1802BOLB   C3D43247  10.560  19.720   4.070
 1802BOLB   C4D43248  10.460  19.540   4.550
 1803BOLB   NC143249  11.980  19.540  21.800
 1803BOLB   PO143250  12.160  19.880  21.930
 1803BOLB   GL143251  12.320  19.980  21.570
 1803BOLB   GL243252  12.450  19.620  21.400
 1803BOLB   C1A43253  12.290  20.050  21.170
 1803BOLB   C2A43254  12.060  20.120  20.690
 1803BOLB   C3A43255  11.880  20.580  20.660
 1803BOLB   C4A43256  11.460  20.710  20.570
 1803BOLB   C1B43257  12.140  19.390  21.150
 1803BOLB   C2B43258  12.170  19.220  20.670
 1803BOLB   C3B43259  12.400  19.220  20.360
 1803BOLB   C4B43260  12.530  19.080  19.860
 1803BOLB   NC243261   9.530  20.530  21.400
 1803BOLB   PO243262  10.020  20.370  21.680
 1803BOLB   GL343263   9.900  20.170  21.270
 1803BOLB   GL443264   9.900  19.890  21.130
 1803BOLB   C1C43265   9.940  20.440  20.890
 1803BOLB   C2C43266  10.390  20.430  20.800
 1803BOLB   C3C43267  10.770  20.520  20.830
 1803BOLB   C4C43268  11.150  20.590  20.920
 1803BOLB   C1D43269  10.130  19.840  20.630
 1803BOLB   C2D43270  10.270  20.100  20.260
 1803BOLB   C3D43271  10.330  20.210  19.840
 1803BOLB   C4D43272  10.270  20.230  19.350
 1804BOLB   NC143273  17.280  29.810  18.080
 1804BOLB   PO143274  17.080  29.990  17.780
 1804BOLB   GL143275  16.820  29.650  17.640
 1804BOLB   GL243276  16.670  29.520  17.840
 1804BOLB   C1A43277  16.660  29.170  17.570
 1804BOLB   C2A43278  16.330  29.090  17.430
 1804BOLB   C3A43279  16.150  28.940  17.100
 1804BOLB   C4A43280  15.640  29.050  17.020
 1804BOLB   C1B43281  16.250  29.400  17.820
 1804BOLB   C2B43282  16.070  29.200  17.880
 1804BOLB   C3B43283  16.030  28.720  17.970
 1804BOLB   C4B43284  15.940  28.310  18.170
 1804BOLB   NC243285  14.800  31.090  18.850
 1804BOLB   PO243286  14.770  31.000  18.350
 1804BOLB   GL343287  14.650  30.610  18.110
 1804BOLB   GL443288  14.440  30.480  18.030
 1804BOLB   C1C43289  14.870  30.220  18.020
 1804BOLB   C2C43290  15.060  29.960  17.720
 1804BOLB   C3C43291  15.300  29.790  17.410
 1804BOLB   C4C43292  15.510  29.460  17.030
 1804BOLB   C1D43293  14.480  30.160  17.710
 1804BOLB   C2D43294  14.560  29.680  17.620
 1804BOLB   C3D43295  14.660  29.440  17.890
 1804BOLB   C4D43296  14.630  29.250  18.300
 1805BOLB   NC143297  18.590  22.400  17.530
 1805BOLB   PO143298  18.710  22.220  17.130
 1805BOLB   GL143299  19.160  22.310  17.020
 1805BOLB   GL243300  19.330  21.950  17.020
 1805BOLB   C1A43301  19.540  22.640  17.020
 1805BOLB   C2A43302  19.910  22.760  17.100
 1805BOLB   C3A43303  20.100  23.020  17.360
 1805BOLB   C4A43304  20.220  23.430  17.360
 1805BOLB   C1B43305  19.760  21.770  17.150
 1805BOLB   C2B43306  20.130  21.510  17.090
 1805BOLB   C3B43307  20.530  21.550  17.250
 1805BOLB   C4B43308  20.870  21.360  17.310
 1805BOLB   NC243309  22.240  24.250  18.070
 1805BOLB   PO243310  22.300  24.550  17.730
 1805BOLB   GL343311  21.910  24.370  17.600
 1805BOLB   GL443312  21.950  24.690  17.330
 1805BOLB   C1C43313  21.580  24.280  17.860
 1805BOLB   C2C43314  21.070  24.170  17.900
 1805BOLB   C3C43315  20.740  23.970  17.740
 1805BOLB   C4C43316  20.420  23.780  17.470
 1805BOLB   C1D43317  21.710  24.370  17.150
 1805BOLB   C2D43318  21.440  24.130  16.990
 1805BOLB   C3D43319  21.350  23.670  17.120
 1805BOLB   C4D43320  21.620  23.350  17.400
 1806BOLB   NC143321  18.840  16.440   5.330
 1806BOLB   PO143322  18.760  15.960   5.430
 1806BOLB   GL143323  18.640  16.070   5.830
 1806BOLB   GL243324  18.800  16.410   5.830
 1806BOLB   C1A43325  18.360  15.790   6.010
 1806BOLB   C2A43326  18.370  15.850   6.510
 1806BOLB   C3A43327  18.200  15.780   6.910
 1806BOLB   C4A43328  18.060  15.700   7.170
 1806BOLB   C1B43329  19.030  16.020   6.030
 1806BOLB   C2B43330  19.080  15.760   6.340
 1806BOLB   C3B43331  19.190  15.520   6.720
 1806BOLB   C4B43332  18.850  15.200   6.860
 1806BOLB   NC243333  18.230  14.120   5.450
 1806BOLB   PO243334  18.450  14.470   5.660
 1806BOLB   GL343335  18.190  14.710   5.860
 1806BOLB   GL443336  18.150  14.490   6.150
 1806BOLB   C1C43337  17.900  14.890   6.130
 1806BOLB   C2C43338  17.710  14.920   6.540
 1806BOLB   C3C43339  17.730  15.020   6.970
 1806BOLB   C4C43340  18.070  15.340   7.280
 1806BOLB   C1D43341  17.800  14.470   6.350
 1806BOLB   C2D43342  17.690  14.500   6.830
 1806BOLB   C3D43343  17.890  14.520   7.120
 1806BOLB   C4D43344  18.080  14.810   7.220
 1807BOLB   NC143345  15.320  24.810  10.040
 1807BOLB   PO143346  15.620  24.690  10.310
 1807BOLB   GL143347  15.750  25.040  10.310
 1807BOLB   GL243348  15.560  25.240  10.090
 1807BOLB   C1A43349  16.080  25.260  10.140
 1807BOLB   C2A43350  16.410  25.430   9.950
 1807BOLB   C3A43351  16.700  25.700  10.160
 1807BOLB   C4A43352  17.000  25.650  10.270
 1807BOLB   C1B43353  15.450  25.770  10.190
 1807BOLB   C2B43354  15.460  26.220  10.150
 1807BOLB   C3B43355  15.390  26.720  10.130
 1807BOLB   C4B43356  15.430  27.130  10.210
 1807BOLB   NC243357  19.020  26.530   9.030
 1807BOLB   PO243358  18.690  26.510   8.700
 1807BOLB   GL343359  18.570  26.320   8.980
 1807BOLB   GL443360  18.260  26.330   9.000
 1807BOLB   C1C43361  18.480  26.050   9.340
 1807BOLB   C2C43362  18.190  25.880   9.670
 1807BOLB   C3C43363  17.880  25.800  10.020
 1807BOLB   C4C43364  17.430  25.830  10.210
 1807BOLB   C1D43365  18.020  25.930   8.850
 1807BOLB   C2D43366  17.860  25.620   8.580
 1807BOLB   C3D43367  17.760  25.570   8.110
 1807BOLB   C4D43368  17.590  25.150   8.000
 1808BOLB   NC143369  15.150  21.650   7.760
 1808BOLB   PO143370  15.100  21.950   7.940
 1808BOLB   GL143371  15.480  22.140   7.760
 1808BOLB   GL243372  15.740  22.230   7.950
 1808BOLB   C1A43373  15.680  22.110   7.310
 1808BOLB   C2A43374  15.830  22.420   7.060
 1808BOLB   C3A43375  15.810  22.680   6.780
 1808BOLB   C4A43376  16.130  22.820   6.450
 1808BOLB   C1B43377  16.010  22.340   7.670
 1808BOLB   C2B43378  16.290  22.550   7.370
 1808BOLB   C3B43379  16.540  22.700   7.160
 1808BOLB   C4B43380  16.620  22.630   6.760
 1808BOLB   NC243381  17.750  22.690   4.740
 1808BOLB   PO243382  18.120  22.660   5.040
 1808BOLB   GL343383  17.670  22.660   5.240
 1808BOLB   GL443384  17.690  22.540   5.570
 1808BOLB   C1C43385  17.280  22.780   5.500
 1808BOLB   C2C43386  17.050  22.950   5.750
 1808BOLB   C3C43387  16.660  23.080   5.690
 1808BOLB   C4C43388  16.350  22.990   5.990
 1808BOLB   C1D43389  17.450  22.330   5.860
 1808BOLB   C2D43390  17.000  22.170   5.820
 1808BOLB   C3D43391  16.580  22.130   6.010
 1808BOLB   C4D43392  16.170  22.030   6.140
 1809BOLB   NC143393   8.870  25.210  10.880
 1809BOLB   PO143394   8.670  25.270  10.500
 1809BOLB   GL143395   8.630  25.660  10.270
 1809BOLB   GL243396   8.460  25.540  10.080
 1809BOLB   C1A43397   8.580  26.020   9.940
 1809BOLB   C2A43398   8.230  26.300   9.970
 1809BOLB   C3A43399   8.190  26.650   9.750
 1809BOLB   C4A43400   8.300  26.980   9.540
 1809BOLB   C1B43401   8.190  25.680   9.860
 1809BOLB   C2B43402   7.930  25.860   9.670
 1809BOLB   C3B43403   7.610  26.180   9.560
 1809BOLB   C4B43404   7.440  26.460   9.280
 1809BOLB   NC243405   8.100  28.960   8.210
 1809BOLB   PO243406   7.780  29.120   8.470
 1809BOLB   GL343407   7.720  28.890   8.900
 1809BOLB   GL443408   7.540  28.860   9.270
 1809BOLB   C1C43409   7.560  28.510   8.970
 1809BOLB   C2C43410   7.770  28.140   9.140
 1809BOLB   C3C43411   8.010  27.780   9.300
 1809BOLB   C4C43412   7.990  27.310   9.410
 1809BOLB   C1D43413   7.850  28.680   9.490
 1809BOLB   C2D43414   8.030  28.600   9.820
 1809BOLB   C3D43415   8.310  28.330   9.990
 1809BOLB   C4D43416   8.620  27.930  10.030
 1810BOLB   NC143417  19.300  22.300  14.500
 1810BOLB   PO143418  19.570  21.870  14.620
 1810BOLB   GL143419  19.950  21.710  14.770
 1810BOLB   GL243420  20.110  21.920  14.530
 1810BOLB   C1A43421  20.260  21.550  15.100
 1810BOLB   C2A43422  20.610  21.790  15.160
 1810BOLB   C3A43423  21.030  21.910  15.080
 1810BOLB   C4A43424  21.470  22.000  15.210
 1810BOLB   C1B43425  20.440  21.800  14.710
 1810BOLB   C2B43426  20.950  21.560  14.770
 1810BOLB   C3B43427  21.370  21.690  14.740
 1810BOLB   C4B43428  21.770  21.600  14.610
 1810BOLB   NC243429  23.900  20.590  14.810
 1810BOLB   PO243430  23.820  20.990  14.930
 1810BOLB   GL343431  23.540  21.190  15.050
 1810BOLB   GL443432  23.480  21.030  15.310
 1810BOLB   C1C43433  23.050  21.290  15.130
 1810BOLB   C2C43434  22.550  21.370  15.130
 1810BOLB   C3C43435  22.180  21.510  15.220
 1810BOLB   C4C43436  21.860  21.860  15.070
 1810BOLB   C1D43437  23.110  20.740  15.350
 1810BOLB   C2D43438  22.620  20.820  15.330
 1810BOLB   C3D43439  22.190  21.010  15.260
 1810BOLB   C4D43440  22.040  21.200  14.760
 1811BOLB   NC143441  19.880  20.190  13.560
 1811BOLB   PO143442  19.680  20.540  13.540
 1811BOLB   GL143443  20.020  20.790  13.720
 1811BOLB   GL243444  20.250  20.460  13.840
 1811BOLB   C1A43445  20.380  20.950  13.890
 1811BOLB   C2A43446  20.790  21.030  13.960
 1811BOLB   C3A43447  21.100  21.350  13.880
 1811BOLB   C4A43448  21.350  21.530  13.470
 1811BOLB   C1B43449  20.720  20.550  13.750
 1811BOLB   C2B43450  21.100  20.730  13.700
 1811BOLB   C3B43451  21.220  21.060  13.420
 1811BOLB   C4B43452  21.480  21.150  13.190
 1811BOLB   NC243453  23.560  20.750  12.800
 1811BOLB   PO243454  23.660  21.160  12.950
 1811BOLB   GL343455  23.210  21.080  12.990
 1811BOLB   GL443456  23.090  21.220  13.370
 1811BOLB   C1C43457  22.820  21.300  12.870
 1811BOLB   C2C43458  22.460  21.380  13.140
 1811BOLB   C3C43459  22.120  21.360  13.140
 1811BOLB   C4C43460  21.720  21.530  13.380
 1811BOLB   C1D43461  22.630  20.990  13.480
 1811BOLB   C2D43462  22.270  20.890  13.280
 1811BOLB   C3D43463  21.860  20.980  13.430
 1811BOLB   C4D43464  21.550  21.180  13.800
 1812BOLB   NC143465   6.020  22.760   9.040
 1812BOLB   PO143466   5.600  22.890   9.190
 1812BOLB   GL143467   5.300  23.080   8.920
 1812BOLB   GL243468   5.020  23.330   8.980
 1812BOLB   C1A43469   5.010  22.850   8.630
 1812BOLB   C2A43470   4.720  22.890   8.210
 1812BOLB   C3A43471   4.610  22.990   7.780
 1812BOLB   C4A43472   4.180  23.040   7.770
 1812BOLB   C1B43473   4.800  23.390   8.650
 1812BOLB   C2B43474   4.650  23.330   8.170
 1812BOLB   C3B43475   4.550  23.510   7.840
 1812BOLB   C4B43476   4.650  23.820   7.570
 1812BOLB   NC243477   1.820  23.460   6.390
 1812BOLB   PO243478   1.940  23.540   6.790
 1812BOLB   GL343479   2.250  23.500   7.100
 1812BOLB   GL443480   2.280  23.670   7.190
 1812BOLB   C1C43481   2.540  23.260   7.320
 1812BOLB   C2C43482   3.010  23.130   7.480
 1812BOLB   C3C43483   3.380  22.950   7.750
 1812BOLB   C4C43484   3.770  23.070   7.780
 1812BOLB   C1D43485   2.470  23.970   7.520
 1812BOLB   C2D43486   2.350  23.840   7.960
 1812BOLB   C3D43487   2.260  23.940   8.470
 1812BOLB   C4D43488   2.260  23.960   8.880
 1813BOLB   NC143489  15.050  31.440  15.200
 1813BOLB   PO143490  14.660  31.590  15.180
 1813BOLB   GL143491  14.370  31.430  15.340
 1813BOLB   GL243492  13.980  31.480  15.350
 1813BOLB   C1A43493  14.380  30.990  15.380
 1813BOLB   C2A43494  14.280  30.580  15.630
 1813BOLB   C3A43495  14.520  30.200  15.700
 1813BOLB   C4A43496  14.790  29.870  15.580
 1813BOLB   C1B43497  13.940  31.190  15.090
 1813BOLB   C2B43498  14.070  30.800  14.810
 1813BOLB   C3B43499  13.880  30.430  14.750
 1813BOLB   C4B43500  13.910  30.110  14.740
 1813BOLB   NC243501  15.830  31.080  15.010
 1813BOLB   PO243502  15.900  30.950  14.510
 1813BOLB   GL343503  15.850  30.550  14.450
 1813BOLB   GL443504  16.000  30.440  14.150
 1813BOLB   C1C43505  15.620  30.170  14.670
 1813BOLB   C2C43506  15.270  29.840  14.790
 1813BOLB   C3C43507  15.070  29.520  15.030
 1813BOLB   C4C43508  15.030  29.540  15.410
 1813BOLB   C1D43509  15.860  30.040  14.250
 1813BOLB   C2D43510  15.600  29.640  14.510
 1813BOLB   C3D43511  15.150  29.570  14.400
 1813BOLB   C4D43512  15.040  29.680  14.000
 1814BOLB   NC143513  15.280  24.750  10.650
 1814BOLB   PO143514  15.160  25.090  10.460
 1814BOLB   GL143515  15.330  25.440  10.540
 1814BOLB   GL243516  15.740  25.600  10.570
 1814BOLB   C1A43517  15.370  25.840  10.710
 1814BOLB   C2A43518  15.420  26.250  10.660
 1814BOLB   C3A43519  15.490  26.800  10.590
 1814BOLB   C4A43520  15.950  26.920  10.710
 1814BOLB   C1B43521  15.910  25.940  10.220
 1814BOLB   C2B43522  15.890  25.990   9.840
 1814BOLB   C3B43523  16.150  26.190   9.600
 1814BOLB   C4B43524  16.370  26.420   9.410
 1814BOLB   NC243525  16.550  28.390   9.030
 1814BOLB   PO243526  16.580  28.470   9.540
 1814BOLB   GL343527  16.620  28.060   9.430
 1814BOLB   GL443528  16.420  27.900   9.210
 1814BOLB   C1C43529  16.530  27.660   9.640
 1814BOLB   C2C43530  16.770  27.500  10.000
 1814BOLB   C3C43531  16.640  27.190  10.150
 1814BOLB   C4C43532  16.320  27.060  10.420
 1814BOLB   C1D43533  16.050  27.600   9.330
 1814BOLB   C2D43534  15.900  27.270   9.520
 1814BOLB   C3D43535  16.060  26.860   9.610
 1814BOLB   C4D43536  16.340  26.710   9.890
 1815BOLB   NC143537  19.550  18.090  10.920
 1815BOLB   PO143538  19.850  17.960  11.200
 1815BOLB   GL143539  20.290  17.670  11.290
 1815BOLB   GL243540  20.360  17.510  11.030
 1815BOLB   C1A43541  20.690  17.600  11.380
 1815BOLB   C2A43542  20.880  17.230  11.280
 1815BOLB   C3A43543  21.220  17.010  11.190
 1815BOLB   C4A43544  21.610  17.050  11.070
 1815BOLB   C1B43545  20.610  17.230  10.790
 1815BOLB   C2B43546  21.110  17.190  10.730
 1815BOLB   C3B43547  21.620  17.330  10.620
 1815BOLB   C4B43548  21.970  17.430  10.410
 1815BOLB   NC243549  22.660  14.990  10.500
 1815BOLB   PO243550  22.910  15.270  10.680
 1815BOLB   GL343551  22.720  15.580  10.980
 1815BOLB   GL443552  22.500  15.780  10.800
 1815BOLB   C1C43553  22.550  15.670  11.350
 1815BOLB   C2C43554  22.190  15.980  11.440
 1815BOLB   C3C43555  22.100  16.470  11.330
 1815BOLB   C4C43556  21.930  16.880  11.370
 1815BOLB   C1D43557  22.310  16.060  10.960
 1815BOLB   C2D43558  22.510  16.450  10.940
 1815BOLB   C3D43559  22.530  16.940  10.700
 1815BOLB   C4D43560  22.440  17.290  10.620
 1816BOLB   NC143561  18.800  16.370  11.670
 1816BOLB   PO143562  18.700  16.110  11.320
 1816BOLB   GL143563  18.950  16.000  10.940
 1816BOLB   GL243564  19.140  15.730  11.170
 1816BOLB   C1A43565  19.190  15.880  10.720
 1816BOLB   C2A43566  19.360  15.870  10.300
 1816BOLB   C3A43567  19.710  15.610  10.310
 1816BOLB   C4A43568  19.950  15.190  10.190
 1816BOLB   C1B43569  19.400  15.310  11.190
 1816BOLB   C2B43570  19.620  14.860  11.240
 1816BOLB   C3B43571  19.690  14.530  11.320
 1816BOLB   C4B43572  19.980  14.370  11.450
 1816BOLB   NC243573  22.020  14.030   9.350
 1816BOLB   PO243574  21.900  14.260   9.000
 1816BOLB   GL343575  21.620  14.370   9.350
 1816BOLB   GL443576  21.460  14.140   9.410
 1816BOLB   C1C43577  21.270  14.640   9.520
 1816BOLB   C2C43578  21.100  14.910   9.770
 1816BOLB   C3C43579  20.700  15.050   9.790
 1816BOLB   C4C43580  20.300  15.090   9.890
 1816BOLB   C1D43581  21.030  14.190   9.530
 1816BOLB   C2D43582  20.750  14.230   9.910
 1816BOLB   C3D43583  20.430  14.590   9.920
 1816BOLB   C4D43584  20.190  14.570  10.200
 1817BOLB   NC143585   5.870  23.410   9.840
 1817BOLB   PO143586   5.890  23.840  10.040
 1817BOLB   GL143587   5.770  23.830   9.580
 1817BOLB   GL243588   6.000  23.750   9.310
 1817BOLB   C1A43589   5.560  23.980   9.090
 1817BOLB   C2A43590   5.690  24.140   8.710
 1817BOLB   C3A43591   5.660  24.510   8.380
 1817BOLB   C4A43592   5.290  24.640   8.210
 1817BOLB   C1B43593   6.100  24.140   9.070
 1817BOLB   C2B43594   6.250  24.460   8.870
 1817BOLB   C3B43595   6.050  24.720   8.700
 1817BOLB   C4B43596   6.040  24.990   8.370
 1817BOLB   NC243597   3.550  26.570   7.480
 1817BOLB   PO243598   3.930  26.410   7.500
 1817BOLB   GL343599   4.100  26.130   7.860
 1817BOLB   GL443600   4.270  26.370   8.070
 1817BOLB   C1C43601   4.340  25.860   7.870
 1817BOLB   C2C43602   4.610  25.540   7.760
 1817BOLB   C3C43603   4.990  25.280   7.690
 1817BOLB   C4C43604   5.060  24.860   7.960
 1817BOLB   C1D43605   4.550  26.100   8.410
 1817BOLB   C2D43606   4.600  26.080   8.850
 1817BOLB   C3D43607   4.800  25.970   9.250
 1817BOLB   C4D43608   4.930  25.770   9.670
 1818BOLB   NC143609  10.590  28.620   7.020
 1818BOLB   PO143610  10.370  28.360   7.370
 1818BOLB   GL143611  10.470  28.220   7.780
 1818BOLB   GL243612  10.330  28.410   8.090
 1818BOLB   C1A43613  10.440  27.870   8.080
 1818BOLB   C2A43614  10.420  27.510   8.380
 1818BOLB   C3A43615  10.430  27.010   8.430
 1818BOLB   C4A43616  10.820  26.740   8.560
 1818BOLB   C1B43617  10.700  28.250   8.350
 1818BOLB   C2B43618  10.710  28.000   8.670
 1818BOLB   C3B43619  10.580  27.630   8.930
 1818BOLB   C4B43620  10.480  27.400   9.310
 1818BOLB   NC243621  11.290  27.490   6.480
 1818BOLB   PO243622  11.620  27.690   6.690
 1818BOLB   GL343623  11.510  27.340   6.950
 1818BOLB   GL443624  11.370  27.100   6.760
 1818BOLB   C1C43625  11.440  27.030   7.240
 1818BOLB   C2C43626  11.430  26.960   7.680
 1818BOLB   C3C43627  11.430  26.760   8.070
 1818BOLB   C4C43628  11.190  26.790   8.430
 1818BOLB   C1D43629  11.190  26.730   6.960
 1818BOLB   C2D43630  11.190  26.410   7.150
 1818BOLB   C3D43631  11.510  26.090   7.280
 1818BOLB   C4D43632  11.470  25.740   7.420
 1819BOLB   NC143633  13.470  21.000   7.790
 1819BOLB   PO143634  13.500  21.280   7.440
 1819BOLB   GL143635  13.440  21.400   6.990
 1819BOLB   GL243636  13.550  21.670   6.860
 1819BOLB   C1A43637  13.320  21.380   6.530
 1819BOLB   C2A43638  13.500  21.310   6.050
 1819BOLB   C3A43639  13.640  21.420   5.690
 1819BOLB   C4A43640  14.050  21.310   5.480
 1819BOLB   C1B43641  13.570  21.890   6.410
 1819BOLB   C2B43642  13.510  22.290   6.270
 1819BOLB   C3B43643  13.330  22.550   5.910
 1819BOLB   C4B43644  13.070  22.910   5.760
 1819BOLB   NC243645  15.030  21.350   3.570
 1819BOLB   PO243646  15.310  21.070   3.370
 1819BOLB   GL343647  15.220  20.810   3.700
 1819BOLB   GL443648  15.390  20.640   3.950
 1819BOLB   C1C43649  15.100  21.060   4.080
 1819BOLB   C2C43650  14.930  21.170   4.560
 1819BOLB   C3C43651  14.610  21.200   4.860
 1819BOLB   C4C43652  14.250  21.180   5.060
 1819BOLB   C1D43653  15.290  20.710   4.400
 1819BOLB   C2D43654  15.090  20.670   4.760
 1819BOLB   C3D43655  15.170  20.730   5.240
 1819BOLB   C4D43656  15.450  20.480   5.410
 1820BOLB   NC143657  15.820  26.840   4.760
 1820BOLB   PO143658  15.760  26.600   5.140
 1820BOLB   GL143659  15.590  26.250   5.480
 1820BOLB   GL243660  15.690  26.290   5.760
 1820BOLB   C1A43661  15.500  25.790   5.600
 1820BOLB   C2A43662  15.640  25.390   5.500
 1820BOLB   C3A43663  15.530  24.990   5.660
 1820BOLB   C4A43664  15.690  24.570   5.540
 1820BOLB   C1B43665  15.940  26.010   5.860
 1820BOLB   C2B43666  16.260  25.710   6.080
 1820BOLB   C3B43667  16.540  25.520   6.480
 1820BOLB   C4B43668  16.710  25.270   6.780
 1820BOLB   NC243669  17.960  23.610   5.690
 1820BOLB   PO243670  17.640  23.950   5.640
 1820BOLB   GL343671  17.250  23.780   5.800
 1820BOLB   GL443672  17.080  23.430   5.730
 1820BOLB   C1C43673  16.840  23.850   5.960
 1820BOLB   C2C43674  16.390  23.980   6.210
 1820BOLB   C3C43675  15.950  24.080   6.100
 1820BOLB   C4C43676  15.700  24.190   5.780
 1820BOLB   C1D43677  16.740  23.380   6.070
 1820BOLB   C2D43678  16.600  23.590   6.390
 1820BOLB   C3D43679  16.410  23.740   6.740
 1820BOLB   C4D43680  16.190  23.780   7.120
 1821BOLB   NC143681  18.980  15.380  12.770
 1821BOLB   PO143682  19.230  15.480  13.120
 1821BOLB   GL143683  19.520  15.280  12.890
 1821BOLB   GL243684  19.550  15.380  12.560
 1821BOLB   C1A43685  19.900  15.270  12.810
 1821BOLB   C2A43686  20.290  15.180  12.860
 1821BOLB   C3A43687  20.670  15.010  12.700
 1821BOLB   C4A43688  21.210  15.130  12.740
 1821BOLB   C1B43689  19.910  15.350  12.330
 1821BOLB   C2B43690  20.260  15.620  12.060
 1821BOLB   C3B43691  20.660  15.470  11.850
 1821BOLB   C4B43692  21.100  15.330  11.870
 1821BOLB   NC243693  22.920  14.560  12.710
 1821BOLB   PO243694  22.610  14.250  12.540
 1821BOLB   GL343695  22.470  14.670  12.420
 1821BOLB   GL443696  22.430  14.990  12.080
 1821BOLB   C1C43697  22.220  14.990  12.530
 1821BOLB   C2C43698  22.010  15.340  12.800
 1821BOLB   C3C43699  21.800  15.510  13.150
 1821BOLB   C4C43700  21.480  15.280  13.090
 1821BOLB   C1D43701  22.150  15.270  11.890
 1821BOLB   C2D43702  22.210  15.590  11.770
 1821BOLB   C3D43703  21.860  15.910  11.810
 1821BOLB   C4D43704  21.520  15.910  12.030
 1822BOLB   NC143705  17.820  13.990  12.290
 1822BOLB   PO143706  18.170  14.140  12.540
 1822BOLB   GL143707  18.410  13.880  12.850
 1822BOLB   GL243708  18.700  14.080  12.840
 1822BOLB   C1A43709  18.840  13.670  13.040
 1822BOLB   C2A43710  19.280  13.570  13.050
 1822BOLB   C3A43711  19.550  13.300  13.110
 1822BOLB   C4A43712  19.640  12.890  13.020
 1822BOLB   C1B43713  19.130  14.060  12.910
 1822BOLB   C2B43714  19.530  13.940  12.770
 1822BOLB   C3B43715  19.760  13.530  12.750
 1822BOLB   C4B43716  20.010  13.230  12.950
 1822BOLB   NC243717  21.940  12.130  13.390
 1822BOLB   PO243718  21.910  12.170  12.880
 1822BOLB   GL343719  21.510  12.370  12.870
 1822BOLB   GL443720  21.380  12.340  12.630
 1822BOLB   C1C43721  21.110  12.420  13.050
 1822BOLB   C2C43722  20.580  12.300  12.950
 1822BOLB   C3C43723  20.210  12.420  12.910
 1822BOLB   C4C43724  19.870  12.680  13.010
 1822BOLB   C1D43725  21.320  12.820  12.610
 1822BOLB   C2D43726  20.940  12.850  12.270
 1822BOLB   C3D43727  20.530  12.780  12.380
 1822BOLB   C4D43728  20.300  12.810  12.650
 1823DOPG   GL043729  15.060  12.120  12.630
 1823DOPG   PO443730  15.370  11.800  12.800
 1823DOPG   GL143731  15.620  11.450  12.530
 1823DOPG   GL243732  15.910  11.470  12.650
 1823DOPG   C1A43733  15.580  10.980  12.530
 1823DOPG   D2A43734  15.280  10.670  12.390
 1823DOPG   C3A43735  15.400  10.300  12.470
 1823DOPG   C4A43736  15.390   9.970  12.790
 1823DOPG   C1B43737  16.110  11.160  12.470
 1823DOPG   D2B43738  16.440  10.790  12.370
 1823DOPG   C3B43739  16.350  10.380  12.490
 1823DOPG   C4B43740  16.360   9.870  12.470
 1824DOPG   GL043741   1.280  15.840  22.250
 1824DOPG   PO443742   1.260  16.320  22.310
 1824DOPG   GL143743   1.570  16.180  21.990
 1824DOPG   GL243744   1.830  16.430  21.900
 1824DOPG   C1A43745   1.550  16.290  21.530
 1824DOPG   D2A43746   1.820  16.430  21.200
 1824DOPG   C3A43747   1.770  16.810  21.040
 1824DOPG   C4A43748   2.010  17.140  21.120
 1824DOPG   C1B43749   2.300  16.380  21.700
 1824DOPG   D2B43750   2.630  16.370  21.520
 1824DOPG   C3B43751   2.980  16.690  21.720
 1824DOPG   C4B43752   3.380  16.770  21.410
 1825DOPG   GL043753   4.060   8.920  10.660
 1825DOPG   PO443754   4.460   8.760  10.960
 1825DOPG   GL143755   4.780   9.130  11.050
 1825DOPG   GL243756   4.780   9.510  10.940
 1825DOPG   C1A43757   5.120   9.310  11.340
 1825DOPG   D2A43758   5.610   9.350  11.370
 1825DOPG   C3A43759   5.790   9.820  11.470
 1825DOPG   C4A43760   6.160  10.110  11.540
 1825DOPG   C1B43761   5.030   9.780  11.160
 1825DOPG   D2B43762   5.320   9.810  11.310
 1825DOPG   C3B43763   5.410   9.590  11.750
 1825DOPG   C4B43764   5.050   9.490  12.130
 1826DOPG   GL043765  11.750  26.740  18.010
 1826DOPG   PO443766  11.780  26.920  18.410
 1826DOPG   GL143767  11.980  27.320  18.520
 1826DOPG   GL243768  11.940  27.310  18.850
 1826DOPG   C1A43769  12.230  27.820  18.540
 1826DOPG   D2A43770  12.480  28.190  18.740
 1826DOPG   C3A43771  12.610  28.290  19.120
 1826DOPG   C4A43772  12.740  28.540  19.510
 1826DOPG   C1B43773  12.010  27.630  19.040
 1826DOPG   D2B43774  12.230  27.970  19.260
 1826DOPG   C3B43775  12.550  28.050  19.560
 1826DOPG   C4B43776  12.890  28.090  19.790
 1827DOPG   GL043777   8.710  14.270  25.010
 1827DOPG   PO443778   8.710  13.890  24.820
 1827DOPG   GL143779   8.450  14.180  24.460
 1827DOPG   GL243780   8.350  14.470  24.450
 1827DOPG   C1A43781   8.350  14.130  24.050
 1827DOPG   D2A43782   8.560  14.060  23.710
 1827DOPG   C3A43783   8.950  14.140  23.620
 1827DOPG   C4A43784   9.160  14.470  23.780
 1827DOPG   C1B43785   8.360  14.760  24.160
 1827DOPG   D2B43786   8.280  15.190  24.020
 1827DOPG   C3B43787   7.930  15.460  23.990
 1827DOPG   C4B43788   7.600  15.720  23.860
 1828DOPG   GL043789  16.840  17.490  25.270
 1828DOPG   PO443790  16.410  17.530  25.330
 1828DOPG   GL143791  16.210  17.570  24.910
 1828DOPG   GL243792  15.870  17.600  25.050
 1828DOPG   C1A43793  16.000  17.870  24.680
 1828DOPG   D2A43794  15.640  17.790  24.530
 1828DOPG   C3A43795  15.690  17.670  24.140
 1828DOPG   C4A43796  15.570  17.710  23.700
 1828DOPG   C1B43797  15.570  17.800  25.030
 1828DOPG   D2B43798  15.420  18.260  24.990
 1828DOPG   C3B43799  15.510  18.290  24.690
 1828DOPG   C4B43800  15.800  18.190  24.300
 1829DOPG   GL043801  16.350  20.580   3.740
 1829DOPG   PO443802  15.980  20.460   3.610
 1829DOPG   GL143803  15.880  20.470   3.970
 1829DOPG   GL243804  16.170  20.330   4.170
 1829DOPG   C1A43805  15.790  20.560   4.460
 1829DOPG   D2A43806  15.550  20.580   4.930
 1829DOPG   C3A43807  15.620  20.120   5.100
 1829DOPG   C4A43808  15.580  19.590   5.010
 1829DOPG   C1B43809  16.350  20.610   4.480
 1829DOPG   D2B43810  16.500  20.480   4.870
 1829DOPG   C3B43811  16.440  20.800   5.130
 1829DOPG   C4B43812  16.360  20.850   5.530
 1830DOPG   GL043813  35.920  15.130  18.570
 1830DOPG   PO443814  35.800  14.850  18.480
 1830DOPG   GL143815  36.190  14.990  18.170
 1830DOPG   GL243816  36.280  14.760  18.420
 1830DOPG   C1A43817   0.110  15.270  17.940
 1830DOPG   D2A43818   0.300  15.540  17.650
 1830DOPG   C3A43819   0.140  15.950  17.550
 1830DOPG   C4A43820   0.010  16.240  17.090
 1830DOPG   C1B43821   0.390  14.950  18.280
 1830DOPG   D2B43822   0.620  15.240  18.000
 1830DOPG   C3B43823   0.790  15.590  17.740
 1830DOPG   C4B43824   0.600  16.030  17.810
 1831DOPG   GL043825   5.270  13.080  16.720
 1831DOPG   PO443826   5.280  12.970  16.280
 1831DOPG   GL143827   5.160  12.730  15.940
 1831DOPG   GL243828   4.890  12.710  15.820
 1831DOPG   C1A43829   5.160  12.260  15.770
 1831DOPG   D2A43830   4.880  11.930  15.520
 1831DOPG   C3A43831   4.570  11.680  15.720
 1831DOPG   C4A43832   4.350  11.380  15.740
 1831DOPG   C1B43833   4.630  12.360  15.740
 1831DOPG   D2B43834   4.390  12.120  15.930
 1831DOPG   C3B43835   4.510  11.950  16.380
 1831DOPG   C4B43836   4.700  11.650  16.710
 1832DOPG   GL043837   9.390  11.830  11.920
 1832DOPG   PO443838   9.500  11.490  11.810
 1832DOPG   GL143839   9.620  11.250  11.470
 1832DOPG   GL243840   9.600  11.400  11.170
 1832DOPG   C1A43841   9.670  10.880  11.320
 1832DOPG   D2A43842   9.590  10.370  11.130
 1832DOPG   C3A43843   9.880  10.020  10.980
 1832DOPG   C4A43844  10.080   9.630  10.830
 1832DOPG   C1B43845   9.970  11.190  11.000
 1832DOPG   D2B43846  10.040  10.760  11.000
 1832DOPG   C3B43847   9.990  10.480  10.700
 1832DOPG   C4B43848  10.080  10.150  10.390
 1833DOPG   GL043849   9.850   8.100  20.280
 1833DOPG   PO443850   9.890   7.790  20.050
 1833DOPG   GL143851  10.200   8.080  19.910
 1833DOPG   GL243852  10.340   8.060  19.610
 1833DOPG   C1A43853  10.340   8.530  19.770
 1833DOPG   D2A43854  10.360   8.520  19.280
 1833DOPG   C3A43855  10.080   8.720  19.000
 1833DOPG   C4A43856  10.020   8.800  18.670
 1833DOPG   C1B43857  10.610   8.090  19.190
 1833DOPG   D2B43858  10.530   8.090  18.800
 1833DOPG   C3B43859  10.190   8.340  18.580
 1833DOPG   C4B43860  10.030   8.630  18.210
 1834DOPG   GL043861   1.210  18.160  23.060
 1834DOPG   PO443862   1.220  18.530  22.830
 1834DOPG   GL143863   1.360  18.620  22.510
 1834DOPG   GL243864   1.230  18.880  22.440
 1834DOPG   C1A43865   1.640  18.650  22.260
 1834DOPG   D2A43866   2.050  18.820  22.050
 1834DOPG   C3A43867   2.250  19.210  22.200
 1834DOPG   C4A43868   2.430  19.570  22.270
 1834DOPG   C1B43869   1.550  19.210  22.530
 1834DOPG   D2B43870   1.940  19.540  22.460
 1834DOPG   C3B43871   2.000  19.850  22.140
 1834DOPG   C4B43872   1.920  20.170  21.840
 1835DOPG   GL043873  18.220  24.010  15.680
 1835DOPG   PO443874  18.480  24.310  15.760
 1835DOPG   GL143875  18.830  24.350  15.660
 1835DOPG   GL243876  18.990  24.560  15.930
 1835DOPG   C1A43877  18.990  24.690  15.450
 1835DOPG   D2A43878  19.400  24.940  15.710
 1835DOPG   C3A43879  19.410  25.310  15.940
 1835DOPG   C4A43880  19.650  25.670  16.250
 1835DOPG   C1B43881  19.240  24.710  16.180
 1835DOPG   D2B43882  19.700  24.780  16.150
 1835DOPG   C3B43883  19.860  24.530  15.830
 1835DOPG   C4B43884  19.810  24.150  15.650
 1836DOPG   GL043885  12.960  21.150   7.680
 1836DOPG   PO443886  13.090  21.330   7.960
 1836DOPG   GL143887  13.030  21.170   8.390
 1836DOPG   GL243888  12.770  21.190   8.620
 1836DOPG   C1A43889  13.300  21.250   8.770
 1836DOPG   D2A43890  13.510  21.160   9.110
 1836DOPG   C3A43891  13.130  21.010   9.390
 1836DOPG   C4A43892  12.920  20.880   9.740
 1836DOPG   C1B43893  12.720  21.340   9.010
 1836DOPG   D2B43894  12.780  21.300   9.440
 1836DOPG   C3B43895  12.490  21.160   9.700
 1836DOPG   C4B43896  12.040  20.970   9.810
 1837DOPG   GL043897   3.320   9.130  12.960
 1837DOPG   PO443898   3.760   9.070  12.900
 1837DOPG   GL143899   3.830   9.530  12.780
 1837DOPG   GL243900   3.690   9.830  13.000
 1837DOPG   C1A43901   3.940   9.950  12.550
 1837DOPG   D2A43902   3.980  10.410  12.520
 1837DOPG   C3A43903   4.080  10.640  12.140
 1837DOPG   C4A43904   4.120  10.890  11.710
 1837DOPG   C1B43905   3.990  10.140  13.060
 1837DOPG   D2B43906   4.400  10.110  13.310
 1837DOPG   C3B43907   4.750   9.840  13.110
 1837DOPG   C4B43908   5.030   9.750  12.780
 1838DOPG   GL043909  12.530  31.980  14.550
 1838DOPG   PO443910  12.310  31.860  14.150
 1838DOPG   GL143911  12.330  31.330  14.200
 1838DOPG   GL243912  12.450  31.050  13.970
 1838DOPG   C1A43913  12.110  30.960  14.260
 1838DOPG   D2A43914  11.820  30.770  14.260
 1838DOPG   C3A43915  11.670  30.710  14.710
 1838DOPG   C4A43916  11.390  30.510  15.070
 1838DOPG   C1B43917  12.260  30.670  13.760
 1838DOPG   D2B43918  12.060  30.200  13.680
 1838DOPG   C3B43919  12.000  29.880  13.980
 1838DOPG   C4B43920  11.920  29.600  14.350
 1839DOPG   GL043921   5.610  18.770  15.290
 1839DOPG   PO443922   5.410  19.080  15.420
 1839DOPG   GL143923   5.640  19.270  15.810
 1839DOPG   GL243924   5.830  18.980  15.770
 1839DOPG   C1A43925   5.920  19.490  16.060
 1839DOPG   D2A43926   6.300  19.480  16.310
 1839DOPG   C3A43927   6.570  19.260  16.540
 1839DOPG   C4A43928   7.050  19.280  16.510
 1839DOPG   C1B43929   6.160  18.630  15.920
 1839DOPG   D2B43930   6.500  18.580  16.060
 1839DOPG   C3B43931   6.790  18.810  16.360
 1839DOPG   C4B43932   7.260  18.880  16.460
 1840DOPG   GL043933   2.870  16.640   6.310
 1840DOPG   PO443934   2.690  16.660   5.800
 1840DOPG   GL143935   2.910  16.970   5.960
 1840DOPG   GL243936   3.120  17.080   5.860
 1840DOPG   C1A43937   2.940  17.300   6.340
 1840DOPG   D2A43938   2.880  17.470   6.750
 1840DOPG   C3A43939   3.020  17.190   7.190
 1840DOPG   C4A43940   2.890  17.320   7.540
 1840DOPG   C1B43941   3.340  16.830   6.230
 1840DOPG   D2B43942   3.370  16.770   6.590
 1840DOPG   C3B43943   3.430  17.210   6.800
 1840DOPG   C4B43944   3.300  17.590   6.520
 1841DOPG   GL043945   6.320  31.040  13.100
 1841DOPG   PO443946   6.040  30.940  13.480
 1841DOPG   GL143947   6.180  30.650  13.840
 1841DOPG   GL243948   5.940  30.460  13.540
 1841DOPG   C1A43949   6.400  30.380  13.950
 1841DOPG   D2A43950   6.310  30.000  13.870
 1841DOPG   C3A43951   6.470  29.790  13.510
 1841DOPG   C4A43952   6.290  29.530  13.230
 1841DOPG   C1B43953   6.170  30.120  13.350
 1841DOPG   D2B43954   5.940  29.820  13.460
 1841DOPG   C3B43955   6.030  29.510  13.650
 1841DOPG   C4B43956   6.250  29.110  13.460
 1842DOPG   GL043957   2.780  20.970  11.920
 1842DOPG   PO443958   2.310  21.010  12.030
 1842DOPG   GL143959   2.010  21.140  11.700
 1842DOPG   GL243960   1.880  21.420  11.380
 1842DOPG   C1A43961   1.600  20.950  11.670
 1842DOPG   D2A43962   1.330  20.890  11.360
 1842DOPG   C3A43963   0.920  20.910  11.220
 1842DOPG   C4A43964   0.570  21.030  11.300
 1842DOPG   C1B43965   1.530  21.560  11.320
 1842DOPG   D2B43966   1.350  21.920  11.280
 1842DOPG   C3B43967   0.970  22.030  11.180
 1842DOPG   C4B43968   0.670  21.780  11.040
 1843DOPG   GL043969  36.020  14.260  17.030
 1843DOPG   PO443970  36.120  13.930  16.780
 1843DOPG   GL143971   0.090  14.120  16.700
 1843DOPG   GL243972   0.220  13.860  16.550
 1843DOPG   C1A43973   0.230  14.520  16.790
 1843DOPG   D2A43974   0.070  14.890  16.540
 1843DOPG   C3A43975   0.090  15.250  16.280
 1843DOPG   C4A43976   0.220  15.670  16.000
 1843DOPG   C1B43977   0.730  14.110  16.460
 1843DOPG   D2B43978   1.270  14.150  16.420
 1843DOPG   C3B43979   1.450  14.560  16.710
 1843DOPG   C4B43980   1.370  14.970  16.850
 1844DOPG   GL043981   2.490  29.720  18.270
 1844DOPG   PO443982   2.900  29.550  18.160
 1844DOPG   GL143983   2.960  29.140  17.920
 1844DOPG   GL243984   2.870  29.220  17.540
 1844DOPG   C1A43985   3.240  28.910  17.790
 1844DOPG   D2A43986   3.530  28.690  17.500
 1844DOPG   C3A43987   3.250  28.320  17.220
 1844DOPG   C4A43988   3.180  28.040  16.920
 1844DOPG   C1B43989   3.050  28.790  17.320
 1844DOPG   D2B43990   3.070  28.670  16.840
 1844DOPG   C3B43991   2.880  28.380  16.740
 1844DOPG   C4B43992   2.750  28.070  16.490
 1845DOPG   GL043993   2.290  11.530  20.030
 1845DOPG   PO443994   2.600  11.810  19.950
 1845DOPG   GL143995   3.090  11.780  19.810
 1845DOPG   GL243996   3.010  11.540  19.570
 1845DOPG   C1A43997   3.090  12.270  19.780
 1845DOPG   D2A43998   3.080  12.460  19.350
 1845DOPG   C3A43999   2.980  12.890  19.280
 1845DOPG   C4A44000   2.980  13.220  18.980
 1845DOPG   C1B44001   3.170  11.960  19.270
 1845DOPG   D2B44002   3.520  12.260  19.050
 1845DOPG   C3B44003   3.710  12.280  18.620
 1845DOPG   C4B44004   3.850  12.260  18.280
 1846DOPG   GL044005   2.690  22.340  17.410
 1846DOPG   PO444006   2.300  22.070  17.230
 1846DOPG   GL144007   1.840  22.090  17.350
 1846DOPG   GL244008   1.880  22.360  17.440
 1846DOPG   C1A44009   1.480  21.930  17.350
 1846DOPG   D2A44010   0.980  21.900  17.350
 1846DOPG   C3A44011   0.770  21.760  17.690
 1846DOPG   C4A44012   0.490  21.530  17.990
 1846DOPG   C1B44013   1.530  22.700  17.490
 1846DOPG   D2B44014   1.260  22.800  17.610
 1846DOPG   C3B44015   0.940  22.540  17.610
 1846DOPG   C4B44016   0.610  22.340  17.770
 1847DOPG   GL044017  15.120  27.130  23.500
 1847DOPG   PO444018  15.450  27.300  23.380
 1847DOPG   GL144019  15.110  27.230  23.030
 1847DOPG   GL244020  14.900  27.530  23.010
 1847DOPG   C1A44021  14.960  27.080  22.620
 1847DOPG   D2A44022  14.590  26.930  22.370
 1847DOPG   C3A44023  14.420  26.490  22.520
 1847DOPG   C4A44024  14.400  26.310  22.920
 1847DOPG   C1B44025  14.520  27.460  22.630
 1847DOPG   D2B44026  14.650  27.730  22.300
 1847DOPG   C3B44027  14.880  27.460  22.140
 1847DOPG   C4B44028  15.280  27.150  22.020
 1848DOPG   GL044029  16.900  21.290  19.300
 1848DOPG   PO444030  16.460  21.200  19.460
 1848DOPG   GL144031  16.200  20.930  19.260
 1848DOPG   GL244032  15.820  21.090  19.310
 1848DOPG   C1A44033  15.900  20.640  19.150
 1848DOPG   D2A44034  15.500  20.560  18.930
 1848DOPG   C3A44035  15.510  20.260  18.640
 1848DOPG   C4A44036  15.240  19.940  18.520
 1848DOPG   C1B44037  15.460  21.010  19.100
 1848DOPG   D2B44038  15.250  21.060  18.770
 1848DOPG   C3B44039  15.330  21.200  18.310
 1848DOPG   C4B44040  15.560  21.240  18.020
 1849DOPG   GL044041   8.990  22.050   9.100
 1849DOPG   PO444042   9.020  22.000   9.440
 1849DOPG   GL144043   9.110  21.770   9.830
 1849DOPG   GL244044   9.310  21.550   9.800
 1849DOPG   C1A44045   9.160  21.740  10.280
 1849DOPG   D2A44046   9.250  21.520  10.600
 1849DOPG   C3A44047   9.170  21.510  11.040
 1849DOPG   C4A44048   8.990  21.230  11.390
 1849DOPG   C1B44049   9.160  21.170   9.860
 1849DOPG   D2B44050   9.450  20.750   9.990
 1849DOPG   C3B44051   9.270  20.290   9.900
 1849DOPG   C4B44052   8.940  20.030  10.000
 1850DOPG   GL044053   0.810  16.530  22.620
 1850DOPG   PO444054   1.110  16.900  22.450
 1850DOPG   GL144055   1.380  16.870  22.040
 1850DOPG   GL244056   1.390  16.660  21.810
 1850DOPG   C1A44057   1.420  17.180  21.740
 1850DOPG   D2A44058   1.090  17.420  21.580
 1850DOPG   C3A44059   1.010  17.420  21.190
 1850DOPG   C4A44060   0.780  17.370  20.770
 1850DOPG   C1B44061   1.730  16.770  21.560
 1850DOPG   D2B44062   2.180  16.730  21.330
 1850DOPG   C3B44063   2.560  16.950  21.520
 1850DOPG   C4B44064   2.970  17.210  21.510
 1851DOPG   GL044065   3.950  28.290  21.960
 1851DOPG   PO444066   4.310  28.030  22.100
 1851DOPG   GL144067   4.370  27.560  22.120
 1851DOPG   GL244068   4.340  27.570  22.430
 1851DOPG   C1A44069   4.380  27.190  21.880
 1851DOPG   D2A44070   4.300  26.670  21.850
 1851DOPG   C3A44071   4.620  26.480  21.980
 1851DOPG   C4A44072   4.580  26.080  22.220
 1851DOPG   C1B44073   4.330  27.090  22.320
 1851DOPG   D2B44074   4.350  26.750  22.340
 1851DOPG   C3B44075   3.910  26.530  22.200
 1851DOPG   C4B44076   3.520  26.370  22.110
 1852DOPG   GL044077  36.240  19.720   7.920
 1852DOPG   PO444078   0.080  20.030   8.030
 1852DOPG   GL144079   0.100  20.130   8.510
 1852DOPG   GL244080   0.360  20.230   8.510
 1852DOPG   C1A44081   0.130  20.070   8.950
 1852DOPG   D2A44082   0.500  19.970   9.270
 1852DOPG   C3A44083   0.770  19.700   9.250
 1852DOPG   C4A44084   1.140  19.630   9.280
 1852DOPG   C1B44085   0.580  20.280   8.920
 1852DOPG   D2B44086   0.720  20.540   9.110
 1852DOPG   C3B44087   0.780  20.340   9.500
 1852DOPG   C4B44088   1.050  20.010   9.560
 1853DOPG   GL044089  15.000  24.100  19.630
 1853DOPG   PO444090  14.880  23.760  19.420
 1853DOPG   GL144091  14.930  23.460  19.100
 1853DOPG   GL244092  14.620  23.400  19.120
 1853DOPG   C1A44093  14.880  23.410  18.690
 1853DOPG   D2A44094  14.920  23.460  18.260
 1853DOPG   C3A44095  14.660  23.270  17.960
 1853DOPG   C4A44096  14.320  23.120  17.650
 1853DOPG   C1B44097  14.350  23.250  18.840
 1853DOPG   D2B44098  14.250  22.920  18.690
 1853DOPG   C3B44099  14.130  23.080  18.240
 1853DOPG   C4B44100  14.060  23.490  18.130
 1854DOPG   GL044101   7.630  22.470  22.270
 1854DOPG   PO444102   7.940  22.690  22.540
 1854DOPG   GL144103   7.910  22.820  22.900
 1854DOPG   GL244104   7.930  22.540  23.140
 1854DOPG   C1A44105   7.790  22.960  23.430
 1854DOPG   D2A44106   7.630  23.350  23.730
 1854DOPG   C3A44107   7.650  23.400  24.150
 1854DOPG   C4A44108   7.880  23.350  24.590
 1854DOPG   C1B44109   7.950  22.470  23.610
 1854DOPG   D2B44110   8.220  22.540  24.030
 1854DOPG   C3B44111   7.990  22.520  24.460
 1854DOPG   C4B44112   7.620  22.600  24.850
 1855DOPG   GL044113  19.110  17.970  15.010
 1855DOPG   PO444114  18.860  17.800  14.690
 1855DOPG   GL144115  18.420  17.860  14.840
 1855DOPG   GL244116  18.350  17.550  14.990
 1855DOPG   C1A44117  18.040  17.960  15.080
 1855DOPG   D2A44118  17.570  18.120  15.000
 1855DOPG   C3A44119  17.100  17.870  15.050
 1855DOPG   C4A44120  16.790  17.930  14.720
 1855DOPG   C1B44121  18.130  17.410  14.700
 1855DOPG   D2B44122  17.710  17.050  14.640
 1855DOPG   C3B44123  17.780  16.820  14.280
 1855DOPG   C4B44124  17.900  16.410  14.120
 1856DOPG   GL044125  11.550   7.240  18.830
 1856DOPG   PO444126  11.450   7.550  19.050
 1856DOPG   GL144127  11.380   8.070  19.140
 1856DOPG   GL244128  11.030   8.220  18.990
 1856DOPG   C1A44129  11.250   8.500  19.340
 1856DOPG   D2A44130  11.560   8.850  19.260
 1856DOPG   C3A44131  11.950   8.840  19.410
 1856DOPG   C4A44132  11.900   9.180  19.210
 1856DOPG   C1B44133  10.720   8.520  18.930
 1856DOPG   D2B44134  10.590   8.890  18.970
 1856DOPG   C3B44135  10.130   9.270  18.880
 1856DOPG   C4B44136   9.920   9.520  19.260
 1857DOPG   GL044137  16.950  29.980  15.840
 1857DOPG   PO444138  17.270  30.090  15.620
 1857DOPG   GL144139  17.060  29.600  15.540
 1857DOPG   GL244140  17.420  29.490  15.530
 1857DOPG   C1A44141  16.930  29.440  15.920
 1857DOPG   D2A44142  16.850  29.240  16.240
 1857DOPG   C3A44143  16.900  28.880  16.200
 1857DOPG   C4A44144  16.700  28.470  16.000
 1857DOPG   C1B44145  17.220  29.250  15.230
 1857DOPG   D2B44146  17.050  28.920  15.030
 1857DOPG   C3B44147  16.750  29.120  14.740
 1857DOPG   C4B44148  16.490  29.080  14.280
 1858DOPG   GL044149   3.210  10.820  20.080
 1858DOPG   PO444150   3.150  11.050  19.700
 1858DOPG   GL144151   3.440  11.250  19.660
 1858DOPG   GL244152   3.480  11.490  19.880
 1858DOPG   C1A44153   3.510  11.570  19.360
 1858DOPG   D2A44154   3.690  11.820  19.160
 1858DOPG   C3A44155   4.160  11.950  19.220
 1858DOPG   C4A44156   4.470  11.810  18.940
 1858DOPG   C1B44157   3.920  11.350  19.900
 1858DOPG   D2B44158   4.370  11.430  19.800
 1858DOPG   C3B44159   4.550  11.820  19.600
 1858DOPG   C4B44160   4.940  12.000  19.550
 1859DOPG   GL044161  12.400   8.740  21.540
 1859DOPG   PO444162  11.990   8.850  21.330
 1859DOPG   GL144163  11.940   9.140  20.940
 1859DOPG   GL244164  12.240   9.150  20.770
 1859DOPG   C1A44165  11.880   9.570  21.000
 1859DOPG   D2A44166  11.720  10.040  21.090
 1859DOPG   C3A44167  11.790  10.270  20.720
 1859DOPG   C4A44168  12.010  10.550  20.430
 1859DOPG   C1B44169  12.080   9.120  20.440
 1859DOPG   D2B44170  12.020   9.340  20.120
 1859DOPG   C3B44171  11.990   9.730  20.080
 1859DOPG   C4B44172  11.890   9.990  20.320
 1860DOPG   GL044173  11.720  31.010  19.820
 1860DOPG   PO444174  11.450  30.610  19.700
 1860DOPG   GL144175  11.310  30.300  19.460
 1860DOPG   GL244176  10.970  30.370  19.410
 1860DOPG   C1A44177  11.400  30.050  19.150
 1860DOPG   D2A44178  11.340  29.620  19.120
 1860DOPG   C3A44179  10.970  29.400  19.330
 1860DOPG   C4A44180  11.020  28.970  19.610
 1860DOPG   C1B44181  10.910  30.000  19.130
 1860DOPG   D2B44182  10.780  29.620  18.870
 1860DOPG   C3B44183  10.830  29.190  18.920
 1860DOPG   C4B44184  10.590  28.820  18.840
 1861DOPG   GL044185   6.360  13.800  18.050
 1861DOPG   PO444186   5.970  14.010  18.210
 1861DOPG   GL144187   5.870  13.720  18.480
 1861DOPG   GL244188   5.960  13.380  18.370
 1861DOPG   C1A44189   5.550  13.570  18.690
 1861DOPG   D2A44190   5.540  13.500  19.170
 1861DOPG   C3A44191   5.400  13.130  19.550
 1861DOPG   C4A44192   5.200  12.810  19.880
 1861DOPG   C1B44193   5.510  13.220  18.260
 1861DOPG   D2B44194   5.040  13.140  18.280
 1861DOPG   C3B44195   4.780  12.750  18.070
 1861DOPG   C4B44196   4.840  12.350  18.350
 1862DOPG   GL044197   8.100  15.750   9.560
 1862DOPG   PO444198   8.080  16.220   9.680
 1862DOPG   GL144199   8.390  16.150  10.030
 1862DOPG   GL244200   8.210  16.370  10.240
 1862DOPG   C1A44201   8.620  16.160  10.350
 1862DOPG   D2A44202   8.980  16.170  10.630
 1862DOPG   C3A44203   9.010  15.800  10.840
 1862DOPG   C4A44204   9.290  15.690  11.210
 1862DOPG   C1B44205   8.150  16.490  10.630
 1862DOPG   D2B44206   8.160  16.200  11.040
 1862DOPG   C3B44207   8.380  16.330  11.400
 1862DOPG   C4B44208   8.520  16.140  11.820
 1863DOPG   GL044209  35.230  23.910  10.750
 1863DOPG   PO444210  35.440  24.290  10.760
 1863DOPG   GL144211  35.830  24.080  10.800
 1863DOPG   GL244212  35.740  23.710  10.960
 1863DOPG   C1A44213  36.170  23.840  10.760
 1863DOPG   D2A44214   0.120  23.520  10.550
 1863DOPG   C3A44215   0.110  23.160  10.610
 1863DOPG   C4A44216   0.110  22.910  10.320
 1863DOPG   C1B44217  36.010  23.410  11.030
 1863DOPG   D2B44218  36.150  23.170  11.160
 1863DOPG   C3B44219  36.140  23.040  11.630
 1863DOPG   C4B44220   0.140  22.890  11.830
 1864DOPG   GL044221  16.140  13.270  24.130
 1864DOPG   PO444222  15.730  13.080  24.090
 1864DOPG   GL144223  15.670  13.400  23.840
 1864DOPG   GL244224  15.950  13.600  23.760
 1864DOPG   C1A44225  15.380  13.760  23.520
 1864DOPG   D2A44226  15.120  14.270  23.540
 1864DOPG   C3A44227  14.910  14.650  23.360
 1864DOPG   C4A44228  14.990  15.020  23.090
 1864DOPG   C1B44229  15.770  14.040  23.620
 1864DOPG   D2B44230  15.690  14.400  23.380
 1864DOPG   C3B44231  15.580  14.730  23.570
 1864DOPG   C4B44232  15.360  14.830  23.900
 1865DOPG   GL044233  12.850   6.340  12.930
 1865DOPG   PO444234  12.740   6.760  12.850
 1865DOPG   GL144235  12.540   7.010  13.150
 1865DOPG   GL244236  12.820   7.180  13.290
 1865DOPG   C1A44237  12.250   7.300  13.350
 1865DOPG   D2A44238  12.390   7.830  13.470
 1865DOPG   C3A44239  12.460   8.170  13.140
 1865DOPG   C4A44240  12.610   8.480  13.290
 1865DOPG   C1B44241  12.840   7.630  13.380
 1865DOPG   D2B44242  12.860   8.080  13.490
 1865DOPG   C3B44243  12.530   8.320  13.710
 1865DOPG   C4B44244  12.490   8.620  13.850
 1866DOPG   GL044245   2.990  15.150  14.040
 1866DOPG   PO444246   2.640  14.910  14.010
 1866DOPG   GL144247   2.400  14.550  13.880
 1866DOPG   GL244248   2.600  14.290  13.880
 1866DOPG   C1A44249   2.040  14.300  13.800
 1866DOPG   D2A44250   1.690  14.000  13.850
 1866DOPG   C3A44251   1.770  13.510  13.690
 1866DOPG   C4A44252   2.070  13.290  13.590
 1866DOPG   C1B44253   2.460  13.910  13.950
 1866DOPG   D2B44254   2.180  13.580  13.960
 1866DOPG   C3B44255   1.850  13.150  14.040
 1866DOPG   C4B44256   1.680  12.760  14.140
 1867DOPG   GL044257   6.560  14.580   9.530
 1867DOPG   PO444258   6.940  14.560   9.310
 1867DOPG   GL144259   6.670  14.440   8.920
 1867DOPG   GL244260   6.350  14.360   8.970
 1867DOPG   C1A44261   6.570  14.470   8.420
 1867DOPG   D2A44262   6.450  14.520   7.990
 1867DOPG   C3A44263   6.410  14.500   7.550
 1867DOPG   C4A44264   5.950  14.580   7.420
 1867DOPG   C1B44265   6.120  14.150   8.740
 1867DOPG   D2B44266   6.110  14.100   8.310
 1867DOPG   C3B44267   5.780  13.910   8.110
 1867DOPG   C4B44268   5.510  13.580   8.240
 1868DOPG   GL044269  17.020  20.800  19.920
 1868DOPG   PO444270  17.210  21.200  19.870
 1868DOPG   GL144271  17.440  21.280  20.200
 1868DOPG   GL244272  17.470  21.530  20.320
 1868DOPG   C1A44273  17.700  20.990  20.380
 1868DOPG   D2A44274  18.070  20.900  20.560
 1868DOPG   C3A44275  18.260  21.110  20.770
 1868DOPG   C4A44276  18.370  21.060  21.220
 1868DOPG   C1B44277  17.600  21.480  20.740
 1868DOPG   D2B44278  17.610  21.350  21.160
 1868DOPG   C3B44279  18.010  21.380  21.320
 1868DOPG   C4B44280  18.210  21.310  21.630
 1869DOPG   GL044281  12.870  11.900  12.410
 1869DOPG   PO444282  13.020  12.300  12.500
 1869DOPG   GL144283  12.720  12.640  12.400
 1869DOPG   GL244284  12.440  12.720  12.510
 1869DOPG   C1A44285  12.620  13.100  12.180
 1869DOPG   D2A44286  12.440  13.430  12.140
 1869DOPG   C3A44287  12.210  13.670  12.390
 1869DOPG   C4A44288  12.180  13.860  12.790
 1869DOPG   C1B44289  12.490  13.130  12.620
 1869DOPG   D2B44290  12.530  13.500  12.810
 1869DOPG   C3B44291  12.930  13.720  13.000
 1869DOPG   C4B44292  13.150  14.030  13.290
 1870DOPG   GL044293   5.180  20.490  21.610
 1870DOPG   PO444294   5.350  20.140  21.420
 1870DOPG   GL144295   5.140  20.080  21.900
 1870DOPG   GL244296   5.130  19.790  21.830
 1870DOPG   C1A44297   4.690  20.210  22.110
 1870DOPG   D2A44298   4.330  20.410  22.450
 1870DOPG   C3A44299   3.900  20.510  22.250
 1870DOPG   C4A44300   3.460  20.460  22.440
 1870DOPG   C1B44301   4.730  19.670  22.120
 1870DOPG   D2B44302   4.350  19.470  22.180
 1870DOPG   C3B44303   4.410  19.270  22.570
 1870DOPG   C4B44304   4.360  19.020  22.880
 1871DOPG   GL044305  18.720  23.010  14.610
 1871DOPG   PO444306  18.900  23.120  14.910
 1871DOPG   GL144307  19.320  23.220  14.970
 1871DOPG   GL244308  19.570  22.930  14.920
 1871DOPG   C1A44309  19.650  23.400  15.220
 1871DOPG   D2A44310  20.000  23.610  15.140
 1871DOPG   C3A44311  20.390  23.740  15.410
 1871DOPG   C4A44312  20.200  23.820  15.790
 1871DOPG   C1B44313  19.820  23.260  14.770
 1871DOPG   D2B44314  20.290  23.240  14.800
 1871DOPG   C3B44315  20.580  23.330  14.560
 1871DOPG   C4B44316  20.890  23.470  14.250
 1872DOPG   GL044317  16.640  13.280  13.020
 1872DOPG   PO444318  16.400  13.640  13.140
 1872DOPG   GL144319  16.520  14.140  13.080
 1872DOPG   GL244320  16.580  14.270  12.850
 1872DOPG   C1A44321  16.400  14.480  13.220
 1872DOPG   D2A44322  16.100  14.640  13.480
 1872DOPG   C3A44323  15.860  14.460  13.800
 1872DOPG   C4A44324  15.690  14.630  14.180
 1872DOPG   C1B44325  16.320  14.590  12.600
 1872DOPG   D2B44326  15.920  14.730  12.610
 1872DOPG   C3B44327  15.890  15.120  12.360
 1872DOPG   C4B44328  16.030  15.450  12.600
 1873DOPG   GL044329   8.780  11.310  12.470
 1873DOPG   PO444330   8.430  11.500  12.590
 1873DOPG   GL144331   8.360  11.000  12.320
 1873DOPG   GL244332   8.460  10.710  12.530
 1873DOPG   C1A44333   8.220  10.750  11.980
 1873DOPG   D2A44334   8.240  10.380  11.700
 1873DOPG   C3A44335   8.290   9.990  11.560
 1873DOPG   C4A44336   8.270   9.770  11.200
 1873DOPG   C1B44337   8.540  10.340  12.360
 1873DOPG   D2B44338   8.220  10.160  12.130
 1873DOPG   C3B44339   8.170   9.750  11.960
 1873DOPG   C4B44340   8.230   9.420  11.670
 1874DOPG   GL044341  18.990  17.350  15.490
 1874DOPG   PO444342  18.610  17.620  15.640
 1874DOPG   GL144343  18.340  17.470  15.550
 1874DOPG   GL244344  18.120  17.450  15.740
 1874DOPG   C1A44345  17.940  17.510  15.300
 1874DOPG   D2A44346  17.600  17.590  14.890
 1874DOPG   C3A44347  17.280  17.510  14.750
 1874DOPG   C4A44348  17.140  17.700  14.320
 1874DOPG   C1B44349  17.750  17.530  15.740
 1874DOPG   D2B44350  17.610  17.890  15.560
 1874DOPG   C3B44351  17.360  18.130  15.750
 1874DOPG   C4B44352  17.090  18.420  16.090
 1875DOPG   GL044353   8.550  14.970  19.340
 1875DOPG   PO444354   8.230  15.240  19.370
 1875DOPG   GL144355   8.030  15.440  19.040
 1875DOPG   GL244356   8.320  15.480  18.900
 1875DOPG   C1A44357   8.050  15.840  18.770
 1875DOPG   D2A44358   7.850  16.010  18.350
 1875DOPG   C3A44359   8.060  16.380  18.150
 1875DOPG   C4A44360   8.130  16.760  17.890
 1875DOPG   C1B44361   8.530  15.920  18.740
 1875DOPG   D2B44362   8.820  16.250  18.400
 1875DOPG   C3B44363   8.560  16.500  18.210
 1875DOPG   C4B44364   8.270  16.790  18.390
 1876DOPG   GL044365   2.350  19.870  18.080
 1876DOPG   PO444366   2.180  19.730  17.690
 1876DOPG   GL144367   1.790  19.730  17.900
 1876DOPG   GL244368   1.450  19.730  17.770
 1876DOPG   C1A44369   1.540  19.660  18.260
 1876DOPG   D2A44370   1.620  19.600  18.630
 1876DOPG   C3A44371   1.480  19.890  19.020
 1876DOPG   C4A44372   0.970  20.080  19.030
 1876DOPG   C1B44373   1.160  19.400  18.000
 1876DOPG   D2B44374   1.160  19.350  18.450
 1876DOPG   C3B44375   0.820  19.200  18.760
 1876DOPG   C4B44376   0.540  18.910  18.680
 1877DOPG   GL044377   2.810  22.920  17.990
 1877DOPG   PO444378   2.420  22.760  18.020
 1877DOPG   GL144379   2.240  22.740  18.350
 1877DOPG   GL244380   2.100  22.500  18.500
 1877DOPG   C1A44381   1.980  23.040  18.620
 1877DOPG   D2A44382   1.770  23.340  18.960
 1877DOPG   C3A44383   1.750  23.410  19.400
 1877DOPG   C4A44384   2.080  23.310  19.790
 1877DOPG   C1B44385   1.840  22.630  18.730
 1877DOPG   D2B44386   1.530  22.550  19.030
 1877DOPG   C3B44387   1.120  22.630  18.950
 1877DOPG   C4B44388   0.710  22.560  19.090
 1878DOPG   GL044389   9.290  11.370  24.140
 1878DOPG   PO444390   9.390  11.390  23.740
 1878DOPG   GL144391   9.570  11.700  23.530
 1878DOPG   GL244392   9.310  11.950  23.330
 1878DOPG   C1A44393   9.850  12.150  23.420
 1878DOPG   D2A44394  10.190  12.460  23.530
 1878DOPG   C3A44395  10.440  12.650  23.290
 1878DOPG   C4A44396  10.910  12.710  23.290
 1878DOPG   C1B44397   9.640  12.030  22.980
 1878DOPG   D2B44398   9.840  12.390  22.770
 1878DOPG   C3B44399  10.160  12.390  22.520
 1878DOPG   C4B44400  10.280  12.300  22.210
 1879DOPG   GL044401   9.620  17.820  21.230
 1879DOPG   PO444402   9.900  17.860  20.930
 1879DOPG   GL144403  10.190  18.030  20.560
 1879DOPG   GL244404  10.060  17.700  20.350
 1879DOPG   C1A44405  10.150  18.290  20.240
 1879DOPG   D2A44406  10.180  18.590  19.960
 1879DOPG   C3A44407  10.160  18.520  19.530
 1879DOPG   C4A44408  10.250  18.700  19.120
 1879DOPG   C1B44409  10.170  17.890  19.950
 1879DOPG   D2B44410  10.510  17.910  19.600
 1879DOPG   C3B44411  10.660  17.550  19.350
 1879DOPG   C4B44412  10.790  17.070  19.350
 1880DOPG   GL044413   6.360  19.930  11.140
 1880DOPG   PO444414   6.050  19.980  11.520
 1880DOPG   GL144415   6.450  19.870  11.690
 1880DOPG   GL244416   6.530  20.190  11.560
 1880DOPG   C1A44417   6.850  19.640  11.580
 1880DOPG   D2A44418   7.130  19.510  11.740
 1880DOPG   C3A44419   7.190  19.120  11.960
 1880DOPG   C4A44420   7.600  18.920  12.200
 1880DOPG   C1B44421   6.870  20.080  11.310
 1880DOPG   D2B44422   7.220  20.150  11.060
 1880DOPG   C3B44423   7.300  19.890  10.690
 1880DOPG   C4B44424   7.530  19.930  10.370
 1881DOPG   GL044425  12.660  23.650  21.030
 1881DOPG   PO444426  12.850  23.160  20.820
 1881DOPG   GL144427  13.010  22.890  20.480
 1881DOPG   GL244428  13.190  22.610  20.460
 1881DOPG   C1A44429  13.060  22.770  19.990
 1881DOPG   D2A44430  12.900  22.770  19.570
 1881DOPG   C3A44431  12.670  22.480  19.380
 1881DOPG   C4A44432  12.600  22.170  19.810
 1881DOPG   C1B44433  13.190  22.320  20.170
 1881DOPG   D2B44434  13.170  21.950  19.890
 1881DOPG   C3B44435  13.450  21.940  19.590
 1881DOPG   C4B44436  13.550  21.830  19.160
 1882DOPG   GL044437   4.910  18.090  12.560
 1882DOPG   PO444438   5.250  18.280  12.940
 1882DOPG   GL144439   5.670  18.320  12.890
 1882DOPG   GL244440   5.730  18.060  13.120
 1882DOPG   C1A44441   6.140  18.390  12.870
 1882DOPG   D2A44442   6.570  18.670  12.680
 1882DOPG   C3A44443   6.890  18.550  12.850
 1882DOPG   C4A44444   6.970  18.160  12.830
 1882DOPG   C1B44445   6.080  17.930  13.000
 1882DOPG   D2B44446   6.470  18.050  12.950
 1882DOPG   C3B44447   6.710  18.230  13.260
 1882DOPG   C4B44448   7.140  18.400  13.490
 1883DOPG   GL044449  15.390  24.950  12.740
 1883DOPG   PO444450  15.490  24.760  12.310
 1883DOPG   GL144451  15.390  24.230  12.520
 1883DOPG   GL244452  15.250  24.250  12.770
 1883DOPG   C1A44453  15.030  24.040  12.300
 1883DOPG   D2A44454  14.680  23.900  12.510
 1883DOPG   C3A44455  14.460  23.730  12.140
 1883DOPG   C4A44456  14.670  23.560  11.760
 1883DOPG   C1B44457  15.260  24.120  13.190
 1883DOPG   D2B44458  15.070  23.820  13.420
 1883DOPG   C3B44459  15.270  23.760  13.840
 1883DOPG   C4B44460  15.470  23.890  14.300
 1884DOPG   GL044461   5.630  20.300  19.040
 1884DOPG   PO444462   6.050  20.370  19.090
 1884DOPG   GL144463   6.470  20.510  18.820
 1884DOPG   GL244464   6.600  20.430  19.010
 1884DOPG   C1A44465   6.750  20.700  18.530
 1884DOPG   D2A44466   7.240  20.830  18.390
 1884DOPG   C3A44467   7.410  20.680  18.010
 1884DOPG   C4A44468   7.710  20.730  17.660
 1884DOPG   C1B44469   7.110  20.460  18.950
 1884DOPG   D2B44470   7.510  20.650  18.800
 1884DOPG   C3B44471   7.720  20.490  18.340
 1884DOPG   C4B44472   8.040  20.460  17.900
 1885DOPG   GL044473   6.120  21.100  13.250
 1885DOPG   PO444474   5.930  20.690  13.200
 1885DOPG   GL144475   6.380  20.550  13.390
 1885DOPG   GL244476   6.570  20.410  13.630
 1885DOPG   C1A44477   6.910  20.720  13.380
 1885DOPG   D2A44478   7.290  20.890  13.080
 1885DOPG   C3A44479   7.570  21.160  13.170
 1885DOPG   C4A44480   7.800  21.040  13.470
 1885DOPG   C1B44481   6.870  20.150  13.940
 1885DOPG   D2B44482   7.210  20.010  14.200
 1885DOPG   C3B44483   7.340  19.610  14.300
 1885DOPG   C4B44484   7.150  19.380  14.030
 1886DOPG   GL044485  20.930  26.620  10.850
 1886DOPG   PO444486  20.780  26.260  10.860
 1886DOPG   GL144487  20.630  25.910  11.150
 1886DOPG   GL244488  20.570  25.560  11.110
 1886DOPG   C1A44489  20.340  25.930  11.480
 1886DOPG   D2A44490  20.000  25.750  11.710
 1886DOPG   C3A44491  19.590  25.600  11.890
 1886DOPG   C4A44492  19.210  25.350  11.800
 1886DOPG   C1B44493  20.200  25.240  11.000
 1886DOPG   D2B44494  20.100  24.870  11.270
 1886DOPG   C3B44495  20.040  24.400  11.120
 1886DOPG   C4B44496  19.940  24.100  11.330
 1887DOPG   GL044497   5.410  14.650  14.120
 1887DOPG   PO444498   5.630  14.680  13.750
 1887DOPG   GL144499   5.990  14.870  13.780
 1887DOPG   GL244500   6.040  15.070  14.030
 1887DOPG   C1A44501   6.420  14.850  13.620
 1887DOPG   D2A44502   6.720  14.610  13.420
 1887DOPG   C3A44503   6.630  14.400  13.040
 1887DOPG   C4A44504   6.530  14.090  12.750
 1887DOPG   C1B44505   6.350  14.840  14.120
 1887DOPG   D2B44506   6.740  15.000  13.970
 1887DOPG   C3B44507   7.210  14.940  14.200
 1887DOPG   C4B44508   7.280  14.530  14.320
 1888DOPG   GL044509   7.460  31.060  18.610
 1888DOPG   PO444510   7.370  30.950  18.210
 1888DOPG   GL144511   7.360  30.510  18.160
 1888DOPG   GL244512   7.350  30.370  18.560
 1888DOPG   C1A44513   7.700  30.150  18.270
 1888DOPG   D2A44514   7.920  29.850  18.020
 1888DOPG   C3A44515   8.260  29.550  17.990
 1888DOPG   C4A44516   8.400  29.260  18.090
 1888DOPG   C1B44517   7.520  30.110  18.800
 1888DOPG   D2B44518   7.190  29.700  18.960
 1888DOPG   C3B44519   7.140  29.320  18.780
 1888DOPG   C4B44520   7.030  28.960  18.670
 1889DOPG   GL044521  10.250  15.860   8.420
 1889DOPG   PO444522  10.220  15.850   8.800
 1889DOPG   GL144523  10.490  15.790   9.260
 1889DOPG   GL244524  10.750  15.810   9.040
 1889DOPG   C1A44525  10.610  15.850   9.670
 1889DOPG   D2A44526  11.070  15.990   9.730
 1889DOPG   C3A44527  11.190  16.350   9.860
 1889DOPG   C4A44528  11.670  16.340   9.990
 1889DOPG   C1B44529  11.010  15.710   9.350
 1889DOPG   D2B44530  11.390  15.560   9.630
 1889DOPG   C3B44531  11.520  15.820   9.840
 1889DOPG   C4B44532  12.010  15.830  10.030
 1890DOPG   GL044533  17.160  14.260  16.270
 1890DOPG   PO444534  16.980  14.710  16.600
 1890DOPG   GL144535  16.670  14.970  16.260
 1890DOPG   GL244536  16.380  14.850  16.340
 1890DOPG   C1A44537  16.490  15.300  15.990
 1890DOPG   D2A44538  16.230  15.140  15.580
 1890DOPG   C3A44539  15.990  15.300  15.330
 1890DOPG   C4A44540  15.970  15.230  14.900
 1890DOPG   C1B44541  16.040  14.900  16.010
 1890DOPG   D2B44542  15.540  14.640  16.020
 1890DOPG   C3B44543  15.220  14.810  15.650
 1890DOPG   C4B44544  14.870  15.160  15.630
 1891DOPG   GL044545   7.430  15.700  20.720
 1891DOPG   PO444546   7.070  15.680  20.930
 1891DOPG   GL144547   6.780  15.450  21.120
 1891DOPG   GL244548   6.730  15.660  21.420
 1891DOPG   C1A44549   6.560  14.940  21.140
 1891DOPG   D2A44550   6.240  14.640  20.900
 1891DOPG   C3A44551   5.770  14.640  21.100
 1891DOPG   C4A44552   5.330  14.550  21.320
 1891DOPG   C1B44553   6.360  15.340  21.400
 1891DOPG   D2B44554   6.070  15.220  21.770
 1891DOPG   C3B44555   6.020  15.370  22.170
 1891DOPG   C4B44556   6.390  15.510  22.430
 1892DOPG   GL044557  22.430  13.390  12.790
 1892DOPG   PO444558  22.230  13.160  12.480
 1892DOPG   GL144559  21.780  13.150  12.610
 1892DOPG   GL244560  21.770  13.480  12.620
 1892DOPG   C1A44561  21.260  13.300  12.710
 1892DOPG   D2A44562  20.950  13.200  12.630
 1892DOPG   C3A44563  20.580  13.230  12.600
 1892DOPG   C4A44564  20.130  13.260  12.470
 1892DOPG   C1B44565  21.440  13.840  12.600
 1892DOPG   D2B44566  21.100  13.760  12.740
 1892DOPG   C3B44567  20.750  13.930  13.130
 1892DOPG   C4B44568  20.460  14.140  13.240
 1893DOPG   GL044569   3.720  22.550  19.260
 1893DOPG   PO444570   3.370  22.440  18.880
 1893DOPG   GL144571   3.130  22.420  19.330
 1893DOPG   GL244572   3.110  22.660  19.360
 1893DOPG   C1A44573   2.690  22.220  19.510
 1893DOPG   D2A44574   2.390  22.460  19.700
 1893DOPG   C3A44575   2.230  22.510  20.170
 1893DOPG   C4A44576   2.460  22.700  20.660
 1893DOPG   C1B44577   2.840  22.810  19.700
 1893DOPG   D2B44578   2.620  22.780  20.080
 1893DOPG   C3B44579   2.460  22.990  20.130
 1893DOPG   C4B44580   2.290  23.360  20.240
 1894DOPG   GL044581  19.170  13.360  23.070
 1894DOPG   PO444582  19.190  13.800  22.930
 1894DOPG   GL144583  18.770  13.890  22.860
 1894DOPG   GL244584  18.510  13.630  22.800
 1894DOPG   C1A44585  18.550  14.210  22.690
 1894DOPG   D2A44586  18.390  14.590  22.550
 1894DOPG   C3A44587  18.520  14.880  22.260
 1894DOPG   C4A44588  18.390  15.180  21.990
 1894DOPG   C1B44589  18.490  13.790  22.380
 1894DOPG   D2B44590  18.600  13.650  22.000
 1894DOPG   C3B44591  18.270  13.780  21.620
 1894DOPG   C4B44592  17.950  14.070  21.320
 1895DOPG   GL044593  16.010  12.700  13.220
 1895DOPG   PO444594  15.590  12.740  13.320
 1895DOPG   GL144595  15.260  13.010  13.300
 1895DOPG   GL244596  14.980  12.920  13.050
 1895DOPG   C1A44597  15.210  13.330  13.460
 1895DOPG   D2A44598  14.930  13.630  13.500
 1895DOPG   C3A44599  14.780  13.780  13.950
 1895DOPG   C4A44600  14.900  14.140  14.170
 1895DOPG   C1B44601  14.730  13.220  13.320
 1895DOPG   D2B44602  14.420  13.530  13.530
 1895DOPG   C3B44603  14.490  13.920  13.570
 1895DOPG   C4B44604  14.330  14.250  13.680
 1896DOPG   GL044605  16.450  23.390  18.100
 1896DOPG   PO444606  16.650  23.580  17.820
 1896DOPG   GL144607  16.190  23.520  17.630
 1896DOPG   GL244608  15.980  23.680  17.480
 1896DOPG   C1A44609  15.930  23.250  17.240
 1896DOPG   D2A44610  15.920  22.870  17.090
 1896DOPG   C3A44611  15.870  22.730  16.780
 1896DOPG   C4A44612  15.440  22.550  16.420
 1896DOPG   C1B44613  16.180  23.740  17.050
 1896DOPG   D2B44614  15.920  23.740  16.680
 1896DOPG   C3B44615  15.690  24.120  16.700
 1896DOPG   C4B44616  15.390  24.260  17.010
 1897DOPG   GL044617  16.880  17.170  19.370
 1897DOPG   PO444618  16.880  17.590  19.410
 1897DOPG   GL144619  16.500  17.620  19.140
 1897DOPG   GL244620  16.400  17.280  19.180
 1897DOPG   C1A44621  16.220  17.900  18.790
 1897DOPG   D2A44622  16.160  18.410  18.580
 1897DOPG   C3A44623  15.880  18.610  18.590
 1897DOPG   C4A44624  15.570  18.910  18.570
 1897DOPG   C1B44625  16.250  17.130  18.730
 1897DOPG   D2B44626  16.030  17.230  18.260
 1897DOPG   C3B44627  15.530  17.190  18.190
 1897DOPG   C4B44628  15.250  17.350  18.380
 1898DOPG   GL044629  22.910  22.840  15.150
 1898DOPG   PO444630  23.350  22.930  14.930
 1898DOPG   GL144631  23.070  22.760  14.570
 1898DOPG   GL244632  22.950  22.930  14.310
 1898DOPG   C1A44633  22.780  22.570  14.780
 1898DOPG   D2A44634  22.410  22.530  15.160
 1898DOPG   C3A44635  21.980  22.460  15.250
 1898DOPG   C4A44636  21.790  22.210  15.570
 1898DOPG   C1B44637  22.480  23.110  14.390
 1898DOPG   D2B44638  22.050  23.200  14.560
 1898DOPG   C3B44639  21.790  22.780  14.770
 1898DOPG   C4B44640  21.640  22.370  14.850
 1899DOPG   GL044641  13.420  11.970  16.380
 1899DOPG   PO444642  13.710  11.800  16.070
 1899DOPG   GL144643  13.650  12.120  15.840
 1899DOPG   GL244644  13.420  12.240  15.980
 1899DOPG   C1A44645  13.860  12.410  15.550
 1899DOPG   D2A44646  13.820  12.410  15.090
 1899DOPG   C3A44647  13.880  12.700  14.760
 1899DOPG   C4A44648  13.990  13.020  14.530
 1899DOPG   C1B44649  12.950  12.120  16.120
 1899DOPG   D2B44650  12.610  12.060  15.960
 1899DOPG   C3B44651  12.530  12.170  15.550
 1899DOPG   C4B44652  12.470  11.900  15.180
 1900DOPG   GL044653  12.540  17.630  21.550
 1900DOPG   PO444654  12.410  17.600  21.230
 1900DOPG   GL144655  12.500  17.410  20.760
 1900DOPG   GL244656  12.610  17.560  20.520
 1900DOPG   C1A44657  12.700  17.070  20.460
 1900DOPG   D2A44658  12.610  16.850  20.130
 1900DOPG   C3A44659  12.730  16.780  19.660
 1900DOPG   C4A44660  12.620  17.110  19.370
 1900DOPG   C1B44661  12.400  17.630  20.130
 1900DOPG   D2B44662  12.160  17.730  19.810
 1900DOPG   C3B44663  12.200  18.130  19.590
 1900DOPG   C4B44664  11.780  18.420  19.700
 1901DOPG   GL044665  15.930  23.060  18.300
 1901DOPG   PO444666  16.010  23.110  17.900
 1901DOPG   GL144667  15.580  22.920  17.840
 1901DOPG   GL244668  15.790  22.750  17.610
 1901DOPG   C1A44669  15.300  22.540  17.710
 1901DOPG   D2A44670  15.300  22.100  17.620
 1901DOPG   C3A44671  14.990  21.820  17.500
 1901DOPG   C4A44672  14.940  21.680  17.050
 1901DOPG   C1B44673  15.530  22.390  17.320
 1901DOPG   D2B44674  15.200  22.100  17.110
 1901DOPG   C3B44675  15.120  22.200  16.700
 1901DOPG   C4B44676  15.260  22.120  16.220
 1902DOPG   GL044677   4.350  25.660  14.450
 1902DOPG   PO444678   4.220  26.000  14.650
 1902DOPG   GL144679   4.210  26.370  14.540
 1902DOPG   GL244680   4.140  26.540  14.810
 1902DOPG   C1A44681   4.020  26.760  14.330
 1902DOPG   D2A44682   4.300  27.130  14.050
 1902DOPG   C3A44683   4.180  27.510  13.920
 1902DOPG   C4A44684   4.500  27.900  13.840
 1902DOPG   C1B44685   3.890  26.910  14.810
 1902DOPG   D2B44686   3.910  27.370  14.890
 1902DOPG   C3B44687   3.610  27.590  15.180
 1902DOPG   C4B44688   3.130  27.680  15.150
 1903DOPG   GL044689  11.000  13.590   9.300
 1903DOPG   PO444690  11.010  13.760   9.610
 1903DOPG   GL144691  10.730  13.930  10.040
 1903DOPG   GL244692  10.590  14.250  10.050
 1903DOPG   C1A44693  10.770  14.110  10.530
 1903DOPG   D2A44694  10.750  14.100  11.000
 1903DOPG   C3A44695  10.980  13.760  11.320
 1903DOPG   C4A44696  11.330  13.900  11.320
 1903DOPG   C1B44697  10.550  14.520  10.350
 1903DOPG   D2B44698  10.370  14.810  10.660
 1903DOPG   C3B44699  10.590  15.110  10.900
 1903DOPG   C4B44700  11.030  14.960  10.970
 1904DOPG   GL044701   7.710  24.170  21.370
 1904DOPG   PO444702   7.890  24.070  21.750
 1904DOPG   GL144703   7.920  24.370  22.090
 1904DOPG   GL244704   7.970  24.770  22.090
 1904DOPG   C1A44705   7.820  24.500  22.480
 1904DOPG   D2A44706   7.740  24.610  22.870
 1904DOPG   C3A44707   7.400  24.740  23.070
 1904DOPG   C4A44708   6.980  24.690  23.010
 1904DOPG   C1B44709   8.050  24.950  22.580
 1904DOPG   D2B44710   8.390  25.160  22.910
 1904DOPG   C3B44711   8.500  25.520  23.110
 1904DOPG   C4B44712   8.340  25.940  23.100
 1905DOPG   GL044713   6.460  20.690  12.940
 1905DOPG   PO444714   6.330  20.500  12.520
 1905DOPG   GL144715   6.690  20.320  12.530
 1905DOPG   GL244716   6.810  20.260  12.870
 1905DOPG   C1A44717   7.070  20.310  12.270
 1905DOPG   D2A44718   7.060  19.990  11.920
 1905DOPG   C3A44719   7.310  19.930  11.620
 1905DOPG   C4A44720   7.680  20.090  11.410
 1905DOPG   C1B44721   7.140  20.380  12.890
 1905DOPG   D2B44722   7.520  20.390  13.000
 1905DOPG   C3B44723   7.830  20.210  12.860
 1905DOPG   C4B44724   8.040  20.390  12.680
 1906DOPG   GL044725   1.710  21.380  16.510
 1906DOPG   PO444726   1.740  20.980  16.470
 1906DOPG   GL144727   1.310  21.160  16.630
 1906DOPG   GL244728   1.200  20.940  16.710
 1906DOPG   C1A44729   0.970  21.420  16.620
 1906DOPG   D2A44730   0.720  21.610  16.960
 1906DOPG   C3A44731   0.300  21.710  16.900
 1906DOPG   C4A44732  36.330  21.610  17.070
 1906DOPG   C1B44733   0.810  20.980  17.000
 1906DOPG   D2B44734   0.440  21.200  17.040
 1906DOPG   C3B44735   0.050  20.960  16.860
 1906DOPG   C4B44736  36.070  20.670  16.570
 1907DOPG   GL044737  12.500  25.400  18.850
 1907DOPG   PO444738  12.400  25.260  18.480
 1907DOPG   GL144739  12.380  24.760  18.550
 1907DOPG   GL244740  12.630  24.700  18.810
 1907DOPG   C1A44741  12.590  24.560  18.290
 1907DOPG   D2A44742  12.530  24.320  17.890
 1907DOPG   C3A44743  12.390  23.830  17.880
 1907DOPG   C4A44744  12.250  23.460  17.830
 1907DOPG   C1B44745  12.440  24.220  18.690
 1907DOPG   D2B44746  12.380  23.820  18.710
 1907DOPG   C3B44747  12.210  23.670  18.360
 1907DOPG   C4B44748  11.790  23.500  18.250
 1908DOPG   GL044749   8.900  18.370  21.260
 1908DOPG   PO444750   8.770  18.600  20.940
 1908DOPG   GL144751   8.790  18.840  20.530
 1908DOPG   GL244752   8.510  18.680  20.370
 1908DOPG   C1A44753   8.790  19.060  20.240
 1908DOPG   D2A44754   8.720  19.130  19.790
 1908DOPG   C3A44755   8.970  18.860  19.490
 1908DOPG   C4A44756   9.150  18.840  19.050
 1908DOPG   C1B44757   8.790  18.600  19.930
 1908DOPG   D2B44758   9.130  18.290  19.640
 1908DOPG   C3B44759   9.150  18.200  19.230
 1908DOPG   C4B44760   9.440  18.030  18.930
 1909DOPG   GL044761  24.070  17.120  16.270
 1909DOPG   PO444762  23.660  17.090  16.490
 1909DOPG   GL144763  23.220  16.810  16.410
 1909DOPG   GL244764  23.020  16.750  16.700
 1909DOPG   C1A44765  22.860  16.770  16.120
 1909DOPG   D2A44766  22.780  17.100  16.050
 1909DOPG   C3A44767  22.430  17.310  16.180
 1909DOPG   C4A44768  22.060  17.350  16.420
 1909DOPG   C1B44769  22.670  16.850  16.520
 1909DOPG   D2B44770  22.180  16.860  16.500
 1909DOPG   C3B44771  21.970  16.540  16.490
 1909DOPG   C4B44772  21.590  16.470  16.500
 1910DOPG   GL044773   9.130  20.700  21.650
 1910DOPG   PO444774   9.090  20.780  21.320
 1910DOPG   GL144775   9.280  20.780  20.950
 1910DOPG   GL244776   9.650  20.840  20.930
 1910DOPG   C1A44777   9.090  20.750  20.580
 1910DOPG   D2A44778   9.110  20.490  20.210
 1910DOPG   C3A44779   9.170  20.610  19.840
 1910DOPG   C4A44780   9.280  20.990  19.550
 1910DOPG   C1B44781   9.570  20.660  20.590
 1910DOPG   D2B44782   9.630  20.250  20.240
 1910DOPG   C3B44783   9.610  20.380  19.730
 1910DOPG   C4B44784   9.240  20.480  19.360
 1911DOPG   GL044785   7.090  24.320  15.260
 1911DOPG   PO444786   7.580  24.410  15.150
 1911DOPG   GL144787   7.970  24.440  14.950
 1911DOPG   GL244788   7.840  24.120  14.700
 1911DOPG   C1A44789   8.280  24.160  14.970
 1911DOPG   D2A44790   8.640  24.040  14.790
 1911DOPG   C3A44791   8.880  24.430  14.580
 1911DOPG   C4A44792   9.050  24.690  14.280
 1911DOPG   C1B44793   7.930  23.800  14.930
 1911DOPG   D2B44794   8.060  23.320  14.990
 1911DOPG   C3B44795   8.110  23.100  15.280
 1911DOPG   C4B44796   8.160  23.170  15.720
 1912DOPG   GL044797  16.910  16.460  18.990
 1912DOPG   PO444798  17.030  16.570  18.610
 1912DOPG   GL144799  16.810  16.750  18.390
 1912DOPG   GL244800  16.640  16.410  18.330
 1912DOPG   C1A44801  16.540  17.010  17.990
 1912DOPG   D2A44802  16.640  16.840  17.600
 1912DOPG   C3A44803  16.440  17.010  17.190
 1912DOPG   C4A44804  16.400  17.080  16.790
 1912DOPG   C1B44805  16.410  16.400  17.930
 1912DOPG   D2B44806  16.090  16.210  17.660
 1912DOPG   C3B44807  15.740  16.490  17.510
 1912DOPG   C4B44808  15.510  16.810  17.670
 1913DOPG   GL044809   5.220  21.500  15.570
 1913DOPG   PO444810   5.600  21.330  15.860
 1913DOPG   GL144811   5.980  21.340  15.820
 1913DOPG   GL244812   6.090  21.170  15.620
 1913DOPG   C1A44813   6.290  21.610  15.640
 1913DOPG   D2A44814   6.720  21.500  15.600
 1913DOPG   C3A44815   6.990  21.550  15.210
 1913DOPG   C4A44816   7.300  21.640  15.010
 1913DOPG   C1B44817   6.550  20.950  15.780
 1913DOPG   D2B44818   6.850  21.090  15.910
 1913DOPG   C3B44819   6.770  21.480  16.080
 1913DOPG   C4B44820   6.750  21.990  15.920
 1914DOPG   GL044821   2.130  20.230  13.600
 1914DOPG   PO444822   1.700  20.210  13.890
 1914DOPG   GL144823   1.280  20.100  13.770
 1914DOPG   GL244824   1.030  19.890  13.770
 1914DOPG   C1A44825   0.970  20.380  13.800
 1914DOPG   D2A44826   0.600  20.410  13.790
 1914DOPG   C3A44827   0.280  20.730  13.820
 1914DOPG   C4A44828  36.250  20.940  13.920
 1914DOPG   C1B44829   0.800  19.780  13.410
 1914DOPG   D2B44830   0.540  19.450  13.310
 1914DOPG   C3B44831   0.180  19.260  13.490
 1914DOPG   C4B44832  36.160  18.960  13.480
 1915DOPG   GL044833  12.670  18.130  21.490
 1915DOPG   PO444834  12.500  18.400  21.560
 1915DOPG   GL144835  12.280  18.570  21.180
 1915DOPG   GL244836  12.220  18.890  21.100
 1915DOPG   C1A44837  12.020  18.500  20.930
 1915DOPG   D2A44838  11.820  18.480  20.500
 1915DOPG   C3A44839  11.790  18.110  20.260
 1915DOPG   C4A44840  11.520  17.990  19.870
 1915DOPG   C1B44841  11.710  19.040  21.010
 1915DOPG   D2B44842  11.500  19.330  21.060
 1915DOPG   C3B44843  11.200  19.360  20.620
 1915DOPG   C4B44844  10.820  19.260  20.460
 1916DOPG   GL044845  36.190  12.590  17.230
 1916DOPG   PO444846   0.320  12.580  17.240
 1916DOPG   GL144847   0.630  12.850  16.950
 1916DOPG   GL244848   0.670  13.110  17.080
 1916DOPG   C1A44849   1.160  12.900  16.830
 1916DOPG   D2A44850   1.590  13.100  17.010
 1916DOPG   C3A44851   1.490  13.030  17.520
 1916DOPG   C4A44852   1.180  12.900  17.770
 1916DOPG   C1B44853   1.000  13.370  16.820
 1916DOPG   D2B44854   1.220  13.690  16.650
 1916DOPG   C3B44855   1.280  13.560  16.210
 1916DOPG   C4B44856   1.670  13.390  16.050
 1917DOPG   GL044857  15.890  13.090  14.100
 1917DOPG   PO444858  16.340  13.310  14.100
 1917DOPG   GL144859  16.130  13.510  14.390
 1917DOPG   GL244860  16.160  13.540  14.610
 1917DOPG   C1A44861  15.720  13.690  14.330
 1917DOPG   D2A44862  15.440  13.940  14.220
 1917DOPG   C3A44863  15.330  14.300  14.330
 1917DOPG   C4A44864  15.210  14.810  14.330
 1917DOPG   C1B44865  15.900  13.710  14.850
 1917DOPG   D2B44866  15.790  13.950  15.240
 1917DOPG   C3B44867  15.390  14.040  15.300
 1917DOPG   C4B44868  14.950  14.190  15.140
 1918DOPG   GL044869  13.690  18.910  21.450
 1918DOPG   PO444870  13.720  18.750  21.090
 1918DOPG   GL144871  13.570  18.950  20.810
 1918DOPG   GL244872  13.350  19.270  20.970
 1918DOPG   C1A44873  13.480  18.910  20.390
 1918DOPG   D2A44874  13.200  18.950  20.040
 1918DOPG   C3A44875  13.030  18.730  19.660
 1918DOPG   C4A44876  13.020  18.400  19.340
 1918DOPG   C1B44877  13.230  19.310  20.620
 1918DOPG   D2B44878  13.460  19.400  20.200
 1918DOPG   C3B44879  13.640  19.150  19.880
 1918DOPG   C4B44880  13.400  19.090  19.550
 1919DOPG   GL044881   2.630  17.560  17.960
 1919DOPG   PO444882   2.790  17.150  18.180
 1919DOPG   GL144883   2.340  17.140  18.040
 1919DOPG   GL244884   2.080  17.440  18.190
 1919DOPG   C1A44885   1.890  17.050  17.930
 1919DOPG   D2A44886   1.620  17.210  18.230
 1919DOPG   C3A44887   1.520  16.900  18.540
 1919DOPG   C4A44888   1.500  16.530  18.660
 1919DOPG   C1B44889   1.980  17.830  18.590
 1919DOPG   D2B44890   1.670  17.830  18.840
 1919DOPG   C3B44891   1.430  17.800  19.190
 1919DOPG   C4B44892   1.640  17.480  19.480
 1920DOPG   GL044893   4.660  17.250  14.150
 1920DOPG   PO444894   5.030  17.180  14.000
 1920DOPG   GL144895   5.370  17.280  14.050
 1920DOPG   GL244896   5.550  17.100  13.800
 1920DOPG   C1A44897   5.620  17.130  14.320
 1920DOPG   D2A44898   5.930  16.990  14.510
 1920DOPG   C3A44899   6.080  17.420  14.850
 1920DOPG   C4A44900   6.030  17.840  15.010
 1920DOPG   C1B44901   5.920  17.120  13.870
 1920DOPG   D2B44902   6.230  17.390  13.830
 1920DOPG   C3B44903   6.740  17.320  13.830
 1920DOPG   C4B44904   7.120  17.440  13.540
 1921DOPG   GL044905   3.340  14.390  12.290
 1921DOPG   PO444906   3.370  14.210  12.730
 1921DOPG   GL144907   3.150  13.840  12.550
 1921DOPG   GL244908   3.010  13.660  12.850
 1921DOPG   C1A44909   2.850  13.630  12.410
 1921DOPG   D2A44910   2.890  13.320  12.220
 1921DOPG   C3A44911   2.650  13.200  11.880
 1921DOPG   C4A44912   2.600  12.770  11.770
 1921DOPG   C1B44913   2.870  13.310  12.970
 1921DOPG   D2B44914   2.700  12.910  13.110
 1921DOPG   C3B44915   2.720  12.570  12.700
 1921DOPG   C4B44916   2.700  12.270  12.500
 1922DOPG   GL044917  19.020  17.340  13.110
 1922DOPG   PO444918  18.560  17.320  13.060
 1922DOPG   GL144919  18.260  17.540  13.140
 1922DOPG   GL244920  18.150  17.740  12.900
 1922DOPG   C1A44921  17.920  17.870  13.400
 1922DOPG   D2A44922  17.520  18.110  13.720
 1922DOPG   C3A44923  17.540  18.080  14.150
 1922DOPG   C4A44924  17.490  17.940  14.520
 1922DOPG   C1B44925  17.980  18.120  12.910
 1922DOPG   D2B44926  17.650  18.410  13.120
 1922DOPG   C3B44927  17.400  17.990  13.170
 1922DOPG   C4B44928  16.940  18.010  13.110
 1923DOPG   GL044929  14.410  14.760   8.790
 1923DOPG   PO444930  14.120  15.170   8.920
 1923DOPG   GL144931  13.860  15.200   9.330
 1923DOPG   GL244932  13.530  15.340   9.330
 1923DOPG   C1A44933  13.620  15.290   9.830
 1923DOPG   D2A44934  13.370  15.610  10.020
 1923DOPG   C3A44935  13.510  15.930  10.340
 1923DOPG   C4A44936  13.830  16.150  10.530
 1923DOPG   C1B44937  13.150  15.340   9.630
 1923DOPG   D2B44938  12.910  15.310   9.960
 1923DOPG   C3B44939  12.960  15.660  10.270
 1923DOPG   C4B44940  13.100  15.880  10.620
 1924DOPG   GL044941   5.700  13.530  23.050
 1924DOPG   PO444942   5.510  13.610  23.550
 1924DOPG   GL144943   5.330  13.970  23.270
 1924DOPG   GL244944   5.050  14.150  23.320
 1924DOPG   C1A44945   5.600  14.270  23.060
 1924DOPG   D2A44946   5.810  14.620  22.980
 1924DOPG   C3A44947   6.200  14.490  23.000
 1924DOPG   C4A44948   6.530  14.570  22.820
 1924DOPG   C1B44949   5.210  14.490  23.290
 1924DOPG   D2B44950   5.560  14.900  23.390
 1924DOPG   C3B44951   5.800  15.120  23.050
 1924DOPG   C4B44952   5.860  14.990  22.590
 1925DOPG   GL044953   4.420   9.090  17.210
 1925DOPG   PO444954   4.540   9.060  17.710
 1925DOPG   GL144955   4.850   9.350  17.520
 1925DOPG   GL244956   5.220   9.330  17.600
 1925DOPG   C1A44957   5.130   9.650  17.210
 1925DOPG   D2A44958   5.570   9.810  16.990
 1925DOPG   C3A44959   5.940   9.590  17.030
 1925DOPG   C4A44960   6.180   9.260  16.860
 1925DOPG   C1B44961   5.680   9.560  17.450
 1925DOPG   D2B44962   5.980   9.940  17.480
 1925DOPG   C3B44963   6.200  10.180  17.190
 1925DOPG   C4B44964   6.650  10.310  16.940
 1926DOPG   GL044965  16.840  13.520  24.010
 1926DOPG   PO444966  16.400  13.710  24.100
 1926DOPG   GL144967  16.580  13.730  23.640
 1926DOPG   GL244968  16.390  13.600  23.330
 1926DOPG   C1A44969  16.850  13.630  23.250
 1926DOPG   D2A44970  17.170  13.870  22.970
 1926DOPG   C3A44971  17.270  14.170  23.200
 1926DOPG   C4A44972  17.620  14.420  23.310
 1926DOPG   C1B44973  15.950  13.700  23.300
 1926DOPG   D2B44974  15.530  13.930  23.050
 1926DOPG   C3B44975  15.120  14.120  23.080
 1926DOPG   C4B44976  14.990  14.550  22.840
 1927DOPG   GL044977  10.520  22.960  21.540
 1927DOPG   PO444978  10.640  22.510  21.530
 1927DOPG   GL144979  10.530  22.400  21.160
 1927DOPG   GL244980  10.300  22.170  21.260
 1927DOPG   C1A44981  10.630  22.550  20.800
 1927DOPG   D2A44982  11.060  22.480  20.630
 1927DOPG   C3A44983  11.220  22.310  20.280
 1927DOPG   C4A44984  11.410  21.940  20.040
 1927DOPG   C1B44985  10.360  21.860  20.940
 1927DOPG   D2B44986  10.090  21.560  20.770
 1927DOPG   C3B44987  10.220  21.330  20.540
 1927DOPG   C4B44988  10.420  21.690  20.390
 1928DOPG   GL044989  11.070  16.240  20.290
 1928DOPG   PO444990  11.440  15.960  20.340
 1928DOPG   GL144991  11.590  15.910  19.920
 1928DOPG   GL244992  11.830  15.680  19.940
 1928DOPG   C1A44993  11.960  16.230  19.800
 1928DOPG   D2A44994  12.180  16.600  19.620
 1928DOPG   C3A44995  12.280  16.760  19.270
 1928DOPG   C4A44996  12.570  16.930  18.910
 1928DOPG   C1B44997  11.840  15.750  19.480
 1928DOPG   D2B44998  11.470  15.810  19.200
 1928DOPG   C3B44999  11.250  15.560  18.900
 1928DOPG   C4B45000  11.190  15.450  18.490
 1929DOPG   GL045001  11.310  25.100  18.980
 1929DOPG   PO445002  11.080  25.050  19.320
 1929DOPG   GL145003  11.170  24.630  19.050
 1929DOPG   GL245004  11.090  24.730  18.680
 1929DOPG   C1A45005  11.080  24.220  18.770
 1929DOPG   D2A45006  10.940  23.780  18.810
 1929DOPG   C3A45007  11.030  23.360  18.770
 1929DOPG   C4A45008  11.120  23.040  18.610
 1929DOPG   C1B45009  10.600  24.550  18.710
 1929DOPG   D2B45010  10.230  24.460  18.950
 1929DOPG   C3B45011  10.000  24.100  18.840
 1929DOPG   C4B45012   9.750  23.820  18.700
 1930DOPG   GL045013   7.610  10.320  21.960
 1930DOPG   PO445014   7.570  10.640  22.190
 1930DOPG   GL145015   7.760  10.850  21.820
 1930DOPG   GL245016   8.010  10.840  21.690
 1930DOPG   C1A45017   7.640  11.010  21.460
 1930DOPG   D2A45018   7.790  11.070  21.070
 1930DOPG   C3A45019   7.650  11.090  20.540
 1930DOPG   C4A45020   7.620  10.870  20.210
 1930DOPG   C1B45021   8.090  11.290  21.430
 1930DOPG   D2B45022   8.550  11.510  21.390
 1930DOPG   C3B45023   8.780  11.610  21.670
 1930DOPG   C4B45024   8.640  11.850  21.990
 1931DOPG   GL045025   4.600  14.280  16.320
 1931DOPG   PO445026   4.420  13.860  16.380
 1931DOPG   GL145027   4.080  13.750  16.730
 1931DOPG   GL245028   3.900  13.840  16.440
 1931DOPG   C1A45029   3.790  13.390  16.910
 1931DOPG   D2A45030   3.420  13.010  16.860
 1931DOPG   C3A45031   3.000  13.020  16.910
 1931DOPG   C4A45032   2.510  13.130  17.120
 1931DOPG   C1B45033   3.530  13.760  16.660
 1931DOPG   D2B45034   3.390  13.670  17.050
 1931DOPG   C3B45035   3.030  13.430  17.120
 1931DOPG   C4B45036   2.980  13.180  17.420
 1932DOPG   GL045037  16.050  23.320  10.400
 1932DOPG   PO445038  15.770  23.630  10.590
 1932DOPG   GL145039  15.430  23.480  10.790
 1932DOPG   GL245040  15.220  23.530  11.060
 1932DOPG   C1A45041  15.140  23.130  10.790
 1932DOPG   D2A45042  14.830  22.810  10.850
 1932DOPG   C3A45043  14.650  22.740  11.240
 1932DOPG   C4A45044  14.500  22.380  11.580
 1932DOPG   C1B45045  15.040  23.260  11.310
 1932DOPG   D2B45046  14.920  23.120  11.700
 1932DOPG   C3B45047  15.210  22.950  11.850
 1932DOPG   C4B45048  15.450  22.950  12.230
 1933DOPG   GL045049   4.690  13.970  17.300
 1933DOPG   PO445050   5.020  13.910  17.640
 1933DOPG   GL145051   4.810  14.000  18.080
 1933DOPG   GL245052   4.720  13.730  18.080
 1933DOPG   C1A45053   4.780  13.950  18.620
 1933DOPG   D2A45054   4.530  14.020  18.860
 1933DOPG   C3A45055   4.630  13.760  19.180
 1933DOPG   C4A45056   4.640  13.490  19.560
 1933DOPG   C1B45057   4.580  13.380  18.350
 1933DOPG   D2B45058   4.320  13.120  18.520
 1933DOPG   C3B45059   4.490  12.690  18.490
 1933DOPG   C4B45060   4.380  12.280  18.640
 1934DOPG   GL045061   5.050  18.570  13.670
 1934DOPG   PO445062   5.000  18.460  14.190
 1934DOPG   GL145063   5.340  18.270  14.400
 1934DOPG   GL245064   5.390  18.360  14.690
 1934DOPG   C1A45065   5.830  18.470  14.440
 1934DOPG   D2A45066   6.040  18.810  14.350
 1934DOPG   C3A45067   6.480  18.610  14.070
 1934DOPG   C4A45068   6.770  18.610  13.750
 1934DOPG   C1B45069   5.650  18.260  14.950
 1934DOPG   D2B45070   6.160  18.360  14.800
 1934DOPG   C3B45071   6.540  18.200  14.890
 1934DOPG   C4B45072   6.830  18.250  15.130
 1935DOPG   GL045073   6.600  16.480  20.180
 1935DOPG   PO445074   6.710  16.480  19.710
 1935DOPG   GL145075   7.030  16.580  19.430
 1935DOPG   GL245076   7.070  16.940  19.330
 1935DOPG   C1A45077   7.170  16.610  19.000
 1935DOPG   D2A45078   7.360  16.740  18.620
 1935DOPG   C3A45079   7.810  16.620  18.580
 1935DOPG   C4A45080   8.230  16.310  18.600
 1935DOPG   C1B45081   7.380  17.240  19.320
 1935DOPG   D2B45082   7.370  17.690  19.540
 1935DOPG   C3B45083   7.190  18.000  19.290
 1935DOPG   C4B45084   6.940  18.260  19.100
 1936DOPG   GL045085  15.210  24.700  14.400
 1936DOPG   PO445086  15.490  25.010  14.190
 1936DOPG   GL145087  15.110  24.940  13.820
 1936DOPG   GL245088  15.050  24.650  13.880
 1936DOPG   C1A45089  14.600  24.900  13.820
 1936DOPG   D2A45090  14.220  24.990  13.660
 1936DOPG   C3A45091  13.970  25.140  13.330
 1936DOPG   C4A45092  13.760  25.050  12.970
 1936DOPG   C1B45093  14.780  24.690  14.220
 1936DOPG   D2B45094  14.250  24.730  14.130
 1936DOPG   C3B45095  14.030  24.530  13.810
 1936DOPG   C4B45096  13.830  24.220  13.540
 1937DOPG   GL045097  15.060  12.370  15.110
 1937DOPG   PO445098  15.330  12.650  14.950
 1937DOPG   GL145099  15.030  12.910  14.900
 1937DOPG   GL245100  15.060  13.140  14.680
 1937DOPG   C1A45101  14.660  12.920  15.170
 1937DOPG   D2A45102  14.740  12.880  15.590
 1937DOPG   C3A45103  14.620  13.280  15.880
 1937DOPG   C4A45104  14.750  13.630  16.050
 1937DOPG   C1B45105  15.010  13.530  14.360
 1937DOPG   D2B45106  14.670  13.690  14.500
 1937DOPG   C3B45107  14.360  13.930  14.170
 1937DOPG   C4B45108  13.970  14.020  14.240
 1938DOPG   GL045109  16.620  14.790  10.040
 1938DOPG   PO445110  16.370  14.890  10.310
 1938DOPG   GL145111  16.000  15.110  10.430
 1938DOPG   GL245112  15.940  15.010  10.700
 1938DOPG   C1A45113  15.640  15.380  10.480
 1938DOPG   D2A45114  15.630  15.750  10.470
 1938DOPG   C3A45115  15.400  16.010  10.660
 1938DOPG   C4A45116  15.100  15.970  10.860
 1938DOPG   C1B45117  15.730  14.970  11.100
 1938DOPG   D2B45118  15.870  15.250  11.500
 1938DOPG   C3B45119  15.720  15.680  11.430
 1938DOPG   C4B45120  15.450  16.060  11.720
 1939DOPG   GL045121   8.790  21.610  21.380
 1939DOPG   PO445122   8.420  21.400  21.010
 1939DOPG   GL145123   8.640  21.480  20.610
 1939DOPG   GL245124   8.350  21.550  20.370
 1939DOPG   C1A45125   8.780  21.310  20.240
 1939DOPG   D2A45126   9.070  20.970  20.140
 1939DOPG   C3A45127   9.510  20.870  20.140
 1939DOPG   C4A45128   9.790  21.080  20.400
 1939DOPG   C1B45129   8.590  21.630  19.930
 1939DOPG   D2B45130   8.800  21.720  19.680
 1939DOPG   C3B45131   9.000  21.490  19.730
 1939DOPG   C4B45132   8.830  21.080  19.730
 1940DOPG   GL045133  14.960  11.760  15.980
 1940DOPG   PO445134  15.000  11.290  16.170
 1940DOPG   GL145135  15.230  10.860  16.030
 1940DOPG   GL245136  15.570  10.950  16.110
 1940DOPG   C1A45137  15.330  10.500  15.840
 1940DOPG   D2A45138  15.060  10.170  15.750
 1940DOPG   C3A45139  14.960   9.780  15.680
 1940DOPG   C4A45140  14.810   9.450  16.000
 1940DOPG   C1B45141  15.740  10.710  16.300
 1940DOPG   D2B45142  15.790  10.530  16.720
 1940DOPG   C3B45143  16.090  10.200  16.740
 1940DOPG   C4B45144  16.100   9.810  16.560
 1941DOPG   GL045145  12.390  13.590   9.390
 1941DOPG   PO445146  12.390  13.610   9.870
 1941DOPG   GL145147  12.120  13.840  10.220
 1941DOPG   GL245148  12.360  13.780  10.460
 1941DOPG   C1A45149  12.090  14.150  10.380
 1941DOPG   D2A45150  12.330  14.360  10.560
 1941DOPG   C3A45151  12.420  14.730  10.810
 1941DOPG   C4A45152  12.130  14.970  11.150
 1941DOPG   C1B45153  12.430  13.910  10.860
 1941DOPG   D2B45154  12.340  14.280  11.030
 1941DOPG   C3B45155  12.000  14.540  10.910
 1941DOPG   C4B45156  11.970  14.900  10.660
 1942DOPG   GL045157  23.790  22.320  12.870
 1942DOPG   PO445158  23.570  22.030  13.090
 1942DOPG   GL145159  23.170  21.850  13.340
 1942DOPG   GL245160  22.940  21.730  13.250
 1942DOPG   C1A45161  22.810  22.070  13.650
 1942DOPG   D2A45162  22.630  21.970  13.970
 1942DOPG   C3A45163  22.580  21.900  14.430
 1942DOPG   C4A45164  22.830  21.700  14.760
 1942DOPG   C1B45165  22.720  21.770  12.920
 1942DOPG   D2B45166  22.690  21.560  12.470
 1942DOPG   C3B45167  22.630  21.190  12.370
 1942DOPG   C4B45168  22.530  20.970  12.040
 1943DOPG   GL045169   2.320  15.610  13.360
 1943DOPG   PO445170   2.370  15.800  13.030
 1943DOPG   GL145171   1.980  15.900  12.770
 1943DOPG   GL245172   1.710  16.050  13.030
 1943DOPG   C1A45173   1.700  15.580  12.720
 1943DOPG   D2A45174   1.790  15.200  12.530
 1943DOPG   C3A45175   1.540  14.960  12.200
 1943DOPG   C4A45176   1.470  14.630  11.910
 1943DOPG   C1B45177   1.280  15.760  13.170
 1943DOPG   D2B45178   1.200  15.330  12.930
 1943DOPG   C3B45179   1.180  14.900  12.840
 1943DOPG   C4B45180   1.060  14.430  12.700
 1944DOPG   GL045181  15.660  14.110  10.450
 1944DOPG   PO445182  15.210  14.000  10.320
 1944DOPG   GL145183  14.880  13.970  10.690
 1944DOPG   GL245184  14.990  13.740  10.950
 1944DOPG   C1A45185  14.670  14.300  10.920
 1944DOPG   D2A45186  14.410  14.570  11.230
 1944DOPG   C3A45187  14.640  14.850  11.610
 1944DOPG   C4A45188  14.900  15.180  11.820
 1944DOPG   C1B45189  15.060  14.240  11.220
 1944DOPG   D2B45190  14.990  14.480  11.570
 1944DOPG   C3B45191  15.110  14.780  11.600
 1944DOPG   C4B45192  15.360  15.150  11.460
 1945DOPG   GL045193   6.030  19.180  13.300
 1945DOPG   PO445194   5.930  19.390  12.860
 1945DOPG   GL145195   6.340  19.140  12.910
 1945DOPG   GL245196   6.580  19.250  13.200
 1945DOPG   C1A45197   6.750  19.130  12.690
 1945DOPG   D2A45198   7.190  18.950  12.870
 1945DOPG   C3A45199   7.390  18.630  12.660
 1945DOPG   C4A45200   7.710  18.430  12.320
 1945DOPG   C1B45201   6.950  19.040  13.370
 1945DOPG   D2B45202   7.280  18.820  13.330
 1945DOPG   C3B45203   7.690  18.940  13.260
 1945DOPG   C4B45204   7.920  19.280  13.240
 1946DOPG   GL045205  12.370  25.600  11.680
 1946DOPG   PO445206  11.990  25.380  11.900
 1946DOPG   GL145207  11.870  25.000  12.000
 1946DOPG   GL245208  12.050  24.890  11.730
 1946DOPG   C1A45209  11.520  24.730  11.960
 1946DOPG   D2A45210  11.280  24.340  11.960
 1946DOPG   C3A45211  11.330  24.200  11.570
 1946DOPG   C4A45212  11.220  24.200  11.080
 1946DOPG   C1B45213  11.970  24.530  11.860
 1946DOPG   D2B45214  11.730  24.160  11.890
 1946DOPG   C3B45215  11.810  23.890  12.160
 1946DOPG   C4B45216  11.780  23.930  12.620
 1947DOPG   GL045217  18.230  16.130  15.590
 1947DOPG   PO445218  18.090  15.680  15.470
 1947DOPG   GL145219  17.930  15.990  15.140
 1947DOPG   GL245220  17.870  16.350  15.210
 1947DOPG   C1A45221  17.590  16.120  14.900
 1947DOPG   D2A45222  17.150  16.370  14.830
 1947DOPG   C3A45223  16.820  16.150  14.890
 1947DOPG   C4A45224  16.560  15.940  15.160
 1947DOPG   C1B45225  17.460  16.460  15.440
 1947DOPG   D2B45226  17.340  16.730  15.580
 1947DOPG   C3B45227  16.940  16.700  15.710
 1947DOPG   C4B45228  16.810  17.030  15.980
 1948DOPG   GL045229   7.430  22.590  11.590
 1948DOPG   PO445230   7.630  22.580  11.270
 1948DOPG   GL145231   7.920  22.450  11.510
 1948DOPG   GL245232   8.120  22.290  11.400
 1948DOPG   C1A45233   8.110  22.490  11.890
 1948DOPG   D2A45234   8.020  22.200  12.300
 1948DOPG   C3A45235   8.380  22.150  12.540
 1948DOPG   C4A45236   8.470  21.870  12.830
 1948DOPG   C1B45237   8.480  22.420  11.600
 1948DOPG   D2B45238   8.800  22.210  11.750
 1948DOPG   C3B45239   9.010  21.850  11.830
 1948DOPG   C4B45240   9.090  21.330  11.930
 1949DOPG   GL045241   8.820  17.260   8.560
 1949DOPG   PO445242   8.910  16.990   8.900
 1949DOPG   GL145243   8.980  17.010   9.280
 1949DOPG   GL245244   8.620  17.040   9.380
 1949DOPG   C1A45245   9.200  17.420   9.400
 1949DOPG   D2A45246   9.320  17.360   9.800
 1949DOPG   C3A45247   9.780  17.340   9.810
 1949DOPG   C4A45248  10.180  17.330  10.000
 1949DOPG   C1B45249   8.750  17.290   9.600
 1949DOPG   D2B45250   8.900  17.640   9.810
 1949DOPG   C3B45251   9.260  17.850   9.640
 1949DOPG   C4B45252   9.260  18.300   9.380
 1950DOPG   GL045253   4.430  14.570  15.870
 1950DOPG   PO445254   4.060  14.370  15.570
 1950DOPG   GL145255   3.670  14.170  15.770
 1950DOPG   GL245256   3.710  13.800  15.910
 1950DOPG   C1A45257   3.210  14.030  15.700
 1950DOPG   D2A45258   3.040  13.720  15.380
 1950DOPG   C3A45259   2.580  13.750  15.200
 1950DOPG   C4A45260   2.270  13.730  15.330
 1950DOPG   C1B45261   3.570  13.450  16.200
 1950DOPG   D2B45262   3.280  13.340  16.540
 1950DOPG   C3B45263   2.910  13.060  16.390
 1950DOPG   C4B45264   2.730  12.910  15.980
 1951DOPG   GL045265  10.190  13.220  18.920
 1951DOPG   PO445266  10.520  13.490  19.050
 1951DOPG   GL145267  10.710  13.710  18.790
 1951DOPG   GL245268  10.350  13.830  18.590
 1951DOPG   C1A45269  11.070  13.870  18.570
 1951DOPG   D2A45270  11.060  13.920  18.100
 1951DOPG   C3A45271  10.570  13.940  18.100
 1951DOPG   C4A45272  10.260  14.360  18.170
 1951DOPG   C1B45273  10.020  13.880  18.310
 1951DOPG   D2B45274   9.910  13.950  17.820
 1951DOPG   C3B45275  10.230  14.140  17.600
 1951DOPG   C4B45276  10.660  14.380  17.400
 1952DOPG   GL045277   4.860  19.530  20.980
 1952DOPG   PO445278   4.510  19.720  20.980
 1952DOPG   GL145279   4.090  19.970  21.020
 1952DOPG   GL245280   4.110  20.080  21.350
 1952DOPG   C1A45281   3.700  19.800  21.330
 1952DOPG   D2A45282   3.430  19.380  21.470
 1952DOPG   C3A45283   3.070  19.260  21.630
 1952DOPG   C4A45284   2.640  18.970  21.500
 1952DOPG   C1B45285   4.020  20.180  21.730
 1952DOPG   D2B45286   3.710  19.980  22.050
 1952DOPG   C3B45287   3.310  20.100  22.080
 1952DOPG   C4B45288   2.890  19.880  22.040
 1953DOPG   GL045289  12.690  16.100   7.270
 1953DOPG   PO445290  12.560  15.600   7.370
 1953DOPG   GL145291  12.310  15.340   6.990
 1953DOPG   GL245292  12.320  15.500   6.640
 1953DOPG   C1A45293  12.100  15.080   6.660
 1953DOPG   D2A45294  12.150  15.110   6.260
 1953DOPG   C3A45295  12.580  15.050   6.060
 1953DOPG   C4A45296  12.750  14.770   5.760
 1953DOPG   C1B45297  12.010  15.520   6.370
 1953DOPG   D2B45298  11.670  15.260   6.200
 1953DOPG   C3B45299  11.660  15.100   5.780
 1953DOPG   C4B45300  11.730  15.280   5.350
 1954DOPG   GL045301  10.060  26.000  14.030
 1954DOPG   PO445302  10.520  26.150  13.880
 1954DOPG   GL145303  10.510  25.760  14.110
 1954DOPG   GL245304  10.380  25.720  14.370
 1954DOPG   C1A45305  10.700  25.400  14.140
 1954DOPG   D2A45306  11.030  25.160  13.880
 1954DOPG   C3A45307  11.150  24.730  13.990
 1954DOPG   C4A45308  11.110  24.470  14.360
 1954DOPG   C1B45309  10.280  25.230  14.450
 1954DOPG   D2B45310  10.300  24.730  14.540
 1954DOPG   C3B45311   9.960  24.630  14.850
 1954DOPG   C4B45312   9.690  24.440  15.100
 1955DOPG   GL045313  15.670  14.040  17.470
 1955DOPG   PO445314  15.940  14.010  17.100
 1955DOPG   GL145315  15.770  14.240  16.890
 1955DOPG   GL245316  15.470  14.170  16.930
 1955DOPG   C1A45317  15.550  14.490  16.570
 1955DOPG   D2A45318  15.760  14.890  16.440
 1955DOPG   C3A45319  15.380  15.130  16.270
 1955DOPG   C4A45320  15.230  15.280  15.880
 1955DOPG   C1B45321  15.080  14.400  16.790
 1955DOPG   D2B45322  14.740  14.610  16.610
 1955DOPG   C3B45323  14.380  14.830  16.720
 1955DOPG   C4B45324  13.940  14.880  16.940
 1956DOPG   GL045325   6.980  14.340  17.060
 1956DOPG   PO445326   6.570  14.360  16.820
 1956DOPG   GL145327   6.660  14.750  16.640
 1956DOPG   GL245328   6.820  14.850  16.400
 1956DOPG   C1A45329   6.920  15.110  16.920
 1956DOPG   D2A45330   7.210  15.490  16.940
 1956DOPG   C3A45331   7.580  15.510  16.620
 1956DOPG   C4A45332   8.030  15.490  16.750
 1956DOPG   C1B45333   7.210  14.720  16.440
 1956DOPG   D2B45334   7.630  14.690  16.340
 1956DOPG   C3B45335   7.780  14.730  15.850
 1956DOPG   C4B45336   7.760  14.890  15.540
 1957DOPG   GL045337  18.680  15.740  13.580
 1957DOPG   PO445338  18.360  15.560  13.740
 1957DOPG   GL145339  18.000  15.630  14.050
 1957DOPG   GL245340  18.130  15.830  14.330
 1957DOPG   C1A45341  17.700  15.930  14.010
 1957DOPG   D2A45342  17.380  16.310  13.980
 1957DOPG   C3A45343  17.430  16.710  13.890
 1957DOPG   C4A45344  17.700  16.970  13.800
 1957DOPG   C1B45345  17.740  15.800  14.550
 1957DOPG   D2B45346  17.410  16.130  14.470
 1957DOPG   C3B45347  17.370  16.640  14.480
 1957DOPG   C4B45348  17.140  17.010  14.680
 1958DOPG   GL045349   5.720  16.920  20.490
 1958DOPG   PO445350   5.650  16.630  20.220
 1958DOPG   GL145351   5.270  16.580  20.400
 1958DOPG   GL245352   5.210  16.850  20.580
 1958DOPG   C1A45353   5.140  16.230  20.560
 1958DOPG   D2A45354   4.880  15.880  20.720
 1958DOPG   C3A45355   4.570  15.800  21.040
 1958DOPG   C4A45356   4.330  15.720  21.410
 1958DOPG   C1B45357   5.110  16.620  21.000
 1958DOPG   D2B45358   5.040  16.580  21.480
 1958DOPG   C3B45359   4.760  16.700  21.710
 1958DOPG   C4B45360   4.720  16.730  22.090
 1959DOPG   GL045361   3.180  14.530  15.500
 1959DOPG   PO445362   3.190  14.330  15.080
 1959DOPG   GL145363   2.790  14.360  15.270
 1959DOPG   GL245364   2.650  14.720  15.280
 1959DOPG   C1A45365   2.320  14.240  15.320
 1959DOPG   D2A45366   1.860  14.120  15.600
 1959DOPG   C3A45367   1.710  13.710  15.660
 1959DOPG   C4A45368   1.290  13.510  15.720
 1959DOPG   C1B45369   2.150  14.740  15.200
 1959DOPG   D2B45370   1.860  14.340  15.130
 1959DOPG   C3B45371   1.440  14.240  15.250
 1959DOPG   C4B45372   1.340  13.950  15.420
 1960DOPG   GL045373  18.400  18.820  16.930
 1960DOPG   PO445374  18.170  18.440  17.080
 1960DOPG   GL145375  17.820  18.380  17.110
 1960DOPG   GL245376  17.690  18.330  16.820
 1960DOPG   C1A45377  17.350  18.330  17.130
 1960DOPG   D2A45378  16.880  18.330  17.110
 1960DOPG   C3A45379  16.510  18.110  16.960
 1960DOPG   C4A45380  16.120  17.880  17.040
 1960DOPG   C1B45381  17.250  18.410  16.670
 1960DOPG   D2B45382  16.830  18.320  16.500
 1960DOPG   C3B45383  16.530  18.560  16.420
 1960DOPG   C4B45384  16.170  18.630  16.160
 1961DOPG   GL045385   7.410  25.250  16.480
 1961DOPG   PO445386   7.470  24.780  16.730
 1961DOPG   GL145387   7.900  24.550  16.600
 1961DOPG   GL245388   7.970  24.340  16.260
 1961DOPG   C1A45389   8.300  24.480  16.620
 1961DOPG   D2A45390   8.620  24.380  16.750
 1961DOPG   C3A45391   8.780  24.020  16.640
 1961DOPG   C4A45392   8.750  23.640  16.710
 1961DOPG   C1B45393   7.900  23.920  16.020
 1961DOPG   D2B45394   8.190  23.700  15.810
 1961DOPG   C3B45395   8.480  23.580  15.760
 1961DOPG   C4B45396   8.660  23.210  15.550
 1962DOPG   GL045397  14.130  13.200   9.770
 1962DOPG   PO445398  13.790  13.580   9.920
 1962DOPG   GL145399  13.820  14.030   9.790
 1962DOPG   GL245400  13.630  14.190   9.990
 1962DOPG   C1A45401  14.090  14.410  10.030
 1962DOPG   D2A45402  14.140  14.790  10.360
 1962DOPG   C3A45403  13.910  14.870  10.650
 1962DOPG   C4A45404  13.660  15.220  10.950
 1962DOPG   C1B45405  13.710  14.350  10.380
 1962DOPG   D2B45406  13.490  14.230  10.680
 1962DOPG   C3B45407  13.320  14.390  11.010
 1962DOPG   C4B45408  13.040  14.670  11.240
 1963DOPG   GL045409  16.810  14.890  17.710
 1963DOPG   PO445410  16.610  14.570  17.440
 1963DOPG   GL145411  16.180  14.650  17.360
 1963DOPG   GL245412  15.770  14.500  17.360
 1963DOPG   C1A45413  15.910  14.910  17.060
 1963DOPG   D2A45414  15.690  15.120  16.810
 1963DOPG   C3A45415  15.490  15.470  16.730
 1963DOPG   C4A45416  15.610  15.550  16.370
 1963DOPG   C1B45417  15.480  14.730  17.020
 1963DOPG   D2B45418  15.230  14.850  16.720
 1963DOPG   C3B45419  14.930  15.180  16.480
 1963DOPG   C4B45420  14.740  15.340  16.150
 1964DOPG   GL045421   7.480  17.810  20.400
 1964DOPG   PO445422   7.420  17.510  20.230
 1964DOPG   GL145423   7.700  17.380  20.050
 1964DOPG   GL245424   8.010  17.560  20.030
 1964DOPG   C1A45425   7.810  17.470  19.580
 1964DOPG   D2A45426   7.830  17.550  19.270
 1964DOPG   C3A45427   7.500  17.810  18.950
 1964DOPG   C4A45428   7.220  18.050  18.640
 1964DOPG   C1B45429   8.200  17.910  19.830
 1964DOPG   D2B45430   8.250  17.780  19.400
 1964DOPG   C3B45431   8.640  17.900  19.150
 1964DOPG   C4B45432   8.890  18.020  18.850
 1965DOPG   GL045433   8.280  13.340  16.820
 1965DOPG   PO445434   8.000  13.530  17.110
 1965DOPG   GL145435   8.340  13.630  17.230
 1965DOPG   GL245436   8.730  13.490  17.180
 1965DOPG   C1A45437   8.590  13.950  17.090
 1965DOPG   D2A45438   9.140  13.700  16.980
 1965DOPG   C3A45439   9.240  13.200  17.150
 1965DOPG   C4A45440   9.170  12.800  17.270
 1965DOPG   C1B45441   8.950  13.680  17.420
 1965DOPG   D2B45442   9.170  14.100  17.240
 1965DOPG   C3B45443   8.840  14.430  17.060
 1965DOPG   C4B45444   8.710  14.720  17.390
 1966DOPG   GL045445   9.490  18.250  21.490
 1966DOPG   PO445446   9.800  18.660  21.630
 1966DOPG   GL145447   9.970  18.780  21.280
 1966DOPG   GL245448  10.290  18.980  21.410
 1966DOPG   C1A45449   9.750  18.910  20.880
 1966DOPG   D2A45450   9.700  18.810  20.450
 1966DOPG   C3A45451   9.830  18.910  20.040
 1966DOPG   C4A45452   9.950  18.950  19.560
 1966DOPG   C1B45453  10.190  19.200  20.970
 1966DOPG   D2B45454  10.390  19.500  20.740
 1966DOPG   C3B45455  10.470  19.630  20.330
 1966DOPG   C4B45456  10.320  19.660  19.960
 1967DOPG   GL045457   9.240  23.180  20.130
 1967DOPG   PO445458   8.790  23.000  20.230
 1967DOPG   GL145459   9.110  22.740  20.060
 1967DOPG   GL245460   9.290  22.550  20.230
 1967DOPG   C1A45461   9.300  22.380  19.630
 1967DOPG   D2A45462   9.550  22.410  19.210
 1967DOPG   C3A45463   9.950  22.210  19.080
 1967DOPG   C4A45464  10.320  21.890  18.970
 1967DOPG   C1B45465   9.640  22.420  20.050
 1967DOPG   D2B45466   9.810  22.420  19.700
 1967DOPG   C3B45467  10.080  22.490  19.480
 1967DOPG   C4B45468  10.320  22.580  19.090
 1968DOPG   GL045469  17.170  16.530   3.840
 1968DOPG   PO445470  17.130  16.310   4.170
 1968DOPG   GL145471  17.180  16.270   4.560
 1968DOPG   GL245472  17.340  16.450   4.760
 1968DOPG   C1A45473  17.010  16.170   5.040
 1968DOPG   D2A45474  17.080  16.260   5.470
 1968DOPG   C3A45475  16.900  16.170   5.790
 1968DOPG   C4A45476  16.790  16.060   6.220
 1968DOPG   C1B45477  17.150  16.710   5.180
 1968DOPG   D2B45478  16.840  16.880   5.440
 1968DOPG   C3B45479  16.630  17.260   5.330
 1968DOPG   C4B45480  16.650  17.640   5.450
 1969DOPG   GL045481   9.780  21.520   9.220
 1969DOPG   PO445482   9.980  21.880   9.330
 1969DOPG   GL145483   9.920  21.620   9.680
 1969DOPG   GL245484  10.070  21.700   9.830
 1969DOPG   C1A45485   9.650  21.690  10.070
 1969DOPG   D2A45486   9.480  21.310  10.280
 1969DOPG   C3A45487   9.750  21.170  10.520
 1969DOPG   C4A45488   9.670  20.830  10.600
 1969DOPG   C1B45489  10.060  21.540  10.280
 1969DOPG   D2B45490  10.140  21.460  10.660
 1969DOPG   C3B45491  10.610  21.410  10.790
 1969DOPG   C4B45492  11.060  21.310  11.040
 1970DOPG   GL045493   3.100  25.830   7.600
 1970DOPG   PO445494   3.400  25.540   7.380
 1970DOPG   GL145495   3.380  25.360   7.710
 1970DOPG   GL245496   3.380  25.530   7.920
 1970DOPG   C1A45497   3.500  25.000   8.070
 1970DOPG   D2A45498   3.730  24.900   8.440
 1970DOPG   C3A45499   3.850  24.550   8.530
 1970DOPG   C4A45500   3.810  24.230   8.320
 1970DOPG   C1B45501   3.480  25.380   8.360
 1970DOPG   D2B45502   3.760  25.380   8.640
 1970DOPG   C3B45503   4.080  25.050   8.720
 1970DOPG   C4B45504   4.350  24.630   8.850
 1971DOPG   GL045505  16.130  20.240   9.440
 1971DOPG   PO445506  15.870  20.350   9.080
 1971DOPG   GL145507  15.600  20.370   9.440
 1971DOPG   GL245508  15.700  20.370   9.680
 1971DOPG   C1A45509  15.240  20.420   9.590
 1971DOPG   D2A45510  14.930  20.720   9.390
 1971DOPG   C3A45511  14.740  20.780   9.710
 1971DOPG   C4A45512  14.550  20.940  10.120
 1971DOPG   C1B45513  15.470  20.240  10.180
 1971DOPG   D2B45514  15.290  19.820  10.370
 1971DOPG   C3B45515  14.890  19.750  10.500
 1971DOPG   C4B45516  14.680  20.050  10.760
 1972DOPG   GL045517  15.420  20.060   9.050
 1972DOPG   PO445518  15.590  19.580   9.190
 1972DOPG   GL145519  15.570  19.870   9.490
 1972DOPG   GL245520  15.810  19.900   9.780
 1972DOPG   C1A45521  15.230  19.940   9.780
 1972DOPG   D2A45522  14.930  20.140  10.120
 1972DOPG   C3A45523  15.050  20.300  10.440
 1972DOPG   C4A45524  15.000  20.440  10.730
 1972DOPG   C1B45525  15.770  19.750  10.150
 1972DOPG   D2B45526  15.860  19.960  10.520
 1972DOPG   C3B45527  15.490  20.150  10.690
 1972DOPG   C4B45528  15.140  19.990  10.900
 1973DOPG   GL045529  16.940  14.090  15.810
 1973DOPG   PO445530  17.010  14.510  15.600
 1973DOPG   GL145531  16.870  14.870  15.750
 1973DOPG   GL245532  16.580  14.860  15.770
 1973DOPG   C1A45533  16.760  15.240  15.520
 1973DOPG   D2A45534  16.440  15.530  15.460
 1973DOPG   C3A45535  16.070  15.650  15.760
 1973DOPG   C4A45536  15.830  15.330  15.800
 1973DOPG   C1B45537  16.440  14.790  15.310
 1973DOPG   D2B45538  16.060  14.820  15.160
 1973DOPG   C3B45539  15.840  14.440  15.100
 1973DOPG   C4B45540  15.500  14.150  14.870
 1974DOPG   GL045541  20.640  10.830  16.830
 1974DOPG   PO445542  20.930  11.190  16.980
 1974DOPG   GL145543  20.640  11.380  17.210
 1974DOPG   GL245544  20.880  11.640  17.320
 1974DOPG   C1A45545  20.340  11.490  17.330
 1974DOPG   D2A45546  19.950  11.350  17.120
 1974DOPG   C3A45547  19.670  11.590  17.220
 1974DOPG   C4A45548  19.550  11.930  17.120
 1974DOPG   C1B45549  20.520  11.960  17.330
 1974DOPG   D2B45550  20.070  11.930  17.140
 1974DOPG   C3B45551  19.950  12.370  17.160
 1974DOPG   C4B45552  19.720  12.700  17.390
 1975DOPG   GL045553  12.730   9.990   5.590
 1975DOPG   PO445554  12.420  10.000   5.850
 1975DOPG   GL145555  12.570  10.390   6.070
 1975DOPG   GL245556  12.460  10.740   6.080
 1975DOPG   C1A45557  12.570  10.640   6.510
 1975DOPG   D2A45558  12.550  10.860   7.010
 1975DOPG   C3A45559  12.890  10.630   7.200
 1975DOPG   C4A45560  13.110  10.160   7.240
 1975DOPG   C1B45561  12.220  10.980   6.360
 1975DOPG   D2B45562  12.060  10.800   6.760
 1975DOPG   C3B45563  12.270  10.400   6.910
 1975DOPG   C4B45564  12.770  10.320   6.810
 1976DOPG   GL045565   7.650  24.810  14.110
 1976DOPG   PO445566   7.850  24.500  14.210
 1976DOPG   GL145567   8.210  24.380  14.430
 1976DOPG   GL245568   8.640  24.380  14.160
 1976DOPG   C1A45569   8.250  23.870  14.510
 1976DOPG   D2A45570   8.540  23.590  14.520
 1976DOPG   C3A45571   8.400  23.140  14.700
 1976DOPG   C4A45572   8.510  22.670  14.940
 1976DOPG   C1B45573   8.850  24.030  14.370
 1976DOPG   D2B45574   9.050  23.640  14.560
 1976DOPG   C3B45575   9.020  23.540  14.970
 1976DOPG   C4B45576   9.150  23.860  15.340
 1977DOPG   GL045577   9.060  11.730  16.450
 1977DOPG   PO445578   9.280  11.810  16.820
 1977DOPG   GL145579   9.520  12.180  16.950
 1977DOPG   GL245580   9.770  12.290  16.610
 1977DOPG   C1A45581   9.440  12.630  16.890
 1977DOPG   D2A45582   9.750  12.860  17.030
 1977DOPG   C3A45583  10.000  13.090  16.730
 1977DOPG   C4A45584  10.360  13.300  16.560
 1977DOPG   C1B45585  10.060  12.630  16.340
 1977DOPG   D2B45586  10.190  12.860  15.960
 1977DOPG   C3B45587  10.290  13.330  16.010
 1977DOPG   C4B45588  10.440  13.670  16.240
 1978DOPG   GL045589  19.110   8.840  14.010
 1978DOPG   PO445590  19.070   9.250  14.270
 1978DOPG   GL145591  18.780   9.490  14.470
 1978DOPG   GL245592  18.780   9.880  14.450
 1978DOPG   C1A45593  18.350   9.690  14.390
 1978DOPG   D2A45594  18.220   9.960  14.610
 1978DOPG   C3A45595  17.930   9.890  15.060
 1978DOPG   C4A45596  17.680   9.930  15.500
 1978DOPG   C1B45597  18.490  10.180  14.290
 1978DOPG   D2B45598  18.410  10.610  14.110
 1978DOPG   C3B45599  18.520  10.760  13.720
 1978DOPG   C4B45600  18.720  11.010  13.350
 1979DOPG   GL045601  35.980  12.530  13.650
 1979DOPG   PO445602  36.200  12.170  13.800
 1979DOPG   GL145603   0.240  12.430  13.790
 1979DOPG   GL245604   0.300  12.560  14.070
 1979DOPG   C1A45605   0.780  12.380  13.830
 1979DOPG   D2A45606   1.050  12.200  13.510
 1979DOPG   C3A45607   1.350  12.410  13.190
 1979DOPG   C4A45608   1.830  12.310  13.140
 1979DOPG   C1B45609   0.620  12.830  14.270
 1979DOPG   D2B45610   1.020  12.790  14.160
 1979DOPG   C3B45611   1.260  13.180  14.210
 1979DOPG   C4B45612   1.540  13.530  14.170
 1980DOPG   GL045613  13.690  22.790   9.040
 1980DOPG   PO445614  14.040  22.900   9.140
 1980DOPG   GL145615  13.790  22.820   9.520
 1980DOPG   GL245616  13.600  22.930   9.640
 1980DOPG   C1A45617  13.950  22.470   9.910
 1980DOPG   D2A45618  14.160  22.300  10.270
 1980DOPG   C3A45619  14.600  22.390  10.470
 1980DOPG   C4A45620  14.950  22.170  10.670
 1980DOPG   C1B45621  13.850  22.980  10.050
 1980DOPG   D2B45622  14.190  22.810  10.330
 1980DOPG   C3B45623  14.410  22.680  10.000
 1980DOPG   C4B45624  14.610  22.270   9.960
 1981DOPG   GL045625   4.900  25.120  18.930
 1981DOPG   PO445626   4.710  25.260  18.560
 1981DOPG   GL145627   4.420  25.580  18.800
 1981DOPG   GL245628   4.430  25.640  19.090
 1981DOPG   C1A45629   4.280  26.090  18.930
 1981DOPG   D2A45630   4.430  26.570  18.960
 1981DOPG   C3A45631   4.120  26.890  19.100
 1981DOPG   C4A45632   3.860  27.110  19.430
 1981DOPG   C1B45633   4.210  25.770  19.400
 1981DOPG   D2B45634   4.360  26.070  19.650
 1981DOPG   C3B45635   4.650  26.430  19.440
 1981DOPG   C4B45636   4.540  26.830  19.410
 1982DOPG   GL045637  19.640  18.110  15.460
 1982DOPG   PO445638  19.920  18.380  15.540
 1982DOPG   GL145639  20.390  18.190  15.530
 1982DOPG   GL245640  20.350  17.850  15.600
 1982DOPG   C1A45641  20.720  17.860  15.360
 1982DOPG   D2A45642  20.980  17.580  15.670
 1982DOPG   C3A45643  21.160  17.500  16.010
 1982DOPG   C4A45644  21.060  17.140  16.150
 1982DOPG   C1B45645  20.700  17.940  15.850
 1982DOPG   D2B45646  21.000  18.070  16.070
 1982DOPG   C3B45647  21.410  18.030  16.010
 1982DOPG   C4B45648  21.810  18.130  15.900
 1983DOPG   GL045649  13.110  23.470   9.240
 1983DOPG   PO445650  13.520  23.420   9.630
 1983DOPG   GL145651  13.390  23.260  10.010
 1983DOPG   GL245652  13.110  23.100  10.040
 1983DOPG   C1A45653  13.570  23.210  10.430
 1983DOPG   D2A45654  13.850  22.960  10.780
 1983DOPG   C3A45655  13.630  22.660  11.050
 1983DOPG   C4A45656  13.250  22.600  11.240
 1983DOPG   C1B45657  13.390  22.780  10.170
 1983DOPG   D2B45658  13.710  22.560  10.340
 1983DOPG   C3B45659  13.930  22.400  10.700
 1983DOPG   C4B45660  14.190  22.060  10.710
 1984DOPG   GL045661   4.430  20.110  20.620
 1984DOPG   PO445662   4.000  20.140  20.450
 1984DOPG   GL145663   3.710  20.240  20.730
 1984DOPG   GL245664   3.490  20.390  20.720
 1984DOPG   C1A45665   3.680  20.240  21.140
 1984DOPG   D2A45666   3.430  20.220  21.480
 1984DOPG   C3A45667   3.300  19.800  21.700
 1984DOPG   C4A45668   3.240  19.480  22.010
 1984DOPG   C1B45669   3.140  20.190  20.940
 1984DOPG   D2B45670   2.740  20.060  21.210
 1984DOPG   C3B45671   2.440  20.320  21.480
 1984DOPG   C4B45672   2.170  20.560  21.590
 1985DOPG   GL045673  15.410  13.350  11.660
 1985DOPG   PO445674  15.700  13.640  11.730
 1985DOPG   GL145675  15.320  13.850  11.940
 1985DOPG   GL245676  15.250  13.670  12.220
 1985DOPG   C1A45677  14.950  13.980  11.710
 1985DOPG   D2A45678  14.580  14.240  11.520
 1985DOPG   C3A45679  14.340  14.530  11.830
 1985DOPG   C4A45680  14.110  14.670  12.100
 1985DOPG   C1B45681  15.150  13.920  12.470
 1985DOPG   D2B45682  15.090  13.850  12.840
 1985DOPG   C3B45683  15.380  13.610  13.090
 1985DOPG   C4B45684  15.550  13.780  13.310
 1986DOPG   GL045685   6.160  20.910  18.710
 1986DOPG   PO445686   5.760  20.870  18.470
 1986DOPG   GL145687   6.100  20.770  18.210
 1986DOPG   GL245688   6.090  20.720  17.930
 1986DOPG   C1A45689   6.420  20.440  18.290
 1986DOPG   D2A45690   6.710  20.060  18.030
 1986DOPG   C3A45691   7.110  20.040  17.960
 1986DOPG   C4A45692   7.590  20.100  17.960
 1986DOPG   C1B45693   6.530  21.000  17.990
 1986DOPG   D2B45694   6.810  21.180  18.070
 1986DOPG   C3B45695   7.130  21.180  17.890
 1986DOPG   C4B45696   7.560  21.210  17.920
 1987DOPG   GL045697   1.630  17.250  15.170
 1987DOPG   PO445698   1.400  17.180  15.510
 1987DOPG   GL145699   1.000  17.000  15.740
 1987DOPG   GL245700   0.910  16.720  15.550
 1987DOPG   C1A45701   0.610  16.900  15.850
 1987DOPG   D2A45702   0.440  16.480  15.770
 1987DOPG   C3A45703   0.670  16.360  15.360
 1987DOPG   C4A45704   0.830  16.220  15.080
 1987DOPG   C1B45705   1.000  16.540  15.870
 1987DOPG   D2B45706   0.860  16.350  16.290
 1987DOPG   C3B45707   0.890  15.900  16.490
 1987DOPG   C4B45708   1.020  15.650  16.750
 1988DOPG   GL045709   9.940  12.390  17.160
 1988DOPG   PO445710  10.370  12.240  17.310
 1988DOPG   GL145711  10.660  12.660  17.310
 1988DOPG   GL245712  11.010  12.690  17.370
 1988DOPG   C1A45713  10.850  13.010  16.930
 1988DOPG   D2A45714  10.970  13.320  16.640
 1988DOPG   C3A45715  11.190  13.380  16.260
 1988DOPG   C4A45716  11.360  13.670  15.930
 1988DOPG   C1B45717  11.300  12.890  17.150
 1988DOPG   D2B45718  11.590  13.060  16.900
 1988DOPG   C3B45719  11.430  13.410  16.750
 1988DOPG   C4B45720  11.560  13.750  16.460
 1989DOPG   GL045721   9.630  12.340  11.200
 1989DOPG   PO445722   9.990  12.630  11.140
 1989DOPG   GL145723   9.900  13.030  11.360
 1989DOPG   GL245724   9.610  13.220  11.370
 1989DOPG   C1A45725   9.860  13.110  11.760
 1989DOPG   D2A45726   9.780  13.500  12.080
 1989DOPG   C3A45727   9.750  13.670  12.420
 1989DOPG   C4A45728   9.770  14.070  12.570
 1989DOPG   C1B45729   9.860  13.560  11.220
 1989DOPG   D2B45730  10.200  13.730  11.100
 1989DOPG   C3B45731  10.510  13.870  11.400
 1989DOPG   C4B45732  10.780  14.210  11.570
 1990DOPG   GL045733   1.700  18.230  14.410
 1990DOPG   PO445734   1.490  18.410  13.960
 1990DOPG   GL145735   1.210  18.530  13.500
 1990DOPG   GL245736   1.160  18.790  13.550
 1990DOPG   C1A45737   0.850  18.380  13.340
 1990DOPG   D2A45738   0.410  18.410  13.400
 1990DOPG   C3A45739   0.190  18.100  13.310
 1990DOPG   C4A45740  36.190  17.960  13.430
 1990DOPG   C1B45741   0.740  18.680  13.690
 1990DOPG   D2B45742   0.270  18.740  13.760
 1990DOPG   C3B45743  36.280  18.460  13.500
 1990DOPG   C4B45744  35.910  18.420  13.320
 1991DOPG   GL045745   4.970  19.690  14.900
 1991DOPG   PO445746   5.170  19.250  14.930
 1991DOPG   GL145747   5.580  19.400  15.100
 1991DOPG   GL245748   5.860  19.230  15.240
 1991DOPG   C1A45749   6.060  19.700  14.990
 1991DOPG   D2A45750   6.240  20.080  14.910
 1991DOPG   C3A45751   6.650  20.180  14.900
 1991DOPG   C4A45752   6.990  20.170  15.200
 1991DOPG   C1B45753   6.110  18.920  15.360
 1991DOPG   D2B45754   6.440  18.930  15.640
 1991DOPG   C3B45755   6.560  19.090  16.010
 1991DOPG   C4B45756   7.020  19.160  16.070
 1992DOPG   GL045757  10.380  23.170   9.730
 1992DOPG   PO445758   9.990  22.900   9.770
 1992DOPG   GL145759  10.170  22.640  10.110
 1992DOPG   GL245760  10.470  22.710  10.190
 1992DOPG   C1A45761  10.070  22.300  10.190
 1992DOPG   D2A45762   9.720  22.100  10.300
 1992DOPG   C3A45763   9.630  21.810  10.660
 1992DOPG   C4A45764   9.690  21.400  10.960
 1992DOPG   C1B45765  10.440  22.360  10.430
 1992DOPG   D2B45766  10.500  22.420  10.850
 1992DOPG   C3B45767  10.270  22.240  11.060
 1992DOPG   C4B45768   9.930  22.170  11.300
 1993DOPG   GL045769   8.230  25.090  20.560
 1993DOPG   PO445770   7.850  25.360  20.680
 1993DOPG   GL145771   8.000  25.770  20.820
 1993DOPG   GL245772   7.730  26.060  20.720
 1993DOPG   C1A45773   8.070  26.100  21.150
 1993DOPG   D2A45774   7.720  26.200  21.460
 1993DOPG   C3A45775   7.780  26.040  21.850
 1993DOPG   C4A45776   8.040  26.150  22.300
 1993DOPG   C1B45777   7.650  26.500  21.070
 1993DOPG   D2B45778   7.480  26.780  21.360
 1993DOPG   C3B45779   7.280  26.980  21.770
 1993DOPG   C4B45780   7.200  27.060  22.320
 1994DOPG   GL045781   7.880  26.980  17.800
 1994DOPG   PO445782   7.460  26.960  17.900
 1994DOPG   GL145783   7.220  27.400  17.900
 1994DOPG   GL245784   6.980  27.590  18.110
 1994DOPG   C1A45785   7.110  27.690  17.590
 1994DOPG   D2A45786   7.150  28.030  17.430
 1994DOPG   C3A45787   6.780  28.390  17.470
 1994DOPG   C4A45788   6.830  28.670  17.140
 1994DOPG   C1B45789   6.750  27.990  17.940
 1994DOPG   D2B45790   6.400  28.250  17.920
 1994DOPG   C3B45791   6.290  28.610  18.180
 1994DOPG   C4B45792   6.120  28.990  18.090
 1995DOPG   GL045793  18.660  16.130  13.180
 1995DOPG   PO445794  18.370  16.320  12.980
 1995DOPG   GL145795  18.010  16.450  13.100
 1995DOPG   GL245796  17.860  16.190  13.000
 1995DOPG   C1A45797  17.680  16.790  13.300
 1995DOPG   D2A45798  17.290  16.830  13.450
 1995DOPG   C3A45799  17.160  17.120  13.700
 1995DOPG   C4A45800  16.950  17.440  13.820
 1995DOPG   C1B45801  17.490  16.410  13.000
 1995DOPG   D2B45802  17.090  16.540  13.140
 1995DOPG   C3B45803  17.100  17.000  12.980
 1995DOPG   C4B45804  17.270  17.480  13.000
 1996DOPG   GL045805  13.650  18.370  20.590
 1996DOPG   PO445806  13.860  17.990  20.740
 1996DOPG   GL145807  14.100  18.090  20.410
 1996DOPG   GL245808  14.140  18.410  20.330
 1996DOPG   C1A45809  14.170  17.910  19.990
 1996DOPG   D2A45810  13.850  17.700  19.820
 1996DOPG   C3A45811  13.620  17.970  19.630
 1996DOPG   C4A45812  13.310  18.260  19.730
 1996DOPG   C1B45813  14.170  18.410  19.880
 1996DOPG   D2B45814  14.090  18.100  19.520
 1996DOPG   C3B45815  14.420  17.880  19.580
 1996DOPG   C4B45816  14.510  17.400  19.740
 1997DOPG   GL045817   8.190  26.750  18.150
 1997DOPG   PO445818   8.050  26.690  18.570
 1997DOPG   GL145819   8.240  27.070  18.630
 1997DOPG   GL245820   8.070  27.290  18.680
 1997DOPG   C1A45821   8.510  27.440  18.540
 1997DOPG   D2A45822   8.540  27.910  18.640
 1997DOPG   C3A45823   8.840  28.170  18.870
 1997DOPG   C4A45824   8.930  28.520  18.970
 1997DOPG   C1B45825   8.100  27.660  18.810
 1997DOPG   D2B45826   7.960  28.140  18.810
 1997DOPG   C3B45827   8.330  28.390  18.860
 1997DOPG   C4B45828   8.510  28.710  18.850
 1998DOPG   GL045829   5.730  18.700  10.800
 1998DOPG   PO445830   6.080  18.760  10.590
 1998DOPG   GL145831   6.490  19.040  10.680
 1998DOPG   GL245832   6.680  18.990  10.880
 1998DOPG   C1A45833   6.930  18.950  10.400
 1998DOPG   D2A45834   7.280  19.190  10.100
 1998DOPG   C3A45835   7.620  18.960   9.880
 1998DOPG   C4A45836   7.760  18.560  10.020
 1998DOPG   C1B45837   7.190  19.020  10.910
 1998DOPG   D2B45838   7.520  18.910  10.760
 1998DOPG   C3B45839   7.470  18.710  10.460
 1998DOPG   C4B45840   7.170  18.580  10.130
 1999DOPG   GL045841   7.480  24.690  17.820
 1999DOPG   PO445842   7.860  24.770  17.770
 1999DOPG   GL145843   7.980  24.450  17.600
 1999DOPG   GL245844   7.860  24.410  17.420
 1999DOPG   C1A45845   8.060  23.980  17.550
 1999DOPG   D2A45846   8.150  23.540  17.590
 1999DOPG   C3A45847   7.990  23.190  17.780
 1999DOPG   C4A45848   8.180  22.810  18.100
 1999DOPG   C1B45849   8.150  24.380  17.090
 1999DOPG   D2B45850   8.230  24.050  16.770
 1999DOPG   C3B45851   8.370  24.090  16.310
 1999DOPG   C4B45852   8.360  24.140  15.870
 2000DOPG   GL045853  16.630  13.900  11.950
 2000DOPG   PO445854  16.960  14.190  12.070
 2000DOPG   GL145855  16.630  14.540  12.030
 2000DOPG   GL245856  16.350  14.440  11.800
 2000DOPG   C1A45857  16.180  14.830  11.970
 2000DOPG   D2A45858  15.790  14.920  11.880
 2000DOPG   C3A45859  15.600  14.760  11.590
 2000DOPG   C4A45860  15.520  14.290  11.450
 2000DOPG   C1B45861  16.310  14.220  12.220
 2000DOPG   D2B45862  16.000  14.160  12.560
 2000DOPG   C3B45863  15.930  14.400  13.070
 2000DOPG   C4B45864  15.680  14.700  13.080
 2001DOPG   GL045865   8.630  22.080  20.120
 2001DOPG   PO445866   8.670  22.420  20.420
 2001DOPG   GL145867   9.070  22.150  20.450
 2001DOPG   GL245868   9.000  21.930  20.420
 2001DOPG   C1A45869   9.530  22.050  20.350
 2001DOPG   D2A45870   9.980  22.040  20.330
 2001DOPG   C3A45871  10.290  22.240  20.550
 2001DOPG   C4A45872  10.680  22.130  20.390
 2001DOPG   C1B45873   9.140  21.990  19.960
 2001DOPG   D2B45874   9.470  21.910  19.760
 2001DOPG   C3B45875   9.250  21.910  19.450
 2001DOPG   C4B45876   9.450  21.930  19.030
 2002DOPG   GL045877  17.350  23.970  14.430
 2002DOPG   PO445878  17.110  23.740  14.160
 2002DOPG   GL145879  16.770  23.410  14.230
 2002DOPG   GL245880  16.700  23.400  13.770
 2002DOPG   C1A45881  16.530  23.190  14.510
 2002DOPG   D2A45882  16.190  23.160  14.680
 2002DOPG   C3A45883  15.970  22.930  14.750
 2002DOPG   C4A45884  15.560  22.790  14.890
 2002DOPG   C1B45885  16.340  23.350  13.920
 2002DOPG   D2B45886  16.110  23.140  14.170
 2002DOPG   C3B45887  16.360  22.780  14.370
 2002DOPG   C4B45888  16.490  22.720  14.830
 2003DOPG   GL045889   3.190  16.550  18.080
 2003DOPG   PO445890   3.070  16.720  18.410
 2003DOPG   GL145891   2.820  16.340  18.350
 2003DOPG   GL245892   2.930  16.160  18.090
 2003DOPG   C1A45893   2.680  15.980  18.590
 2003DOPG   D2A45894   2.490  15.700  18.800
 2003DOPG   C3A45895   2.070  15.610  18.630
 2003DOPG   C4A45896   1.650  15.430  18.690
 2003DOPG   C1B45897   2.710  15.880  18.110
 2003DOPG   D2B45898   2.430  15.570  18.230
 2003DOPG   C3B45899   2.120  15.700  18.050
 2003DOPG   C4B45900   1.690  15.860  17.950
 2004DOPG   GL045901  16.050  14.910  18.430
 2004DOPG   PO445902  16.100  14.490  18.300
 2004DOPG   GL145903  15.700  14.830  18.120
 2004DOPG   GL245904  15.810  14.810  17.760
 2004DOPG   C1A45905  15.340  15.040  18.010
 2004DOPG   D2A45906  14.890  15.000  17.740
 2004DOPG   C3A45907  14.940  15.370  17.500
 2004DOPG   C4A45908  14.750  15.580  17.110
 2004DOPG   C1B45909  15.500  15.180  17.550
 2004DOPG   D2B45910  15.300  15.610  17.350
 2004DOPG   C3B45911  15.210  15.800  16.970
 2004DOPG   C4B45912  15.370  15.970  16.700
 2005DOPG   GL045913   6.950  17.210   8.280
 2005DOPG   PO445914   6.870  16.770   8.120
 2005DOPG   GL145915   6.790  16.610   7.780
 2005DOPG   GL245916   6.490  16.600   7.770
 2005DOPG   C1A45917   6.770  16.400   7.380
 2005DOPG   D2A45918   6.680  15.950   7.250
 2005DOPG   C3A45919   6.570  15.950   6.900
 2005DOPG   C4A45920   6.670  16.120   6.530
 2005DOPG   C1B45921   6.250  16.280   7.510
 2005DOPG   D2B45922   6.140  15.960   7.190
 2005DOPG   C3B45923   5.770  15.870   6.950
 2005DOPG   C4B45924   5.290  15.850   7.030
 2006DOPG   GL045925  34.780  25.760  13.140
 2006DOPG   PO445926  35.120  26.080  13.210
 2006DOPG   GL145927  35.560  25.880  13.160
 2006DOPG   GL245928  35.680  25.750  13.500
 2006DOPG   C1A45929  35.960  25.730  13.010
 2006DOPG   D2A45930  36.260  25.680  13.180
 2006DOPG   C3A45931  36.180  25.320  13.550
 2006DOPG   C4A45932  35.990  25.030  13.850
 2006DOPG   C1B45933  35.580  25.370  13.310
 2006DOPG   D2B45934  35.270  25.040  13.280
 2006DOPG   C3B45935  35.090  24.580  13.170
 2006DOPG   C4B45936  35.140  24.310  12.740
 2007DOPG   GL045937  16.240  15.780   9.830
 2007DOPG   PO445938  15.960  15.610   9.490
 2007DOPG   GL145939  15.550  15.800   9.730
 2007DOPG   GL245940  15.270  15.710   9.580
 2007DOPG   C1A45941  15.520  16.100  10.140
 2007DOPG   D2A45942  15.310  16.500  10.200
 2007DOPG   C3A45943  14.970  16.470  10.520
 2007DOPG   C4A45944  14.550  16.630  10.680
 2007DOPG   C1B45945  15.350  15.500  10.050
 2007DOPG   D2B45946  15.170  15.560  10.550
 2007DOPG   C3B45947  14.820  15.520  10.830
 2007DOPG   C4B45948  14.740  15.750  11.130
 2008DOPG   GL045949   5.680  18.960  11.210
 2008DOPG   PO445950   6.020  19.000  11.540
 2008DOPG   GL145951   6.430  18.860  11.560
 2008DOPG   GL245952   6.590  18.520  11.700
 2008DOPG   C1A45953   6.830  19.090  11.490
 2008DOPG   D2A45954   7.200  19.160  11.370
 2008DOPG   C3A45955   7.590  19.200  11.680
 2008DOPG   C4A45956   7.990  19.010  11.810
 2008DOPG   C1B45957   7.020  18.620  11.820
 2008DOPG   D2B45958   7.300  18.420  11.840
 2008DOPG   C3B45959   7.620  18.650  11.700
 2008DOPG   C4B45960   7.970  18.600  11.380
 2009DOPG   GL045961   1.700  20.330  14.890
 2009DOPG   PO445962   1.350  20.350  14.660
 2009DOPG   GL145963   0.950  20.370  14.690
 2009DOPG   GL245964   0.830  20.400  14.990
 2009DOPG   C1A45965   0.530  20.230  14.510
 2009DOPG   D2A45966   0.260  20.380  14.260
 2009DOPG   C3A45967  36.190  20.540  14.330
 2009DOPG   C4A45968  35.840  20.340  14.150
 2009DOPG   C1B45969   0.400  20.560  14.890
 2009DOPG   D2B45970   0.160  20.990  15.030
 2009DOPG   C3B45971  36.170  20.980  15.270
 2009DOPG   C4B45972  35.740  21.180  15.250
 2010DOPG   GL045973  10.360  22.270  22.290
 2010DOPG   PO445974  10.210  22.110  22.570
 2010DOPG   GL145975  10.330  22.280  23.010
 2010DOPG   GL245976  10.690  22.360  23.130
 2010DOPG   C1A45977  10.470  22.000  23.320
 2010DOPG   D2A45978  10.450  22.080  23.800
 2010DOPG   C3A45979  10.050  22.320  23.950
 2010DOPG   C4A45980   9.830  22.550  24.380
 2010DOPG   C1B45981  10.780  22.350  23.530
 2010DOPG   D2B45982  10.830  22.410  23.950
 2010DOPG   C3B45983  10.520  22.490  24.240
 2010DOPG   C4B45984  10.290  22.470  24.620
 2011DOPG   GL045985  10.450  24.120  10.480
 2011DOPG   PO445986  10.800  24.210  10.440
 2011DOPG   GL145987  10.880  23.830  10.670
 2011DOPG   GL245988  10.810  23.650  10.460
 2011DOPG   C1A45989  11.170  23.670  11.000
 2011DOPG   D2A45990  11.320  23.420  11.290
 2011DOPG   C3A45991  11.260  23.190  11.760
 2011DOPG   C4A45992  11.440  22.910  12.130
 2011DOPG   C1B45993  10.880  23.370  10.750
 2011DOPG   D2B45994  11.130  23.100  10.870
 2011DOPG   C3B45995  11.620  23.010  11.040
 2011DOPG   C4B45996  12.090  22.980  11.090
 2012DOPG   GL045997  13.450  22.480   8.460
 2012DOPG   PO445998  13.170  22.670   8.840
 2012DOPG   GL145999  13.130  22.340   9.110
 2012DOPG   GL246000  13.410  22.490   9.330
 2012DOPG   C1A46001  13.090  22.110   9.520
 2012DOPG   D2A46002  12.860  21.760   9.780
 2012DOPG   C3A46003  12.870  21.630  10.080
 2012DOPG   C4A46004  12.660  21.350  10.200
 2012DOPG   C1B46005  13.560  22.220   9.670
 2012DOPG   D2B46006  13.690  22.010   9.990
 2012DOPG   C3B46007  13.360  21.750  10.190
 2012DOPG   C4B46008  13.240  21.800  10.640
 2013DOPG   GL046009  14.820  13.660  11.990
 2013DOPG   PO446010  15.030  13.240  11.980
 2013DOPG   GL146011  14.890  13.370  12.400
 2013DOPG   GL246012  14.970  13.370  12.700
 2013DOPG   C1A46013  14.650  13.780  12.420
 2013DOPG   D2A46014  14.560  14.230  12.630
 2013DOPG   C3A46015  14.590  14.600  12.280
 2013DOPG   C4A46016  14.860  14.700  12.050
 2013DOPG   C1B46017  14.680  13.540  12.950
 2013DOPG   D2B46018  14.630  13.940  13.070
 2013DOPG   C3B46019  14.390  14.340  13.110
 2013DOPG   C4B46020  14.100  14.550  13.340
 2014DOPG   GL046021  11.630  23.520   9.350
 2014DOPG   PO446022  11.880  23.710   9.610
 2014DOPG   GL146023  11.840  23.450   9.820
 2014DOPG   GL246024  11.530  23.520   9.910
 2014DOPG   C1A46025  12.080  23.120   9.930
 2014DOPG   D2A46026  12.080  22.760  10.020
 2014DOPG   C3A46027  11.920  22.450  10.300
 2014DOPG   C4A46028  11.990  22.200  10.680
 2014DOPG   C1B46029  11.600  23.090  10.060
 2014DOPG   D2B46030  11.480  22.680  10.280
 2014DOPG   C3B46031  11.430  22.680  10.720
 2014DOPG   C4B46032  11.710  22.480  11.010
 2015DOPG   GL046033  10.920  21.440  22.050
 2015DOPG   PO446034  11.280  21.370  21.900
 2015DOPG   GL146035  11.230  21.110  21.560
 2015DOPG   GL246036  11.210  20.810  21.630
 2015DOPG   C1A46037  11.330  20.960  21.160
 2015DOPG   D2A46038  11.810  21.050  20.940
 2015DOPG   C3A46039  11.710  21.140  20.510
 2015DOPG   C4A46040  11.480  20.940  20.150
 2015DOPG   C1B46041  11.470  20.470  21.310
 2015DOPG   D2B46042  11.610  20.220  20.880
 2015DOPG   C3B46043  11.700  20.200  20.380
 2015DOPG   C4B46044  11.910  20.070  20.070
 2016DOPG   GL046045   6.290  18.310  11.400
 2016DOPG   PO446046   6.060  18.230  10.980
 2016DOPG   GL146047   6.480  18.460  10.910
 2016DOPG   GL246048   6.550  18.570  10.620
 2016DOPG   C1A46049   6.840  18.570  11.200
 2016DOPG   D2A46050   7.260  18.700  11.350
 2016DOPG   C3A46051   7.620  18.890  11.250
 2016DOPG   C4A46052   8.040  19.120  11.320
 2016DOPG   C1B46053   7.020  18.570  10.770
 2016DOPG   D2B46054   7.330  18.250  10.790
 2016DOPG   C3B46055   7.820  18.510  10.770
 2016DOPG   C4B46056   8.060  18.840  10.910
 2017DOPG   GL046057   0.100  21.730  22.020
 2017DOPG   PO446058   0.450  21.970  22.250
 2017DOPG   GL146059   0.870  21.920  22.090
 2017DOPG   GL246060   1.010  21.650  22.230
 2017DOPG   C1A46061   1.060  21.960  21.720
 2017DOPG   D2A46062   1.060  22.130  21.270
 2017DOPG   C3A46063   1.490  21.940  21.210
 2017DOPG   C4A46064   1.960  21.920  21.090
 2017DOPG   C1B46065   1.290  21.380  21.900
 2017DOPG   D2B46066   1.290  21.030  21.650
 2017DOPG   C3B46067   1.440  21.060  21.230
 2017DOPG   C4B46068   1.510  20.790  20.860
 2018DOPG   GL046069  14.530  11.890  13.540
 2018DOPG   PO446070  14.480  12.150  13.280
 2018DOPG   GL146071  14.210  12.410  13.450
 2018DOPG   GL246072  14.460  12.690  13.400
 2018DOPG   C1A46073  14.030  12.840  13.640
 2018DOPG   D2A46074  13.850  13.300  13.470
 2018DOPG   C3A46075  14.030  13.620  13.230
 2018DOPG   C4A46076  14.030  14.020  13.260
 2018DOPG   C1B46077  14.250  13.050  13.230
 2018DOPG   D2B46078  14.240  13.290  12.830
 2018DOPG   C3B46079  14.200  13.750  12.740
 2018DOPG   C4B46080  14.050  14.130  12.770
 2019DOPG   GL046081  15.190  26.800  13.610
 2019DOPG   PO446082  14.940  26.790  13.940
 2019DOPG   GL146083  14.960  27.200  13.900
 2019DOPG   GL246084  14.870  27.270  13.650
 2019DOPG   C1A46085  15.190  27.490  14.050
 2019DOPG   D2A46086  15.560  27.770  14.060
 2019DOPG   C3A46087  15.240  27.960  13.840
 2019DOPG   C4A46088  14.910  28.230  13.710
 2019DOPG   C1B46089  15.280  27.510  13.570
 2019DOPG   D2B46090  15.620  27.850  13.530
 2019DOPG   C3B46091  15.770  28.140  13.770
 2019DOPG   C4B46092  15.590  28.460  13.680
 2020DOPG   GL046093   8.840  22.620  22.600
 2020DOPG   PO446094   8.960  22.180  22.660
 2020DOPG   GL146095   9.060  22.360  23.010
 2020DOPG   GL246096   9.190  22.160  23.280
 2020DOPG   C1A46097   9.080  22.670  23.440
 2020DOPG   D2A46098   9.220  22.790  23.760
 2020DOPG   C3A46099   9.250  22.420  24.050
 2020DOPG   C4A46100   8.970  22.280  24.330
 2020DOPG   C1B46101   9.410  22.320  23.550
 2020DOPG   D2B46102   9.650  22.570  23.690
 2020DOPG   C3B46103   9.920  22.850  23.950
 2020DOPG   C4B46104  10.280  23.100  24.040
 2021DOPG   GL046105   8.150  25.240  12.100
 2021DOPG   PO446106   8.600  25.090  12.080
 2021DOPG   GL146107   9.000  24.960  12.300
 2021DOPG   GL246108   9.350  24.790  12.220
 2021DOPG   C1A46109   9.010  24.600  12.620
 2021DOPG   D2A46110   9.280  24.460  12.970
 2021DOPG   C3A46111   9.350  24.170  13.330
 2021DOPG   C4A46112   9.410  24.090  13.630
 2021DOPG   C1B46113   9.290  24.300  12.380
 2021DOPG   D2B46114   9.190  23.870  12.250
 2021DOPG   C3B46115   9.360  23.560  12.550
 2021DOPG   C4B46116   9.190  23.400  13.030
 2022DOPG   GL046117  14.530  25.340  15.730
 2022DOPG   PO446118  14.580  25.570  16.170
 2022DOPG   GL146119  14.520  25.130  16.350
 2022DOPG   GL246120  14.200  25.170  16.510
 2022DOPG   C1A46121  14.490  24.840  16.010
 2022DOPG   D2A46122  14.530  24.750  15.590
 2022DOPG   C3A46123  14.250  24.460  15.450
 2022DOPG   C4A46124  13.980  24.240  15.230
 2022DOPG   C1B46125  14.090  24.770  16.490
 2022DOPG   D2B46126  13.820  24.560  16.300
 2022DOPG   C3B46127  13.820  24.310  15.980
 2022DOPG   C4B46128  14.120  23.980  15.630
 2023DOPG   GL046129  17.760  15.390  11.600
 2023DOPG   PO446130  17.310  15.470  11.660
 2023DOPG   GL146131  17.120  15.830  11.650
 2023DOPG   GL246132  16.920  15.760  11.980
 2023DOPG   C1A46133  16.810  16.170  11.750
 2023DOPG   D2A46134  16.460  16.450  11.890
 2023DOPG   C3A46135  16.360  16.750  12.240
 2023DOPG   C4A46136  16.080  16.960  12.600
 2023DOPG   C1B46137  16.560  15.950  12.120
 2023DOPG   D2B46138  16.410  16.160  12.320
 2023DOPG   C3B46139  16.280  16.240  12.710
 2023DOPG   C4B46140  16.150  16.440  13.000
 2024DOPG   GL046141   1.850  21.650  16.040
 2024DOPG   PO446142   1.520  21.270  16.080
 2024DOPG   GL146143   1.180  21.210  16.130
 2024DOPG   GL246144   0.880  21.200  15.970
 2024DOPG   C1A46145   0.910  20.900  16.330
 2024DOPG   D2A46146   0.510  20.820  16.600
 2024DOPG   C3A46147   0.140  20.770  16.310
 2024DOPG   C4A46148  36.200  20.790  16.000
 2024DOPG   C1B46149   0.520  21.260  16.300
 2024DOPG   D2B46150   0.140  21.360  16.600
 2024DOPG   C3B46151  36.040  21.290  16.470
 2024DOPG   C4B46152  35.620  21.410  16.610
 2025DOPG   GL046153  10.940  17.060   8.010
 2025DOPG   PO446154  10.480  16.890   8.000
 2025DOPG   GL146155  10.680  16.970   8.440
 2025DOPG   GL246156  10.450  17.200   8.600
 2025DOPG   C1A46157  10.890  17.140   8.900
 2025DOPG   D2A46158  10.910  17.590   9.190
 2025DOPG   C3A46159  10.970  17.540   9.590
 2025DOPG   C4A46160  11.120  17.830   9.890
 2025DOPG   C1B46161  10.270  17.580   8.530
 2025DOPG   D2B46162   9.890  17.720   8.460
 2025DOPG   C3B46163   9.850  18.180   8.370
 2025DOPG   C4B46164   9.540  18.460   8.520
 2026DOPG   GL046165  11.810  28.160  14.650
 2026DOPG   PO446166  12.170  28.030  14.660
 2026DOPG   GL146167  12.310  28.380  14.530
 2026DOPG   GL246168  12.030  28.530  14.470
 2026DOPG   C1A46169  12.470  28.850  14.300
 2026DOPG   D2A46170  12.620  29.100  14.500
 2026DOPG   C3A46171  13.050  29.220  14.550
 2026DOPG   C4A46172  13.360  29.180  14.300
 2026DOPG   C1B46173  12.100  28.910  14.720
 2026DOPG   D2B46174  12.160  29.300  14.800
 2026DOPG   C3B46175  11.880  29.620  15.020
 2026DOPG   C4B46176  11.830  30.000  15.260
 2027DOPG   GL046177   6.380  12.770  14.010
 2027DOPG   PO446178   6.030  12.450  14.110
 2027DOPG   GL146179   5.710  12.200  14.030
 2027DOPG   GL246180   5.740  12.010  14.230
 2027DOPG   C1A46181   5.430  12.020  13.790
 2027DOPG   D2A46182   4.920  11.770  13.790
 2027DOPG   C3A46183   4.750  11.500  14.030
 2027DOPG   C4A46184   4.430  11.330  14.210
 2027DOPG   C1B46185   5.540  11.680  14.170
 2027DOPG   D2B46186   5.280  11.350  14.090
 2027DOPG   C3B46187   5.420  10.890  13.940
 2027DOPG   C4B46188   5.770  10.700  13.770
 2028DOPG   GL046189  10.970  11.710  11.260
 2028DOPG   PO446190  10.520  11.660  11.180
 2028DOPG   GL146191  10.360  11.420  10.870
 2028DOPG   GL246192  10.540  11.090  10.890
 2028DOPG   C1A46193  10.130  11.110  10.500
 2028DOPG   D2A46194   9.680  10.840  10.330
 2028DOPG   C3A46195   9.530  10.870   9.880
 2028DOPG   C4A46196   9.490  10.830   9.480
 2028DOPG   C1B46197  10.490  10.700  10.570
 2028DOPG   D2B46198  10.350  10.540  10.220
 2028DOPG   C3B46199   9.920  10.500  10.060
 2028DOPG   C4B46200   9.630  10.310  10.200
 2029DOPG   GL046201   2.850  23.380  17.260
 2029DOPG   PO446202   2.620  23.740  17.470
 2029DOPG   GL146203   2.220  23.930  17.540
 2029DOPG   GL246204   2.310  24.330  17.610
 2029DOPG   C1A46205   1.940  24.090  17.870
 2029DOPG   D2A46206   1.450  24.200  18.050
 2029DOPG   C3A46207   1.400  23.970  18.350
 2029DOPG   C4A46208   1.040  23.820  18.530
 2029DOPG   C1B46209   2.180  24.500  18.000
 2029DOPG   D2B46210   1.910  24.850  18.070
 2029DOPG   C3B46211   1.550  24.770  18.230
 2029DOPG   C4B46212   1.100  24.680  18.050
 2030DOPG   GL046213  18.620  19.400  15.530
 2030DOPG   PO446214  18.760  19.830  15.490
 2030DOPG   GL146215  18.400  19.800  15.190
 2030DOPG   GL246216  18.170  19.930  15.230
 2030DOPG   C1A46217  18.260  19.410  15.060
 2030DOPG   D2A46218  18.100  18.950  15.290
 2030DOPG   C3A46219  17.760  18.640  15.050
 2030DOPG   C4A46220  17.390  18.600  14.890
 2030DOPG   C1B46221  17.950  19.730  14.840
 2030DOPG   D2B46222  17.740  19.950  14.590
 2030DOPG   C3B46223  17.300  20.100  14.780
 2030DOPG   C4B46224  16.900  20.290  14.920
 2031DOPG   GL046225  35.100  14.240  12.020
 2031DOPG   PO446226  35.380  14.130  11.810
 2031DOPG   GL146227  35.790  14.280  11.980
 2031DOPG   GL246228  35.830  14.410  11.670
 2031DOPG   C1A46229  36.280  14.300  12.010
 2031DOPG   D2A46230   0.260  14.500  12.230
 2031DOPG   C3A46231   0.640  14.670  12.130
 2031DOPG   C4A46232   1.110  14.700  12.250
 2031DOPG   C1B46233  36.280  14.530  11.480
 2031DOPG   D2B46234   0.220  14.780  11.710
 2031DOPG   C3B46235   0.650  14.960  11.720
 2031DOPG   C4B46236   0.810  15.380  11.660
 2032DOPG   GL046237  12.950  25.870  17.470
 2032DOPG   PO446238  12.790  25.890  17.850
 2032DOPG   GL146239  12.650  25.500  17.690
 2032DOPG   GL246240  12.530  25.540  17.350
 2032DOPG   C1A46241  12.800  25.150  17.600
 2032DOPG   D2A46242  12.810  24.730  17.760
 2032DOPG   C3A46243  12.940  24.390  17.540
 2032DOPG   C4A46244  13.140  24.000  17.370
 2032DOPG   C1B46245  12.460  25.100  17.250
 2032DOPG   D2B46246  12.730  24.700  17.200
 2032DOPG   C3B46247  12.620  24.420  16.890
 2032DOPG   C4B46248  12.600  24.120  16.530
 2033DOPG   GL046249   2.430  24.720  15.170
 2033DOPG   PO446250   2.370  24.490  14.750
 2033DOPG   GL146251   2.080  24.760  14.770
 2033DOPG   GL246252   2.120  25.100  14.560
 2033DOPG   C1A46253   1.610  24.860  14.920
 2033DOPG   D2A46254   1.300  25.130  15.000
 2033DOPG   C3A46255   0.820  25.160  15.350
 2033DOPG   C4A46256   0.420  25.250  15.290
 2033DOPG   C1B46257   1.960  25.290  14.910
 2033DOPG   D2B46258   2.010  25.230  15.430
 2033DOPG   C3B46259   1.910  25.630  15.570
 2033DOPG   C4B46260   2.000  26.010  15.870
 2034DOPG   GL046261  18.120  23.150  16.820
 2034DOPG   PO446262  18.460  23.450  16.880
 2034DOPG   GL146263  18.700  23.750  16.960
 2034DOPG   GL246264  18.740  23.940  16.680
 2034DOPG   C1A46265  18.890  23.980  17.270
 2034DOPG   D2A46266  19.310  24.040  17.530
 2034DOPG   C3A46267  19.630  24.070  17.280
 2034DOPG   C4A46268  19.870  24.380  17.040
 2034DOPG   C1B46269  19.170  23.780  16.930
 2034DOPG   D2B46270  19.340  23.620  17.310
 2034DOPG   C3B46271  19.780  23.660  17.500
 2034DOPG   C4B46272  20.070  23.610  17.810
 2035DOPG   GL046273   4.590  28.840  11.230
 2035DOPG   PO446274   4.400  29.140  10.890
 2035DOPG   GL146275   4.410  28.680  10.730
 2035DOPG   GL246276   4.220  28.410  10.990
 2035DOPG   C1A46277   4.530  28.260  10.610
 2035DOPG   D2A46278   4.890  27.910  10.660
 2035DOPG   C3A46279   5.030  27.840  11.020
 2035DOPG   C4A46280   4.970  27.760  11.500
 2035DOPG   C1B46281   4.150  28.130  11.360
 2035DOPG   D2B46282   4.490  27.900  11.570
 2035DOPG   C3B46283   4.480  27.680  11.920
 2035DOPG   C4B46284   4.210  27.220  12.050
 2036DOPG   GL046285   4.910  16.290  14.170
 2036DOPG   PO446286   5.170  16.320  14.440
 2036DOPG   GL146287   5.610  16.230  14.560
 2036DOPG   GL246288   5.720  15.880  14.390
 2036DOPG   C1A46289   5.970  16.050  14.830
 2036DOPG   D2A46290   6.330  15.980  14.990
 2036DOPG   C3A46291   6.730  16.270  14.890
 2036DOPG   C4A46292   7.010  16.630  14.800
 2036DOPG   C1B46293   5.890  16.080  14.090
 2036DOPG   D2B46294   6.190  16.340  13.890
 2036DOPG   C3B46295   6.340  16.640  13.570
 2036DOPG   C4B46296   6.420  16.910  13.870
 2037DOPG   GL046297  17.850  20.360  10.860
 2037DOPG   PO446298  17.920  20.720  11.090
 2037DOPG   GL146299  17.570  20.540  11.430
 2037DOPG   GL246300  17.390  20.840  11.460
 2037DOPG   C1A46301  17.170  20.410  11.240
 2037DOPG   D2A46302  16.710  20.360  11.330
 2037DOPG   C3A46303  16.450  20.140  11.750
 2037DOPG   C4A46304  16.150  19.980  12.020
 2037DOPG   C1B46305  16.840  20.830  11.450
 2037DOPG   D2B46306  16.570  21.130  11.220
 2037DOPG   C3B46307  16.750  21.430  10.840
 2037DOPG   C4B46308  16.570  21.770  10.580
 2038DOPG   GL046309  10.280  14.070   3.530
 2038DOPG   PO446310  10.320  14.380   3.860
 2038DOPG   GL146311  10.580  14.400   4.260
 2038DOPG   GL246312  10.350  14.180   4.450
 2038DOPG   C1A46313  10.600  14.910   4.390
 2038DOPG   D2A46314  10.430  15.420   4.320
 2038DOPG   C3A46315  10.770  15.810   4.370
 2038DOPG   C4A46316  11.030  15.980   4.780
 2038DOPG   C1B46317  10.690  14.180   4.800
 2038DOPG   D2B46318  10.710  14.520   5.160
 2038DOPG   C3B46319  10.460  14.460   5.580
 2038DOPG   C4B46320  10.350  14.220   5.900
 2039DOPG   GL046321  12.570  15.050  19.470
 2039DOPG   PO446322  12.990  15.060  19.740
 2039DOPG   GL146323  13.000  15.410  19.540
 2039DOPG   GL246324  13.150  15.640  19.610
 2039DOPG   C1A46325  12.680  15.640  19.270
 2039DOPG   D2A46326  12.760  15.990  19.110
 2039DOPG   C3A46327  12.670  16.040  18.680
 2039DOPG   C4A46328  12.270  16.060  18.540
 2039DOPG   C1B46329  13.210  15.770  19.210
 2039DOPG   D2B46330  13.560  15.900  19.080
 2039DOPG   C3B46331  13.820  16.200  19.120
 2039DOPG   C4B46332  13.930  16.590  19.080
 2040DOPG   GL046333   5.990  17.560  10.120
 2040DOPG   PO446334   6.340  17.850  10.240
 2040DOPG   GL146335   6.620  17.980  10.570
 2040DOPG   GL246336   6.940  18.170  10.420
 2040DOPG   C1A46337   6.860  18.000  10.960
 2040DOPG   D2A46338   7.250  17.750  11.100
 2040DOPG   C3A46339   7.550  17.760  11.390
 2040DOPG   C4A46340   7.730  18.020  11.810
 2040DOPG   C1B46341   7.220  17.810  10.550
 2040DOPG   D2B46342   7.250  17.370  10.720
 2040DOPG   C3B46343   7.270  17.250  11.230
 2040DOPG   C4B46344   7.440  17.090  11.710
 2041DOPG   GL046345   8.890  17.820  22.410
 2041DOPG   PO446346   8.830  18.020  22.780
 2041DOPG   GL146347   8.930  17.690  23.160
 2041DOPG   GL246348   9.250  17.650  23.300
 2041DOPG   C1A46349   8.820  17.670  23.480
 2041DOPG   D2A46350   8.730  17.310  23.750
 2041DOPG   C3A46351   8.730  17.600  24.110
 2041DOPG   C4A46352   8.980  17.760  24.450
 2041DOPG   C1B46353   9.280  17.780  23.720
 2041DOPG   D2B46354   9.260  17.670  24.010
 2041DOPG   C3B46355   9.490  17.910  24.380
 2041DOPG   C4B46356   9.200  18.110  24.830
 2042DOPG   GL046357  15.560  25.450  15.420
 2042DOPG   PO446358  15.220  25.660  15.330
 2042DOPG   GL146359  14.870  25.450  15.200
 2042DOPG   GL246360  14.790  25.320  14.820
 2042DOPG   C1A46361  14.580  25.160  15.310
 2042DOPG   D2A46362  14.380  24.790  15.100
 2042DOPG   C3A46363  14.420  24.320  14.980
 2042DOPG   C4A46364  14.450  23.990  15.270
 2042DOPG   C1B46365  14.830  24.900  14.890
 2042DOPG   D2B46366  14.890  24.390  14.840
 2042DOPG   C3B46367  14.630  24.010  14.600
 2042DOPG   C4B46368  14.500  24.020  14.190
 2043DOPG   GL046369  17.930  23.950  17.540
 2043DOPG   PO446370  18.050  24.220  17.890
 2043DOPG   GL146371  18.250  24.220  18.280
 2043DOPG   GL246372  18.530  24.040  18.250
 2043DOPG   C1A46373  18.370  24.490  18.610
 2043DOPG   D2A46374  18.620  24.780  18.740
 2043DOPG   C3A46375  18.820  25.220  18.590
 2043DOPG   C4A46376  19.150  25.380  18.240
 2043DOPG   C1B46377  18.700  24.490  18.180
 2043DOPG   D2B46378  19.020  24.610  18.000
 2043DOPG   C3B46379  19.410  24.440  17.820
 2043DOPG   C4B46380  19.650  24.080  17.880
 2044DOPG   GL046381  12.350  13.080  18.970
 2044DOPG   PO446382  12.640  13.080  18.650
 2044DOPG   GL146383  12.580  13.540  18.540
 2044DOPG   GL246384  12.270  13.630  18.740
 2044DOPG   C1A46385  12.410  13.600  18.160
 2044DOPG   D2A46386  12.140  13.890  17.930
 2044DOPG   C3A46387  11.950  14.350  17.920
 2044DOPG   C4A46388  11.950  14.640  17.540
 2044DOPG   C1B46389  12.200  14.060  18.600
 2044DOPG   D2B46390  11.950  14.160  18.330
 2044DOPG   C3B46391  11.450  14.280  18.370
 2044DOPG   C4B46392  11.150  14.540  18.080
 2045DOPG   GL046393  12.570  25.880  12.730
 2045DOPG   PO446394  12.130  25.820  12.830
 2045DOPG   GL146395  12.320  25.440  12.700
 2045DOPG   GL246396  12.400  25.370  12.910
 2045DOPG   C1A46397  12.320  25.100  12.420
 2045DOPG   D2A46398  12.170  24.710  12.330
 2045DOPG   C3A46399  12.060  24.260  12.350
 2045DOPG   C4A46400  12.250  23.790  12.350
 2045DOPG   C1B46401  12.200  24.920  12.930
 2045DOPG   D2B46402  12.150  24.550  12.810
 2045DOPG   C3B46403  11.830  24.310  12.950
 2045DOPG   C4B46404  11.590  24.060  13.270
 2046DOPG   GL046405  16.940  17.420  18.930
 2046DOPG   PO446406  17.110  16.910  19.050
 2046DOPG   GL146407  16.720  17.000  18.840
 2046DOPG   GL246408  16.480  16.710  18.750
 2046DOPG   C1A46409  16.570  17.490  18.670
 2046DOPG   D2A46410  16.450  17.670  18.260
 2046DOPG   C3A46411  16.270  17.960  18.300
 2046DOPG   C4A46412  15.950  18.220  18.180
 2046DOPG   C1B46413  16.290  16.770  18.370
 2046DOPG   D2B46414  16.020  16.750  17.910
 2046DOPG   C3B46415  16.040  17.040  17.740
 2046DOPG   C4B46416  15.830  17.460  17.740
 2047DOPG   GL046417  15.360  30.910  18.780
 2047DOPG   PO446418  15.190  30.730  19.010
 2047DOPG   GL146419  15.280  30.320  18.790
 2047DOPG   GL246420  15.400  30.050  18.840
 2047DOPG   C1A46421  15.000  30.090  18.500
 2047DOPG   D2A46422  14.680  29.810  18.340
 2047DOPG   C3A46423  14.240  29.640  18.510
 2047DOPG   C4A46424  14.040  29.980  18.770
 2047DOPG   C1B46425  15.240  29.670  18.620
 2047DOPG   D2B46426  15.140  29.250  18.430
 2047DOPG   C3B46427  15.120  28.800  18.350
 2047DOPG   C4B46428  15.340  28.400  18.190
 2048DOPG   GL046429  18.810  18.610  13.560
 2048DOPG   PO446430  18.770  18.220  13.760
 2048DOPG   GL146431  18.400  18.420  13.770
 2048DOPG   GL246432  18.480  18.790  13.900
 2048DOPG   C1A46433  18.020  18.270  13.960
 2048DOPG   D2A46434  17.680  18.560  14.070
 2048DOPG   C3A46435  17.590  18.450  14.450
 2048DOPG   C4A46436  17.160  18.280  14.610
 2048DOPG   C1B46437  18.050  18.810  13.770
 2048DOPG   D2B46438  17.650  19.010  13.920
 2048DOPG   C3B46439  17.300  18.880  13.930
 2048DOPG   C4B46440  17.210  18.470  14.080
 2049DOPG   GL046441  15.130  23.030  20.010
 2049DOPG   PO446442  14.980  23.280  19.670
 2049DOPG   GL146443  14.770  22.930  19.430
 2049DOPG   GL246444  14.630  22.660  19.510
 2049DOPG   C1A46445  14.700  22.830  19.020
 2049DOPG   D2A46446  14.580  22.550  18.580
 2049DOPG   C3A46447  14.130  22.470  18.520
 2049DOPG   C4A46448  13.740  22.550  18.510
 2049DOPG   C1B46449  14.370  22.450  19.310
 2049DOPG   D2B46450  14.110  22.170  19.190
 2049DOPG   C3B46451  13.820  22.170  18.840
 2049DOPG   C4B46452  13.610  22.100  18.360
 2050DOPG   GL046453  11.420  18.250   7.490
 2050DOPG   PO446454  11.190  18.460   7.420
 2050DOPG   GL146455  11.090  18.630   7.900
 2050DOPG   GL246456  11.330  18.810   8.010
 2050DOPG   C1A46457  10.930  18.390   8.250
 2050DOPG   D2A46458  10.670  18.360   8.630
 2050DOPG   C3A46459  10.920  18.200   8.950
 2050DOPG   C4A46460  11.070  18.060   9.330
 2050DOPG   C1B46461  11.150  18.880   8.390
 2050DOPG   D2B46462  11.130  18.690   8.800
 2050DOPG   C3B46463  10.900  18.890   9.200
 2050DOPG   C4B46464  10.740  19.310   9.420
 2051DOPG   GL046465   1.360  19.980  14.310
 2051DOPG   PO446466   1.160  19.700  14.650
 2051DOPG   GL146467   0.950  19.450  14.850
 2051DOPG   GL246468   0.830  19.570  15.060
 2051DOPG   C1A46469   0.660  19.180  14.800
 2051DOPG   D2A46470   0.280  19.030  14.450
 2051DOPG   C3A46471  36.260  18.610  14.470
 2051DOPG   C4A46472  35.870  18.350  14.340
 2051DOPG   C1B46473   0.590  19.930  14.880
 2051DOPG   D2B46474   0.170  20.040  14.750
 2051DOPG   C3B46475   0.040  19.940  14.390
 2051DOPG   C4B46476  36.250  19.950  14.020
 2052DOPG   GL046477  18.080   9.920   9.560
 2052DOPG   PO446478  17.890   9.740   9.330
 2052DOPG   GL146479  17.620  10.070   9.360
 2052DOPG   GL246480  17.290   9.930   9.460
 2052DOPG   C1A46481  17.400  10.450   9.390
 2052DOPG   D2A46482  17.080  10.580   9.640
 2052DOPG   C3A46483  16.980  10.990   9.580
 2052DOPG   C4A46484  16.870  11.300   9.320
 2052DOPG   C1B46485  17.470  10.210   9.800
 2052DOPG   D2B46486  17.910  10.270   9.920
 2052DOPG   C3B46487  17.870  10.560  10.140
 2052DOPG   C4B46488  17.920  10.810  10.510
 2053DOPG   GL046489  13.440  12.170  12.270
 2053DOPG   PO446490  13.010  12.180  12.010
 2053DOPG   GL146491  13.120  12.550  12.090
 2053DOPG   GL246492  13.420  12.680  12.370
 2053DOPG   C1A46493  13.120  13.020  12.140
 2053DOPG   D2A46494  13.100  13.400  12.120
 2053DOPG   C3A46495  12.860  13.520  12.360
 2053DOPG   C4A46496  12.680  13.880  12.490
 2053DOPG   C1B46497  13.420  13.070  12.500
 2053DOPG   D2B46498  13.240  13.380  12.700
 2053DOPG   C3B46499  12.910  13.170  12.910
 2053DOPG   C4B46500  12.650  12.830  13.010
 2054DOPG   GL046501  10.860  11.120  16.260
 2054DOPG   PO446502  11.020  11.450  16.050
 2054DOPG   GL146503  11.020  11.860  16.140
 2054DOPG   GL246504  11.310  11.880  15.990
 2054DOPG   C1A46505  11.130  12.360  16.260
 2054DOPG   D2A46506  11.550  12.490  16.450
 2054DOPG   C3A46507  11.640  12.580  16.880
 2054DOPG   C4A46508  11.790  12.700  17.240
 2054DOPG   C1B46509  11.630  12.210  15.910
 2054DOPG   D2B46510  11.910  12.550  15.670
 2054DOPG   C3B46511  12.050  12.920  16.010
 2054DOPG   C4B46512  12.290  12.820  16.330
 2055DOPG   GL046513  12.950  12.670  10.970
 2055DOPG   PO446514  12.720  12.800  11.320
 2055DOPG   GL146515  12.440  13.050  11.670
 2055DOPG   GL246516  12.270  12.790  11.970
 2055DOPG   C1A46517  12.140  13.280  11.670
 2055DOPG   D2A46518  11.970  13.660  11.810
 2055DOPG   C3A46519  12.190  14.020  11.930
 2055DOPG   C4A46520  12.540  14.400  11.860
 2055DOPG   C1B46521  12.110  13.070  12.180
 2055DOPG   D2B46522  11.690  13.160  12.120
 2055DOPG   C3B46523  11.490  13.550  12.100
 2055DOPG   C4B46524  11.120  13.770  12.360
 2056DOPG   GL046525   7.120   9.600  21.420
 2056DOPG   PO446526   7.210   9.930  21.110
 2056DOPG   GL146527   7.240  10.270  20.890
 2056DOPG   GL246528   7.040  10.410  20.700
 2056DOPG   C1A46529   7.290  10.770  21.010
 2056DOPG   D2A46530   7.260  11.140  21.160
 2056DOPG   C3A46531   7.500  11.370  20.920
 2056DOPG   C4A46532   7.860  11.550  20.730
 2056DOPG   C1B46533   7.470  10.550  20.590
 2056DOPG   D2B46534   7.970  10.640  20.550
 2056DOPG   C3B46535   8.110  10.980  20.260
 2056DOPG   C4B46536   8.440  11.240  20.060
 2057DOPG   GL046537   7.070  30.600  19.400
 2057DOPG   PO446538   7.600  30.600  19.280
 2057DOPG   GL146539   7.680  30.310  19.270
 2057DOPG   GL246540   7.910  30.210  19.080
 2057DOPG   C1A46541   7.550  29.850  19.290
 2057DOPG   D2A46542   7.520  29.460  19.250
 2057DOPG   C3A46543   7.180  29.080  19.290
 2057DOPG   C4A46544   7.080  28.610  19.160
 2057DOPG   C1B46545   7.930  29.870  18.820
 2057DOPG   D2B46546   7.860  29.390  18.840
 2057DOPG   C3B46547   8.000  29.030  19.030
 2057DOPG   C4B46548   8.280  28.770  19.330
 2058DOPG   GL046549   9.980  23.380  20.290
 2058DOPG   PO446550  10.040  23.770  20.100
 2058DOPG   GL146551  10.320  23.640  19.870
 2058DOPG   GL246552  10.300  23.320  19.850
 2058DOPG   C1A46553  10.230  23.530  19.430
 2058DOPG   D2A46554  10.160  23.470  18.990
 2058DOPG   C3A46555  10.240  23.030  18.810
 2058DOPG   C4A46556  10.280  22.840  18.430
 2058DOPG   C1B46557  10.600  23.110  19.920
 2058DOPG   D2B46558  11.020  22.880  19.740
 2058DOPG   C3B46559  11.220  22.470  19.540
 2058DOPG   C4B46560  11.030  22.080  19.610
 2059DOPG   GL046561  12.590  15.990  20.190
 2059DOPG   PO446562  12.800  15.660  19.970
 2059DOPG   GL146563  12.630  15.940  19.670
 2059DOPG   GL246564  12.330  15.980  19.800
 2059DOPG   C1A46565  12.620  16.380  19.460
 2059DOPG   D2A46566  12.560  16.470  18.980
 2059DOPG   C3A46567  12.940  16.470  18.690
 2059DOPG   C4A46568  13.190  16.300  18.370
 2059DOPG   C1B46569  12.230  16.050  19.380
 2059DOPG   D2B46570  12.100  16.000  18.990
 2059DOPG   C3B46571  11.760  16.280  18.760
 2059DOPG   C4B46572  11.740  16.670  18.510
 2060DOPG   GL046573  10.760  19.330  21.580
 2060DOPG   PO446574  10.690  19.760  21.780
 2060DOPG   GL146575  10.790  19.890  21.340
 2060DOPG   GL246576  10.580  19.990  21.030
 2060DOPG   C1A46577  11.220  20.050  21.280
 2060DOPG   D2A46578  11.680  20.040  21.380
 2060DOPG   C3A46579  11.810  19.810  21.030
 2060DOPG   C4A46580  11.760  19.480  20.660
 2060DOPG   C1B46581  10.670  20.050  20.600
 2060DOPG   D2B46582  10.730  20.310  20.230
 2060DOPG   C3B46583  10.690  19.950  19.970
 2060DOPG   C4B46584  10.850  19.690  19.620
 2061DOPG   GL046585   9.560  16.870  26.520
 2061DOPG   PO446586   9.910  16.620  26.380
 2061DOPG   GL146587   9.980  16.890  26.130
 2061DOPG   GL246588   9.690  16.960  26.000
 2061DOPG   C1A46589  10.030  17.100  25.720
 2061DOPG   D2A46590  10.240  17.080  25.410
 2061DOPG   C3A46591  10.750  17.050  25.390
 2061DOPG   C4A46592  10.960  17.380  25.130
 2061DOPG   C1B46593   9.400  16.760  25.680
 2061DOPG   D2B46594   9.210  16.740  25.280
 2061DOPG   C3B46595   8.880  16.950  25.080
 2061DOPG   C4B46596   8.870  17.360  24.930
 2062DOPG   GL046597  12.880  11.590  14.990
 2062DOPG   PO446598  13.300  11.630  15.190
 2062DOPG   GL146599  13.230  12.050  15.170
 2062DOPG   GL246600  13.410  12.260  15.350
 2062DOPG   C1A46601  12.960  12.380  15.220
 2062DOPG   D2A46602  12.760  12.860  15.020
 2062DOPG   C3A46603  12.370  13.110  14.830
 2062DOPG   C4A46604  11.980  13.110  14.700
 2062DOPG   C1B46605  13.440  12.590  15.640
 2062DOPG   D2B46606  13.500  12.940  15.680
 2062DOPG   C3B46607  13.360  13.350  15.480
 2062DOPG   C4B46608  13.030  13.320  15.140
 2063DOPG   GL046609  17.830  20.790  10.510
 2063DOPG   PO446610  17.410  20.720  10.390
 2063DOPG   GL146611  16.990  20.610  10.600
 2063DOPG   GL246612  16.970  20.210  10.740
 2063DOPG   C1A46613  16.610  20.600  10.880
 2063DOPG   D2A46614  16.310  20.800  10.910
 2063DOPG   C3A46615  16.180  20.800  11.340
 2063DOPG   C4A46616  16.030  20.410  11.600
 2063DOPG   C1B46617  16.560  20.050  10.950
 2063DOPG   D2B46618  16.170  20.320  11.110
 2063DOPG   C3B46619  15.690  20.070  11.180
 2063DOPG   C4B46620  15.300  20.310  11.220
 2064DOPG   GL046621   8.330  19.610  21.900
 2064DOPG   PO446622   8.590  19.370  21.590
 2064DOPG   GL146623   8.550  19.690  21.410
 2064DOPG   GL246624   8.590  19.990  21.240
 2064DOPG   C1A46625   8.450  19.670  20.910
 2064DOPG   D2A46626   8.250  19.770  20.500
 2064DOPG   C3A46627   8.440  20.020  20.170
 2064DOPG   C4A46628   8.690  20.300  20.010
 2064DOPG   C1B46629   8.890  19.920  20.980
 2064DOPG   D2B46630   9.150  20.070  20.610
 2064DOPG   C3B46631   9.260  19.930  20.160
 2064DOPG   C4B46632   9.120  20.110  19.750
 2065DOPG   GL046633   7.050  14.640  10.220
 2065DOPG   PO446634   6.940  14.850  10.600
 2065DOPG   GL146635   7.180  15.060  10.950
 2065DOPG   GL246636   7.050  15.040  11.280
 2065DOPG   C1A46637   7.330  15.450  11.150
 2065DOPG   D2A46638   7.250  15.960  11.280
 2065DOPG   C3A46639   7.390  16.290  11.170
 2065DOPG   C4A46640   7.700  16.500  10.900
 2065DOPG   C1B46641   7.440  14.980  11.470
 2065DOPG   D2B46642   7.830  14.710  11.400
 2065DOPG   C3B46643   8.080  14.900  11.230
 2065DOPG   C4B46644   8.390  15.140  11.380
 2066DOPG   GL046645  22.860  16.470  18.430
 2066DOPG   PO446646  22.980  16.790  18.630
 2066DOPG   GL146647  22.590  16.920  18.540
 2066DOPG   GL246648  22.480  17.260  18.550
 2066DOPG   C1A46649  22.170  17.000  18.220
 2066DOPG   D2A46650  21.690  17.060  18.190
 2066DOPG   C3A46651  21.520  17.410  18.460
 2066DOPG   C4A46652  21.200  17.730  18.580
 2066DOPG   C1B46653  22.100  17.440  18.490
 2066DOPG   D2B46654  21.900  17.810  18.370
 2066DOPG   C3B46655  22.090  18.240  18.270
 2066DOPG   C4B46656  21.890  18.620  18.220
 2067DOPG   GL046657   8.490  26.570  12.860
 2067DOPG   PO446658   8.250  26.610  12.500
 2067DOPG   GL146659   8.030  26.970  12.290
 2067DOPG   GL246660   8.270  27.120  11.910
 2067DOPG   C1A46661   8.070  27.420  12.210
 2067DOPG   D2A46662   8.380  27.730  12.070
 2067DOPG   C3A46663   8.490  28.000  11.750
 2067DOPG   C4A46664   8.700  28.370  11.720
 2067DOPG   C1B46665   8.600  27.220  11.880
 2067DOPG   D2B46666   8.980  27.100  11.950
 2067DOPG   C3B46667   9.130  27.540  12.070
 2067DOPG   C4B46668   9.460  27.700  12.090
 2068DOPG   GL046669  15.850  31.450  14.710
 2068DOPG   PO446670  15.390  31.280  14.780
 2068DOPG   GL146671  15.400  30.890  14.650
 2068DOPG   GL246672  15.640  30.650  14.880
 2068DOPG   C1A46673  14.990  30.570  14.620
 2068DOPG   D2A46674  14.850  30.290  14.950
 2068DOPG   C3A46675  14.750  29.880  15.100
 2068DOPG   C4A46676  14.530  29.490  15.230
 2068DOPG   C1B46677  15.720  30.300  15.140
 2068DOPG   D2B46678  15.610  30.040  15.520
 2068DOPG   C3B46679  15.300  29.920  15.720
 2068DOPG   C4B46680  15.010  29.600  15.930
 2069DOPG   GL046681   6.710  13.720  16.150
 2069DOPG   PO446682   7.080  13.790  16.400
 2069DOPG   GL146683   7.380  13.990  16.510
 2069DOPG   GL246684   7.390  14.290  16.780
 2069DOPG   C1A46685   7.740  14.230  16.320
 2069DOPG   D2A46686   8.080  14.430  16.210
 2069DOPG   C3A46687   8.310  14.910  16.210
 2069DOPG   C4A46688   8.480  15.200  16.550
 2069DOPG   C1B46689   7.460  14.700  16.850
 2069DOPG   D2B46690   7.430  15.070  16.710
 2069DOPG   C3B46691   7.020  15.290  16.440
 2069DOPG   C4B46692   6.710  15.680  16.210
 2070DOPG   GL046693   6.930  26.710  17.730
 2070DOPG   PO446694   6.500  26.700  17.450
 2070DOPG   GL146695   6.340  27.160  17.570
 2070DOPG   GL246696   6.110  27.020  17.760
 2070DOPG   C1A46697   6.150  27.470  17.410
 2070DOPG   D2A46698   6.000  27.840  17.380
 2070DOPG   C3A46699   5.960  28.150  17.110
 2070DOPG   C4A46700   5.750  28.570  17.120
 2070DOPG   C1B46701   6.010  27.390  17.900
 2070DOPG   D2B46702   5.810  27.760  18.120
 2070DOPG   C3B46703   6.000  28.180  18.260
 2070DOPG   C4B46704   6.390  28.260  18.480
 2071DOPG   GL046705  18.250  16.170  11.690
 2071DOPG   PO446706  18.350  16.450  11.960
 2071DOPG   GL146707  18.110  16.700  12.080
 2071DOPG   GL246708  18.110  17.010  12.140
 2071DOPG   C1A46709  18.040  16.750  12.540
 2071DOPG   D2A46710  18.210  16.990  12.960
 2071DOPG   C3A46711  17.810  17.280  12.910
 2071DOPG   C4A46712  17.660  17.750  12.830
 2071DOPG   C1B46713  17.670  17.100  12.340
 2071DOPG   D2B46714  17.330  17.250  12.580
 2071DOPG   C3B46715  17.120  17.550  12.480
 2071DOPG   C4B46716  17.340  18.030  12.620
 2072DOPG   GL046717   8.500  26.360  17.790
 2072DOPG   PO446718   8.650  26.160  17.420
 2072DOPG   GL146719   8.830  25.730  17.120
 2072DOPG   GL246720   8.610  25.610  16.970
 2072DOPG   C1A46721   8.920  25.260  17.130
 2072DOPG   D2A46722   8.920  24.800  16.980
 2072DOPG   C3A46723   9.450  24.760  17.030
 2072DOPG   C4A46724   9.590  24.390  17.100
 2072DOPG   C1B46725   8.720  25.220  16.650
 2072DOPG   D2B46726   8.990  25.020  16.350
 2072DOPG   C3B46727   9.160  24.700  16.500
 2072DOPG   C4B46728   9.130  24.380  16.850
 2073DOPG   GL046729  19.160  19.850  12.430
 2073DOPG   PO446730  18.860  20.150  12.460
 2073DOPG   GL146731  18.450  20.010  12.740
 2073DOPG   GL246732  18.160  19.700  12.550
 2073DOPG   C1A46733  18.100  19.970  12.980
 2073DOPG   D2A46734  17.680  19.750  13.190
 2073DOPG   C3A46735  17.440  20.070  13.400
 2073DOPG   C4A46736  17.300  20.390  13.650
 2073DOPG   C1B46737  17.790  19.620  12.220
 2073DOPG   D2B46738  17.470  19.740  11.930
 2073DOPG   C3B46739  17.190  19.540  11.760
 2073DOPG   C4B46740  16.810  19.620  11.880
 2074DOPG   GL046741  15.820  22.840  19.650
 2074DOPG   PO446742  15.460  22.690  19.960
 2074DOPG   GL146743  15.240  22.810  19.560
 2074DOPG   GL246744  15.270  23.060  19.350
 2074DOPG   C1A46745  15.110  22.540  19.180
 2074DOPG   D2A46746  15.130  22.440  18.790
 2074DOPG   C3A46747  15.460  22.530  18.500
 2074DOPG   C4A46748  15.500  22.290  18.100
 2074DOPG   C1B46749  15.200  22.980  18.960
 2074DOPG   D2B46750  14.960  22.910  18.580
 2074DOPG   C3B46751  14.650  23.030  18.420
 2074DOPG   C4B46752  14.440  23.480  18.430
 2075DOPG   GL046753  11.620  21.050   7.880
 2075DOPG   PO446754  11.240  21.200   8.040
 2075DOPG   GL146755  11.330  21.120   8.440
 2075DOPG   GL246756  11.630  20.990   8.470
 2075DOPG   C1A46757  11.380  20.760   8.870
 2075DOPG   D2A46758  11.590  20.520   9.110
 2075DOPG   C3A46759  11.570  20.440   9.540
 2075DOPG   C4A46760  11.910  20.510   9.830
 2075DOPG   C1B46761  11.890  20.770   8.780
 2075DOPG   D2B46762  12.190  21.080   8.960
 2075DOPG   C3B46763  12.390  20.940   9.270
 2075DOPG   C4B46764  12.770  20.820   9.160
 2076DOPG   GL046765   5.090  23.770  20.320
 2076DOPG   PO446766   4.960  23.960  20.740
 2076DOPG   GL146767   4.690  23.730  20.990
 2076DOPG   GL246768   4.510  24.000  21.030
 2076DOPG   C1A46769   4.550  23.800  21.490
 2076DOPG   D2A46770   4.750  24.010  21.780
 2076DOPG   C3A46771   4.350  24.250  21.970
 2076DOPG   C4A46772   3.890  24.230  22.130
 2076DOPG   C1B46773   4.160  24.000  20.930
 2076DOPG   D2B46774   3.670  24.000  20.970
 2076DOPG   C3B46775   3.470  23.750  21.330
 2076DOPG   C4B46776   3.210  23.970  21.620
 2077DOPG   GL046777  18.000  22.320  16.170
 2077DOPG   PO446778  17.890  22.590  15.790
 2077DOPG   GL146779  17.390  22.540  15.750
 2077DOPG   GL246780  17.320  22.500  15.370
 2077DOPG   C1A46781  17.030  22.380  15.800
 2077DOPG   D2A46782  16.810  22.080  16.120
 2077DOPG   C3A46783  16.590  21.800  15.890
 2077DOPG   C4A46784  16.430  21.480  15.690
 2077DOPG   C1B46785  17.420  22.070  15.600
 2077DOPG   D2B46786  17.160  21.850  15.750
 2077DOPG   C3B46787  16.770  21.850  15.450
 2077DOPG   C4B46788  16.390  21.680  15.250
 2078DOPG   GL046789   7.040  25.920  19.430
 2078DOPG   PO446790   6.920  26.440  19.410
 2078DOPG   GL146791   6.970  26.860  19.290
 2078DOPG   GL246792   7.130  26.940  19.020
 2078DOPG   C1A46793   7.080  27.270  19.420
 2078DOPG   D2A46794   7.480  27.510  19.370
 2078DOPG   C3A46795   7.580  27.830  19.660
 2078DOPG   C4A46796   7.830  27.980  20.090
 2078DOPG   C1B46797   7.400  27.310  18.890
 2078DOPG   D2B46798   7.600  27.740  18.880
 2078DOPG   C3B46799   7.540  28.110  19.130
 2078DOPG   C4B46800   7.190  28.140  19.310
 2079DOPG   GL046801  11.660  26.670  17.500
 2079DOPG   PO446802  11.590  26.190  17.490
 2079DOPG   GL146803  11.560  25.860  17.300
 2079DOPG   GL246804  11.270  25.710  17.240
 2079DOPG   C1A46805  11.710  25.400  17.240
 2079DOPG   D2A46806  11.650  25.020  17.040
 2079DOPG   C3A46807  12.020  24.790  17.090
 2079DOPG   C4A46808  12.200  24.590  17.040
 2079DOPG   C1B46809  11.320  25.440  16.820
 2079DOPG   D2B46810  11.040  25.360  16.580
 2079DOPG   C3B46811  10.950  24.940  16.370
 2079DOPG   C4B46812  10.480  24.830  16.370
 2080DOPG   GL046813  10.350  26.440  16.470
 2080DOPG   PO446814  10.540  26.050  16.520
 2080DOPG   GL146815  10.640  25.690  16.460
 2080DOPG   GL246816  10.450  25.610  16.760
 2080DOPG   C1A46817  10.620  25.400  16.210
 2080DOPG   D2A46818  10.720  25.010  15.910
 2080DOPG   C3A46819  10.480  24.680  15.850
 2080DOPG   C4A46820  10.600  24.340  15.630
 2080DOPG   C1B46821  10.440  25.210  16.700
 2080DOPG   D2B46822  10.690  24.830  16.860
 2080DOPG   C3B46823  10.910  24.430  16.910
 2080DOPG   C4B46824  11.300  24.160  16.960
 2081DOPG   GL046825   9.150  14.630  19.760
 2081DOPG   PO446826   9.610  14.680  19.790
 2081DOPG   GL146827   9.570  15.030  19.560
 2081DOPG   GL246828   9.520  15.310  19.770
 2081DOPG   C1A46829   9.200  15.190  19.370
 2081DOPG   D2A46830   9.210  15.410  18.990
 2081DOPG   C3A46831   9.470  15.650  18.810
 2081DOPG   C4A46832   9.760  15.900  18.810
 2081DOPG   C1B46833   9.860  15.550  19.640
 2081DOPG   D2B46834  10.060  15.940  19.600
 2081DOPG   C3B46835   9.960  16.210  19.230
 2081DOPG   C4B46836  10.170  16.240  18.910
 2082DOPG   GL046837  13.550  13.190  10.810
 2082DOPG   PO446838  13.940  13.480  10.820
 2082DOPG   GL146839  13.970  13.640  11.210
 2082DOPG   GL246840  13.860  13.490  11.490
 2082DOPG   C1A46841  14.080  14.000  11.470
 2082DOPG   D2A46842  13.780  14.390  11.480
 2082DOPG   C3A46843  13.570  14.740  11.340
 2082DOPG   C4A46844  13.460  15.190  11.350
 2082DOPG   C1B46845  13.530  13.480  11.800
 2082DOPG   D2B46846  13.490  13.710  12.130
 2082DOPG   C3B46847  13.480  14.150  12.040
 2082DOPG   C4B46848  13.630  14.610  11.880
 2083DOPG   GL046849   7.970  26.550  13.030
 2083DOPG   PO446850   7.600  26.930  13.030
 2083DOPG   GL146851   7.610  27.160  12.610
 2083DOPG   GL246852   7.420  27.060  12.270
 2083DOPG   C1A46853   7.630  27.530  12.380
 2083DOPG   D2A46854   7.510  27.950  12.190
 2083DOPG   C3A46855   7.460  28.410  12.490
 2083DOPG   C4A46856   7.740  28.680  12.620
 2083DOPG   C1B46857   7.570  27.360  11.960
 2083DOPG   D2B46858   7.510  27.640  11.780
 2083DOPG   C3B46859   7.480  27.680  11.360
 2083DOPG   C4B46860   7.100  27.580  11.090
 2084DOPG   GL046861  10.580  22.310   8.980
 2084DOPG   PO446862  10.110  22.210   9.060
 2084DOPG   GL146863  10.370  22.210   9.400
 2084DOPG   GL246864  10.340  22.280   9.810
 2084DOPG   C1A46865  10.810  22.160   9.620
 2084DOPG   D2A46866  10.920  21.950  10.030
 2084DOPG   C3A46867  11.020  21.520  10.080
 2084DOPG   C4A46868  11.020  21.180  10.470
 2084DOPG   C1B46869  10.450  21.950  10.020
 2084DOPG   D2B46870  10.460  21.860  10.390
 2084DOPG   C3B46871  10.150  22.000  10.610
 2084DOPG   C4B46872   9.840  22.390  10.690
 2085DOPG   GL046873   8.920  13.870  10.300
 2085DOPG   PO446874   9.220  14.020  10.100
 2085DOPG   GL146875   9.350  14.410  10.120
 2085DOPG   GL246876   9.390  14.610   9.870
 2085DOPG   C1A46877   9.460  14.520  10.530
 2085DOPG   D2A46878   9.450  14.600  10.860
 2085DOPG   C3A46879   9.610  14.630  11.340
 2085DOPG   C4A46880   9.430  14.720  11.840
 2085DOPG   C1B46881   9.730  14.740  10.160
 2085DOPG   D2B46882  10.060  14.980  10.240
 2085DOPG   C3B46883  10.300  15.320  10.470
 2085DOPG   C4B46884  10.520  15.710  10.640
 2086DOPG   GL046885   7.820  13.210  16.600
 2086DOPG   PO446886   7.580  13.490  16.320
 2086DOPG   GL146887   7.880  13.730  16.380
 2086DOPG   GL246888   8.030  13.700  16.600
 2086DOPG   C1A46889   8.120  13.970  16.130
 2086DOPG   D2A46890   8.540  14.210  16.180
 2086DOPG   C3A46891   8.930  13.920  16.140
 2086DOPG   C4A46892   9.350  13.800  15.960
 2086DOPG   C1B46893   8.470  13.700  16.540
 2086DOPG   D2B46894   8.820  14.010  16.680
 2086DOPG   C3B46895   8.930  14.340  16.400
 2086DOPG   C4B46896   9.350  14.570  16.280
 2087DOPG   GL046897  10.480  26.060  12.880
 2087DOPG   PO446898  10.200  25.680  12.700
 2087DOPG   GL146899   9.900  25.280  12.880
 2087DOPG   GL246900   9.610  25.350  13.020
 2087DOPG   C1A46901   9.510  24.930  12.730
 2087DOPG   D2A46902   9.680  24.580  12.710
 2087DOPG   C3A46903   9.890  24.390  13.080
 2087DOPG   C4A46904  10.240  24.170  13.220
 2087DOPG   C1B46905   9.170  25.080  13.020
 2087DOPG   D2B46906   8.790  25.030  12.960
 2087DOPG   C3B46907   8.540  24.730  13.130
 2087DOPG   C4B46908   8.730  24.350  13.110
 2088DOPG   GL046909  18.270  19.970  10.930
 2088DOPG   PO446910  17.940  19.780  11.020
 2088DOPG   GL146911  17.690  20.070  11.250
 2088DOPG   GL246912  17.450  20.060  11.080
 2088DOPG   C1A46913  17.440  20.130  11.590
 2088DOPG   D2A46914  17.090  20.380  11.700
 2088DOPG   C3A46915  16.900  20.210  11.860
 2088DOPG   C4A46916  17.090  20.370  12.270
 2088DOPG   C1B46917  17.120  19.850  11.370
 2088DOPG   D2B46918  16.610  19.860  11.420
 2088DOPG   C3B46919  16.370  19.550  11.610
 2088DOPG   C4B46920  16.170  19.100  11.710
 2089DOPG   GL046921   5.230  21.000  15.690
 2089DOPG   PO446922   5.210  20.610  15.820
 2089DOPG   GL146923   5.650  20.560  15.770
 2089DOPG   GL246924   5.710  20.830  15.700
 2089DOPG   C1A46925   6.080  20.310  15.660
 2089DOPG   D2A46926   6.540  20.320  15.920
 2089DOPG   C3A46927   6.760  19.940  15.960
 2089DOPG   C4A46928   6.760  19.620  16.190
 2089DOPG   C1B46929   6.080  20.740  15.970
 2089DOPG   D2B46930   6.220  20.560  16.300
 2089DOPG   C3B46931   6.160  20.360  16.650
 2089DOPG   C4B46932   6.320  20.300  16.980
 2090DOPG   GL046933  16.420  13.230  16.410
 2090DOPG   PO446934  15.890  13.320  16.610
 2090DOPG   GL146935  15.430  13.420  16.790
 2090DOPG   GL246936  15.420  13.200  16.390
 2090DOPG   C1A46937  15.240  13.760  16.820
 2090DOPG   D2A46938  15.050  13.970  17.140
 2090DOPG   C3A46939  15.250  14.390  17.340
 2090DOPG   C4A46940  15.230  14.760  17.470
 2090DOPG   C1B46941  15.090  13.560  16.450
 2090DOPG   D2B46942  14.820  14.020  16.430
 2090DOPG   C3B46943  14.380  13.960  16.130
 2090DOPG   C4B46944  14.100  13.520  16.020
 2091DOPG   GL046945   5.650  21.910  13.770
 2091DOPG   PO446946   6.110  21.900  13.750
 2091DOPG   GL146947   6.400  21.800  13.940
 2091DOPG   GL246948   6.380  21.440  13.960
 2091DOPG   C1A46949   6.800  21.930  13.890
 2091DOPG   D2A46950   7.270  21.710  14.020
 2091DOPG   C3A46951   7.590  22.110  14.240
 2091DOPG   C4A46952   8.040  22.220  14.490
 2091DOPG   C1B46953   6.830  21.450  13.900
 2091DOPG   D2B46954   7.250  21.180  14.080
 2091DOPG   C3B46955   7.560  21.320  14.320
 2091DOPG   C4B46956   7.950  21.390  14.440
 2092DOPG   GL046957   8.730  12.260  17.900
 2092DOPG   PO446958   8.710  12.480  18.350
 2092DOPG   GL146959   8.530  12.310  18.730
 2092DOPG   GL246960   8.230  12.280  18.810
 2092DOPG   C1A46961   8.610  11.960  19.070
 2092DOPG   D2A46962   8.540  11.990  19.470
 2092DOPG   C3A46963   8.800  12.270  19.670
 2092DOPG   C4A46964   9.050  12.650  19.670
 2092DOPG   C1B46965   7.950  11.890  19.010
 2092DOPG   D2B46966   8.000  11.560  19.280
 2092DOPG   C3B46967   8.460  11.400  19.300
 2092DOPG   C4B46968   8.520  11.020  19.280
 2093DOPG   GL046969   7.250   8.920   8.810
 2093DOPG   PO446970   7.650   8.750   9.060
 2093DOPG   GL146971   7.710   9.060   9.360
 2093DOPG   GL246972   7.380   9.240   9.290
 2093DOPG   C1A46973   8.010   9.270   9.610
 2093DOPG   D2A46974   8.270   9.470   9.790
 2093DOPG   C3A46975   8.140   9.690  10.130
 2093DOPG   C4A46976   8.170   9.980  10.290
 2093DOPG   C1B46977   7.570   9.390   8.910
 2093DOPG   D2B46978   7.840   9.750   8.780
 2093DOPG   C3B46979   8.270   9.780   8.970
 2093DOPG   C4B46980   8.620  10.080   9.130
 2094DOPG   GL046981   9.450  14.290   9.150
 2094DOPG   PO446982   9.430  14.700   9.390
 2094DOPG   GL146983   9.480  15.140   9.480
 2094DOPG   GL246984   9.120  15.120   9.570
 2094DOPG   C1A46985   9.440  15.500   9.750
 2094DOPG   D2A46986   9.620  15.920   9.980
 2094DOPG   C3A46987  10.060  16.090  10.020
 2094DOPG   C4A46988  10.530  16.150  10.000
 2094DOPG   C1B46989   9.140  15.280  10.010
 2094DOPG   D2B46990   9.110  15.000  10.300
 2094DOPG   C3B46991   9.480  15.000  10.570
 2094DOPG   C4B46992   9.780  14.980  10.700
 2095DOPG   GL046993   5.230  17.950  13.310
 2095DOPG   PO446994   5.070  17.720  13.500
 2095DOPG   GL146995   5.460  17.760  13.790
 2095DOPG   GL246996   5.590  17.560  13.660
 2095DOPG   C1A46997   5.810  17.580  14.070
 2095DOPG   D2A46998   5.990  17.480  14.360
 2095DOPG   C3A46999   6.310  17.280  14.410
 2095DOPG   C4A47000   6.430  16.890  14.540
 2095DOPG   C1B47001   5.920  17.540  13.380
 2095DOPG   D2B47002   6.330  17.690  13.340
 2095DOPG   C3B47003   6.700  17.780  13.610
 2095DOPG   C4B47004   7.010  17.930  13.610
 2096DOPG   GL047005  15.560  24.770  14.870
 2096DOPG   PO447006  15.770  25.020  15.310
 2096DOPG   GL147007  15.470  24.820  15.530
 2096DOPG   GL247008  15.630  24.580  15.520
 2096DOPG   C1A47009  15.000  24.770  15.400
 2096DOPG   D2A47010  14.750  24.390  15.340
 2096DOPG   C3A47011  14.950  24.050  15.520
 2096DOPG   C4A47012  15.060  23.860  15.950
 2096DOPG   C1B47013  15.330  24.300  15.260
 2096DOPG   D2B47014  15.260  23.800  15.190
 2096DOPG   C3B47015  14.860  23.780  15.080
 2096DOPG   C4B47016  14.510  23.530  14.990
 2097DOPG   GL047017  17.450  15.410  14.630
 2097DOPG   PO447018  17.480  15.070  14.360
 2097DOPG   GL147019  17.330  15.360  14.060
 2097DOPG   GL247020  17.490  15.540  14.100
 2097DOPG   C1A47021  16.960  15.390  13.800
 2097DOPG   D2A47022  16.670  15.590  13.530
 2097DOPG   C3A47023  16.220  15.730  13.610
 2097DOPG   C4A47024  15.790  15.650  13.800
 2097DOPG   C1B47025  17.120  15.890  14.000
 2097DOPG   D2B47026  16.940  16.270  14.200
 2097DOPG   C3B47027  16.990  16.660  14.130
 2097DOPG   C4B47028  16.900  17.070  14.170
 2098DOPG   GL047029  35.590  14.080  14.330
 2098DOPG   PO447030  35.330  14.350  14.480
 2098DOPG   GL147031  35.590  14.560  14.230
 2098DOPG   GL247032  35.630  14.760  14.420
 2098DOPG   C1A47033  35.890  14.380  13.910
 2098DOPG   D2A47034  36.040  14.450  13.420
 2098DOPG   C3A47035  36.100  14.090  13.260
 2098DOPG   C4A47036  36.120  13.800  12.950
 2098DOPG   C1B47037  36.030  14.910  14.710
 2098DOPG   D2B47038   0.040  14.830  14.960
 2098DOPG   C3B47039   0.110  14.360  15.080
 2098DOPG   C4B47040   0.370  14.000  14.800
 2099DOPG   GL047041  11.110  16.390  26.640
 2099DOPG   PO447042  11.390  16.210  26.400
 2099DOPG   GL147043  11.710  16.430  26.150
 2099DOPG   GL247044  11.870  16.680  26.220
 2099DOPG   C1A47045  11.470  16.400  25.740
 2099DOPG   D2A47046  11.290  16.030  25.580
 2099DOPG   C3A47047  11.130  15.930  25.150
 2099DOPG   C4A47048  10.990  16.040  24.740
 2099DOPG   C1B47049  11.640  16.900  25.950
 2099DOPG   D2B47050  11.300  16.960  25.680
 2099DOPG   C3B47051  10.960  16.920  25.920
 2099DOPG   C4B47052  10.540  17.000  25.860
 2100DOPG   GL047053   6.170  15.760  18.630
 2100DOPG   PO447054   6.020  15.850  18.270
 2100DOPG   GL147055   6.260  16.110  18.050
 2100DOPG   GL247056   6.610  16.100  18.070
 2100DOPG   C1A47057   6.510  16.140  17.590
 2100DOPG   D2A47058   6.870  16.170  17.530
 2100DOPG   C3A47059   7.160  16.420  17.130
 2100DOPG   C4A47060   7.550  16.730  16.930
 2100DOPG   C1B47061   7.040  16.150  18.130
 2100DOPG   D2B47062   7.480  16.240  18.130
 2100DOPG   C3B47063   7.490  16.680  18.130
 2100DOPG   C4B47064   7.480  17.000  17.870
 2101DOPG   GL047065  19.610  19.300  13.660
 2101DOPG   PO447066  19.280  19.670  13.690
 2101DOPG   GL147067  18.920  19.560  13.880
 2101DOPG   GL247068  18.710  19.700  14.160
 2101DOPG   C1A47069  18.540  19.260  13.770
 2101DOPG   D2A47070  18.380  18.920  13.440
 2101DOPG   C3A47071  18.310  19.010  13.060
 2101DOPG   C4A47072  18.440  19.220  12.700
 2101DOPG   C1B47073  18.310  19.670  13.900
 2101DOPG   D2B47074  17.920  19.860  13.660
 2101DOPG   C3B47075  17.770  20.160  13.830
 2101DOPG   C4B47076  17.500  20.220  14.110
 2102DOPG   GL047077   3.360  19.760  10.140
 2102DOPG   PO447078   3.280  19.360   9.960
 2102DOPG   GL147079   2.910  19.370   9.980
 2102DOPG   GL247080   2.870  19.120   9.790
 2102DOPG   C1A47081   2.470  19.580   9.780
 2102DOPG   D2A47082   2.410  19.880   9.450
 2102DOPG   C3A47083   2.160  19.990   9.060
 2102DOPG   C4A47084   2.010  19.850   8.670
 2102DOPG   C1B47085   2.770  19.400   9.390
 2102DOPG   D2B47086   2.620  19.470   9.010
 2102DOPG   C3B47087   2.210  19.500   9.070
 2102DOPG   C4B47088   1.760  19.520   9.060
 2103DOPG   GL047089  12.890  21.350  21.300
 2103DOPG   PO447090  12.470  21.340  21.500
 2103DOPG   GL147091  12.440  21.410  21.050
 2103DOPG   GL247092  12.770  21.430  20.860
 2103DOPG   C1A47093  12.270  21.380  20.630
 2103DOPG   D2A47094  12.470  21.630  20.380
 2103DOPG   C3A47095  12.330  21.590  19.980
 2103DOPG   C4A47096  12.340  21.820  19.490
 2103DOPG   C1B47097  12.690  21.060  20.570
 2103DOPG   D2B47098  12.590  21.160  20.110
 2103DOPG   C3B47099  12.300  21.020  19.880
 2103DOPG   C4B47100  12.110  21.230  19.550
 2104DOPG   GL047101  19.740  13.430   6.840
 2104DOPG   PO447102  20.060  13.690   7.040
 2104DOPG   GL147103  19.780  14.000   7.150
 2104DOPG   GL247104  19.600  13.750   7.400
 2104DOPG   C1A47105  19.410  14.200   7.460
 2104DOPG   D2A47106  19.550  14.480   7.760
 2104DOPG   C3A47107  19.400  14.350   8.220
 2104DOPG   C4A47108  19.100  14.400   8.440
 2104DOPG   C1B47109  19.660  13.520   7.780
 2104DOPG   D2B47110  19.640  13.090   7.910
 2104DOPG   C3B47111  19.610  12.780   8.180
 2104DOPG   C4B47112  19.550  12.610   8.470
 2105DOPG   GL047113  18.420  19.650  16.480
 2105DOPG   PO447114  18.650  19.380  16.060
 2105DOPG   GL147115  18.240  19.400  15.870
 2105DOPG   GL247116  18.040  19.520  15.630
 2105DOPG   C1A47117  17.780  19.270  16.060
 2105DOPG   D2A47118  17.340  19.300  15.930
 2105DOPG   C3A47119  17.120  18.920  15.830
 2105DOPG   C4A47120  16.960  18.570  15.560
 2105DOPG   C1B47121  17.700  19.660  15.380
 2105DOPG   D2B47122  17.320  19.630  15.080
 2105DOPG   C3B47123  17.510  19.560  14.740
 2105DOPG   C4B47124  17.810  19.410  14.450
 2106DOPG   GL047125  15.960  18.500  19.810
 2106DOPG   PO447126  16.390  18.590  19.690
 2106DOPG   GL147127  16.180  18.470  19.340
 2106DOPG   GL247128  16.190  18.680  19.120
 2106DOPG   C1A47129  15.810  18.200  19.040
 2106DOPG   D2A47130  15.580  18.050  18.690
 2106DOPG   C3A47131  15.390  17.860  18.420
 2106DOPG   C4A47132  15.080  17.930  18.170
 2106DOPG   C1B47133  15.970  19.010  18.870
 2106DOPG   D2B47134  15.840  19.460  18.760
 2106DOPG   C3B47135  15.370  19.420  18.530
 2106DOPG   C4B47136  14.950  19.340  18.410
 2107DOPG   GL047137  18.330  21.950  17.180
 2107DOPG   PO447138  18.290  22.260  16.720
 2107DOPG   GL147139  17.880  22.170  16.730
 2107DOPG   GL247140  17.670  22.160  16.490
 2107DOPG   C1A47141  17.570  22.220  17.100
 2107DOPG   D2A47142  17.100  22.390  17.290
 2107DOPG   C3A47143  16.720  22.070  17.420
 2107DOPG   C4A47144  16.450  22.160  17.720
 2107DOPG   C1B47145  17.680  21.760  16.090
 2107DOPG   D2B47146  17.570  21.590  15.750
 2107DOPG   C3B47147  17.320  21.720  15.290
 2107DOPG   C4B47148  17.420  22.020  15.060
 2108DOPG   GL047149   6.490  18.340  19.390
 2108DOPG   PO447150   6.180  18.460  19.100
 2108DOPG   GL147151   6.480  18.430  18.800
 2108DOPG   GL247152   6.700  18.740  18.850
 2108DOPG   C1A47153   6.640  18.180  18.470
 2108DOPG   D2A47154   6.900  18.290  18.180
 2108DOPG   C3A47155   7.330  18.190  18.140
 2108DOPG   C4A47156   7.560  17.960  17.970
 2108DOPG   C1B47157   7.000  18.530  18.650
 2108DOPG   D2B47158   7.380  18.540  18.500
 2108DOPG   C3B47159   7.530  18.780  18.210
 2108DOPG   C4B47160   7.680  19.240  18.360
 2109DOPG   GL047161   4.910  26.590  24.960
 2109DOPG   PO447162   5.210  26.370  24.590
 2109DOPG   GL147163   5.180  25.970  24.370
 2109DOPG   GL247164   4.910  25.960  24.250
 2109DOPG   C1A47165   5.510  25.680  24.170
 2109DOPG   D2A47166   5.710  25.320  23.970
 2109DOPG   C3A47167   5.550  25.070  23.630
 2109DOPG   C4A47168   5.490  24.820  23.170
 2109DOPG   C1B47169   4.990  25.750  23.800
 2109DOPG   D2B47170   5.170  25.400  23.490
 2109DOPG   C3B47171   5.110  25.210  23.180
 2109DOPG   C4B47172   5.120  25.020  22.780
 2110DOPG   GL047173   4.970  18.610  20.720
 2110DOPG   PO447174   4.890  18.650  21.140
 2110DOPG   GL147175   4.610  18.670  21.460
 2110DOPG   GL247176   4.370  18.630  21.280
 2110DOPG   C1A47177   4.380  18.640  21.780
 2110DOPG   D2A47178   4.240  18.520  22.130
 2110DOPG   C3A47179   3.800  18.680  22.140
 2110DOPG   C4A47180   3.590  18.910  22.460
 2110DOPG   C1B47181   4.390  18.200  21.450
 2110DOPG   D2B47182   4.460  18.120  21.800
 2110DOPG   C3B47183   4.390  17.850  22.210
 2110DOPG   C4B47184   4.490  17.490  22.550
 2111DOPG   GL047185   5.540  22.390  15.230
 2111DOPG   PO447186   5.880  22.730  15.170
 2111DOPG   GL147187   6.190  22.290  15.230
 2111DOPG   GL247188   6.200  21.910  15.230
 2111DOPG   C1A47189   6.550  22.170  14.900
 2111DOPG   D2A47190   6.910  21.940  14.730
 2111DOPG   C3A47191   7.000  22.110  14.280
 2111DOPG   C4A47192   6.760  22.540  14.100
 2111DOPG   C1B47193   6.590  21.940  15.320
 2111DOPG   D2B47194   6.970  22.020  15.470
 2111DOPG   C3B47195   7.190  21.690  15.680
 2111DOPG   C4B47196   7.330  21.330  15.760
 2112DOPG   GL047197   3.300  24.470  17.770
 2112DOPG   PO447198   3.200  24.890  18.140
 2112DOPG   GL147199   3.010  24.940  18.430
 2112DOPG   GL247200   2.750  24.700  18.440
 2112DOPG   C1A47201   2.970  24.930  18.800
 2112DOPG   D2A47202   2.700  24.990  19.090
 2112DOPG   C3A47203   2.500  25.270  19.340
 2112DOPG   C4A47204   2.520  25.560  19.690
 2112DOPG   C1B47205   2.330  24.890  18.330
 2112DOPG   D2B47206   2.110  25.300  18.410
 2112DOPG   C3B47207   1.680  25.140  18.540
 2112DOPG   C4B47208   1.400  25.380  18.660
 2113DOPG   GL047209   3.490   9.120  12.420
 2113DOPG   PO447210   3.310   9.370  12.130
 2113DOPG   GL147211   3.680   9.510  12.140
 2113DOPG   GL247212   3.540   9.840  12.280
 2113DOPG   C1A47213   4.080   9.590  12.140
 2113DOPG   D2A47214   4.580   9.530  12.290
 2113DOPG   C3A47215   4.750   9.960  12.300
 2113DOPG   C4A47216   5.080  10.330  12.230
 2113DOPG   C1B47217   3.540  10.210  12.600
 2113DOPG   D2B47218   3.680  10.490  12.880
 2113DOPG   C3B47219   4.070  10.710  12.900
 2113DOPG   C4B47220   4.090  11.060  13.300
 2114DOPG   GL047221  10.320  22.280   3.220
 2114DOPG   PO447222  10.660  22.500   3.350
 2114DOPG   GL147223  10.610  22.410   3.820
 2114DOPG   GL247224  10.820  22.190   3.890
 2114DOPG   C1A47225  10.520  22.320   4.280
 2114DOPG   D2A47226  10.550  22.170   4.710
 2114DOPG   C3A47227  10.840  22.440   5.010
 2114DOPG   C4A47228  11.020  22.700   5.420
 2114DOPG   C1B47229  11.000  22.220   4.330
 2114DOPG   D2B47230  11.400  22.260   4.550
 2114DOPG   C3B47231  11.290  22.560   4.830
 2114DOPG   C4B47232  11.450  22.780   5.160
 2115DOPG   GL047233   5.820  12.790  12.300
 2115DOPG   PO447234   6.160  12.660  12.150
 2115DOPG   GL147235   5.840  12.310  12.010
 2115DOPG   GL247236   5.770  11.930  12.180
 2115DOPG   C1A47237   5.590  12.040  11.700
 2115DOPG   D2A47238   5.170  11.760  11.670
 2115DOPG   C3A47239   5.130  11.570  11.200
 2115DOPG   C4A47240   4.830  11.280  11.070
 2115DOPG   C1B47241   5.710  11.620  11.910
 2115DOPG   D2B47242   5.450  11.300  11.790
 2115DOPG   C3B47243   5.250  10.980  12.090
 2115DOPG   C4B47244   4.970  10.950  12.410
 2116DOPG   GL047245  10.770  26.560  14.080
 2116DOPG   PO447246  11.170  26.400  14.060
 2116DOPG   GL147247  11.410  25.990  14.090
 2116DOPG   GL247248  11.530  25.970  14.460
 2116DOPG   C1A47249  11.330  25.500  14.200
 2116DOPG   D2A47250  11.220  25.120  14.370
 2116DOPG   C3A47251  10.750  24.940  14.230
 2116DOPG   C4A47252  10.470  24.880  13.960
 2116DOPG   C1B47253  11.750  25.550  14.590
 2116DOPG   D2B47254  12.090  25.360  14.740
 2116DOPG   C3B47255  12.010  24.830  14.930
 2116DOPG   C4B47256  12.070  24.350  15.150
 2117DOPG   GL047257  18.690  21.180  15.670
 2117DOPG   PO447258  18.640  20.830  15.490
 2117DOPG   GL147259  18.260  20.730  15.470
 2117DOPG   GL247260  18.310  20.460  15.220
 2117DOPG   C1A47261  17.910  20.760  15.510
 2117DOPG   D2A47262  17.690  20.670  15.840
 2117DOPG   C3A47263  17.300  20.840  15.930
 2117DOPG   C4A47264  16.860  20.850  15.770
 2117DOPG   C1B47265  17.860  20.320  15.240
 2117DOPG   D2B47266  17.640  20.030  15.120
 2117DOPG   C3B47267  17.270  20.040  15.290
 2117DOPG   C4B47268  16.850  19.860  15.140
 2118DOPG   GL047269  10.330  21.450   8.270
 2118DOPG   PO447270  10.340  20.980   8.120
 2118DOPG   GL147271  10.650  20.760   8.370
 2118DOPG   GL247272  11.020  20.780   8.290
 2118DOPG   C1A47273  10.560  20.410   8.590
 2118DOPG   D2A47274  10.490  19.980   8.350
 2118DOPG   C3A47275  10.360  19.630   8.530
 2118DOPG   C4A47276  10.300  19.260   8.490
 2118DOPG   C1B47277  11.040  20.470   8.560
 2118DOPG   D2B47278  10.850  20.010   8.710
 2118DOPG   C3B47279  11.020  19.660   8.980
 2118DOPG   C4B47280  11.000  19.700   9.470
 2119DOPG   GL047281  10.340  15.440  20.510
 2119DOPG   PO447282  10.630  15.820  20.510
 2119DOPG   GL147283  10.620  16.050  20.150
 2119DOPG   GL247284  10.820  16.220  19.860
 2119DOPG   C1A47285  10.310  16.290  19.910
 2119DOPG   D2A47286  10.160  16.610  19.660
 2119DOPG   C3A47287  10.080  16.700  19.190
 2119DOPG   C4A47288  10.130  16.730  18.760
 2119DOPG   C1B47289  11.210  16.410  19.810
 2119DOPG   D2B47290  11.560  16.210  19.540
 2119DOPG   C3B47291  11.880  16.380  19.270
 2119DOPG   C4B47292  12.140  16.570  18.820
 2120DOPG   GL047293   2.170  21.300  17.620
 2120DOPG   PO447294   1.870  21.270  17.930
 2120DOPG   GL147295   1.580  21.140  18.170
 2120DOPG   GL247296   1.590  20.900  18.260
 2120DOPG   C1A47297   1.090  21.100  18.380
 2120DOPG   D2A47298   0.850  20.820  18.580
 2120DOPG   C3A47299   0.620  20.740  18.990
 2120DOPG   C4A47300   0.440  20.480  19.250
 2120DOPG   C1B47301   1.330  20.830  18.670
 2120DOPG   D2B47302   1.140  20.570  18.890
 2120DOPG   C3B47303   0.990  20.810  19.290
 2120DOPG   C4B47304   0.870  21.160  19.420
 2121DOPG   GL047305   6.070  16.680  18.620
 2121DOPG   PO447306   6.020  16.500  18.210
 2121DOPG   GL147307   6.470  16.620  18.160
 2121DOPG   GL247308   6.290  16.880  17.870
 2121DOPG   C1A47309   6.880  16.610  18.010
 2121DOPG   D2A47310   6.990  16.640  17.610
 2121DOPG   C3A47311   7.410  16.620  17.520
 2121DOPG   C4A47312   7.850  16.640  17.400
 2121DOPG   C1B47313   6.580  17.070  18.190
 2121DOPG   D2B47314   7.030  17.090  18.070
 2121DOPG   C3B47315   7.450  17.230  18.300
 2121DOPG   C4B47316   7.850  17.040  18.180
 2122DOPG   GL047317   9.280  17.470   8.370
 2122DOPG   PO447318   9.440  17.110   8.470
 2122DOPG   GL147319   9.860  17.350   8.750
 2122DOPG   GL247320   9.790  17.220   9.030
 2122DOPG   C1A47321  10.180  17.650   9.090
 2122DOPG   D2A47322  10.500  17.920   9.320
 2122DOPG   C3A47323  10.660  17.900   9.680
 2122DOPG   C4A47324  10.690  17.550  10.020
 2122DOPG   C1B47325  10.060  17.300   9.400
 2122DOPG   D2B47326  10.500  17.390   9.490
 2122DOPG   C3B47327  10.610  17.130   9.790
 2122DOPG   C4B47328  10.550  17.020  10.160
 2123DOPG   GL047329   3.030  20.890  10.520
 2123DOPG   PO447330   2.990  21.320  10.560
 2123DOPG   GL147331   2.600  21.230  10.460
 2123DOPG   GL247332   2.640  21.040  10.220
 2123DOPG   C1A47333   2.210  21.210  10.170
 2123DOPG   D2A47334   1.810  21.330  10.340
 2123DOPG   C3A47335   1.520  21.200  10.020
 2123DOPG   C4A47336   1.310  21.050   9.640
 2123DOPG   C1B47337   2.580  21.310   9.830
 2123DOPG   D2B47338   2.290  21.560   9.580
 2123DOPG   C3B47339   1.920  21.820   9.670
 2123DOPG   C4B47340   1.550  22.020   9.440
 2124DOPG   GL047341  15.300  15.850  19.660
 2124DOPG   PO447342  15.240  16.200  19.920
 2124DOPG   GL147343  15.290  16.400  19.550
 2124DOPG   GL247344  15.510  16.350  19.290
 2124DOPG   C1A47345  15.140  16.750  19.300
 2124DOPG   D2A47346  15.070  17.160  19.090
 2124DOPG   C3A47347  14.800  17.150  18.630
 2124DOPG   C4A47348  14.400  17.470  18.750
 2124DOPG   C1B47349  15.410  16.570  18.910
 2124DOPG   D2B47350  15.250  16.950  18.710
 2124DOPG   C3B47351  15.240  16.780  18.240
 2124DOPG   C4B47352  15.180  16.540  17.970
 2125DOPG   GL047353  14.750   7.860  18.630
 2125DOPG   PO447354  14.610   7.670  19.030
 2125DOPG   GL147355  14.280   8.090  18.950
 2125DOPG   GL247356  13.990   7.920  18.950
 2125DOPG   C1A47357  14.370   8.630  18.870
 2125DOPG   D2A47358  14.460   9.040  18.970
 2125DOPG   C3A47359  14.260   9.270  18.680
 2125DOPG   C4A47360  14.290   9.300  18.310
 2125DOPG   C1B47361  13.710   8.170  18.730
 2125DOPG   D2B47362  13.470   8.510  18.490
 2125DOPG   C3B47363  13.370   8.920  18.750
 2125DOPG   C4B47364  13.490   8.880  19.120
 2126DOPG   GL047365  16.010  17.870   8.830
 2126DOPG   PO447366  15.680  18.000   9.100
 2126DOPG   GL147367  15.370  17.930   9.390
 2126DOPG   GL247368  15.310  17.600   9.510
 2126DOPG   C1A47369  15.090  18.030   9.720
 2126DOPG   D2A47370  15.070  18.210  10.040
 2126DOPG   C3A47371  14.970  17.850  10.410
 2126DOPG   C4A47372  15.080  17.560  10.590
 2126DOPG   C1B47373  15.170  17.520   9.940
 2126DOPG   D2B47374  14.860  17.310  10.080
 2126DOPG   C3B47375  14.620  17.190   9.850
 2126DOPG   C4B47376  14.290  16.950   9.660
 2127DOPG   GL047377  10.980  16.380  20.730
 2127DOPG   PO447378  11.440  16.150  20.780
 2127DOPG   GL147379  11.420  16.530  20.490
 2127DOPG   GL247380  11.590  16.400  20.180
 2127DOPG   C1A47381  11.260  16.890  20.270
 2127DOPG   D2A47382  11.030  16.880  19.860
 2127DOPG   C3A47383  10.630  16.810  19.930
 2127DOPG   C4A47384  10.400  17.090  19.710
 2127DOPG   C1B47385  11.630  16.690  19.760
 2127DOPG   D2B47386  11.430  17.060  19.680
 2127DOPG   C3B47387  11.730  17.430  19.660
 2127DOPG   C4B47388  11.790  17.820  19.510
 2128DOPG   GL047389  12.310  11.400  14.340
 2128DOPG   PO447390  12.580  11.630  14.000
 2128DOPG   GL147391  12.440  12.070  13.980
 2128DOPG   GL247392  12.590  12.310  13.860
 2128DOPG   C1A47393  12.110  12.390  13.820
 2128DOPG   D2A47394  11.820  12.640  13.670
 2128DOPG   C3A47395  11.660  13.070  13.600
 2128DOPG   C4A47396  11.470  13.400  13.760
 2128DOPG   C1B47397  12.530  12.800  13.970
 2128DOPG   D2B47398  12.700  13.190  13.860
 2128DOPG   C3B47399  12.700  13.470  14.260
 2128DOPG   C4B47400  12.410  13.590  14.600
 2129DOPG   GL047401   6.860  14.460  12.440
 2129DOPG   PO447402   6.640  14.430  12.020
 2129DOPG   GL147403   6.910  14.750  11.790
 2129DOPG   GL247404   7.030  14.540  11.610
 2129DOPG   C1A47405   7.040  15.170  11.770
 2129DOPG   D2A47406   7.410  15.280  11.920
 2129DOPG   C3A47407   7.640  15.150  12.320
 2129DOPG   C4A47408   7.870  14.980  12.650
 2129DOPG   C1B47409   7.360  14.460  11.770
 2129DOPG   D2B47410   7.690  14.690  11.910
 2129DOPG   C3B47411   7.930  15.090  11.720
 2129DOPG   C4B47412   8.100  15.400  11.730
 2130DOPG   GL047413  16.680  24.120  13.120
 2130DOPG   PO447414  16.610  23.730  13.370
 2130DOPG   GL147415  16.380  23.380  13.390
 2130DOPG   GL247416  16.180  23.520  13.520
 2130DOPG   C1A47417  16.400  22.940  13.530
 2130DOPG   D2A47418  16.530  22.550  13.350
 2130DOPG   C3A47419  16.610  22.170  13.600
 2130DOPG   C4A47420  16.380  21.780  13.790
 2130DOPG   C1B47421  15.920  23.190  13.650
 2130DOPG   D2B47422  15.830  22.690  13.720
 2130DOPG   C3B47423  15.480  22.380  13.670
 2130DOPG   C4B47424  15.190  22.190  13.340
 2131DOPG   GL047425   5.450  14.750  18.390
 2131DOPG   PO447426   5.020  14.900  18.520
 2131DOPG   GL147427   4.760  14.800  18.740
 2131DOPG   GL247428   4.610  14.490  18.650
 2131DOPG   C1A47429   4.360  15.000  18.850
 2131DOPG   D2A47430   4.020  15.020  19.170
 2131DOPG   C3A47431   3.600  14.730  19.160
 2131DOPG   C4A47432   3.290  14.370  19.280
 2131DOPG   C1B47433   4.400  14.440  18.980
 2131DOPG   D2B47434   4.150  14.110  19.190
 2131DOPG   C3B47435   3.860  14.160  19.470
 2131DOPG   C4B47436   3.630  13.740  19.550
 2132DOPG   GL047437  14.060   8.870   7.920
 2132DOPG   PO447438  13.810   8.690   8.260
 2132DOPG   GL147439  13.660   9.170   8.270
 2132DOPG   GL247440  13.190   9.190   8.140
 2132DOPG   C1A47441  13.230   9.440   8.520
 2132DOPG   D2A47442  13.130   9.540   8.920
 2132DOPG   C3A47443  12.950   9.940   9.190
 2132DOPG   C4A47444  12.880  10.080   9.600
 2132DOPG   C1B47445  12.950   9.050   8.570
 2132DOPG   D2B47446  12.610   9.250   8.900
 2132DOPG   C3B47447  12.790   9.420   9.260
 2132DOPG   C4B47448  12.590   9.640   9.510
 2133DOPG   GL047449  13.540  26.080   5.820
 2133DOPG   PO447450  13.710  26.460   5.710
 2133DOPG   GL147451  14.030  26.100   5.840
 2133DOPG   GL247452  13.940  25.820   5.740
 2133DOPG   C1A47453  13.870  25.800   6.180
 2133DOPG   D2A47454  13.590  25.650   6.180
 2133DOPG   C3A47455  13.410  25.320   6.310
 2133DOPG   C4A47456  13.420  25.100   6.630
 2133DOPG   C1B47457  13.860  25.450   5.810
 2133DOPG   D2B47458  13.900  25.080   5.940
 2133DOPG   C3B47459  13.710  24.890   6.270
 2133DOPG   C4B47460  13.900  24.840   6.720
 2134DOPG   GL047461  14.770  19.960   8.420
 2134DOPG   PO447462  15.070  20.070   8.660
 2134DOPG   GL147463  14.930  19.960   9.100
 2134DOPG   GL247464  15.040  20.330   9.100
 2134DOPG   C1A47465  14.960  19.720   9.450
 2134DOPG   D2A47466  15.210  19.460   9.580
 2134DOPG   C3A47467  15.190  19.500  10.000
 2134DOPG   C4A47468  14.940  19.240  10.300
 2134DOPG   C1B47469  14.810  20.220   9.500
 2134DOPG   D2B47470  14.530  19.930   9.640
 2134DOPG   C3B47471  14.640  19.600   9.990
 2134DOPG   C4B47472  14.410  19.520  10.490
 2135DOPG   GL047473  18.490  17.710  12.500
 2135DOPG   PO447474  18.740  18.000  12.270
 2135DOPG   GL147475  18.400  18.090  12.230
 2135DOPG   GL247476  18.020  17.990  12.140
 2135DOPG   C1A47477  18.230  18.440  12.310
 2135DOPG   D2A47478  18.180  18.660  12.720
 2135DOPG   C3A47479  18.230  18.520  13.140
 2135DOPG   C4A47480  18.010  18.410  13.460
 2135DOPG   C1B47481  17.770  18.240  12.440
 2135DOPG   D2B47482  17.440  18.530  12.520
 2135DOPG   C3B47483  17.120  18.420  12.900
 2135DOPG   C4B47484  16.810  18.570  13.010
 2136DOPG   GL047485  18.560  20.460  14.620
 2136DOPG   PO447486  18.930  20.080  14.490
 2136DOPG   GL147487  18.610  19.760  14.690
 2136DOPG   GL247488  18.340  20.000  14.630
 2136DOPG   C1A47489  18.310  19.500  14.430
 2136DOPG   D2A47490  18.220  19.110  14.220
 2136DOPG   C3A47491  18.000  19.300  13.930
 2136DOPG   C4A47492  17.670  19.430  13.600
 2136DOPG   C1B47493  18.100  20.210  14.750
 2136DOPG   D2B47494  17.740  20.430  14.760
 2136DOPG   C3B47495  17.400  20.490  15.100
 2136DOPG   C4B47496  17.360  20.820  15.440
 2137DOPG   GL047497  11.590  11.690  13.970
 2137DOPG   PO447498  11.170  11.640  13.890
 2137DOPG   GL147499  11.140  12.040  13.940
 2137DOPG   GL247500  11.000  12.170  13.730
 2137DOPG   C1A47501  10.980  12.320  14.230
 2137DOPG   D2A47502  10.970  12.810  14.360
 2137DOPG   C3A47503  10.700  12.790  14.670
 2137DOPG   C4A47504  10.270  12.880  14.720
 2137DOPG   C1B47505  10.860  12.650  13.850
 2137DOPG   D2B47506  11.090  13.070  13.620
 2137DOPG   C3B47507  10.970  13.370  13.290
 2137DOPG   C4B47508  10.900  13.720  13.090
 2138DOPG   GL047509   9.390  12.380  12.160
 2138DOPG   PO447510   9.210  12.620  11.910
 2138DOPG   GL147511   9.510  12.870  12.070
 2138DOPG   GL247512   9.800  12.700  12.120
 2138DOPG   C1A47513   9.520  13.200  12.340
 2138DOPG   D2A47514   9.690  13.250  12.770
 2138DOPG   C3A47515   9.550  13.710  12.890
 2138DOPG   C4A47516   9.740  14.070  13.090
 2138DOPG   C1B47517  10.100  13.050  12.270
 2138DOPG   D2B47518  10.140  13.440  12.450
 2138DOPG   C3B47519  10.000  13.640  12.830
 2138DOPG   C4B47520  10.210  13.850  13.090
 2139DOPG   GL047521   8.460  17.660  20.480
 2139DOPG   PO447522   8.640  17.420  20.220
 2139DOPG   GL147523   8.800  17.660  19.920
 2139DOPG   GL247524   8.800  17.930  20.040
 2139DOPG   C1A47525   9.230  17.810  19.800
 2139DOPG   D2A47526   9.590  17.840  19.600
 2139DOPG   C3A47527   9.750  18.230  19.320
 2139DOPG   C4A47528   9.930  18.200  18.910
 2139DOPG   C1B47529   9.140  18.250  20.110
 2139DOPG   D2B47530   9.290  18.690  20.220
 2139DOPG   C3B47531   9.320  19.000  19.840
 2139DOPG   C4B47532   9.510  19.110  19.550
 2140DOPG   GL047533   3.600  24.710  17.390
 2140DOPG   PO447534   3.480  25.010  17.710
 2140DOPG   GL147535   3.120  25.350  17.830
 2140DOPG   GL247536   2.870  25.210  18.030
 2140DOPG   C1A47537   2.870  25.710  17.920
 2140DOPG   D2A47538   2.530  26.000  18.080
 2140DOPG   C3A47539   2.290  26.050  18.350
 2140DOPG   C4A47540   2.010  26.210  18.680
 2140DOPG   C1B47541   2.570  25.420  18.230
 2140DOPG   D2B47542   2.620  25.300  18.670
 2140DOPG   C3B47543   2.280  25.160  18.830
 2140DOPG   C4B47544   2.090  24.760  18.720
 2141DOPG   GL047545  12.330  18.600   6.810
 2141DOPG   PO447546  12.220  18.900   6.510
 2141DOPG   GL147547  12.370  18.720   6.100
 2141DOPG   GL247548  12.710  18.820   6.070
 2141DOPG   C1A47549  12.420  18.940   5.700
 2141DOPG   D2A47550  12.680  19.080   5.450
 2141DOPG   C3A47551  12.630  19.200   5.120
 2141DOPG   C4A47552  12.900  19.200   4.830
 2141DOPG   C1B47553  12.940  18.670   5.690
 2141DOPG   D2B47554  12.970  18.320   5.300
 2141DOPG   C3B47555  13.190  18.420   4.890
 2141DOPG   C4B47556  13.690  18.320   4.850
 2142DOPG   GL047557   7.730  20.660   8.680
 2142DOPG   PO447558   7.810  20.700   9.120
 2142DOPG   GL147559   8.200  20.330   9.280
 2142DOPG   GL247560   8.440  20.210   9.120
 2142DOPG   C1A47561   8.320  20.190   9.650
 2142DOPG   D2A47562   8.460  20.070  10.020
 2142DOPG   C3A47563   8.680  19.630  10.110
 2142DOPG   C4A47564   8.760  19.240  10.330
 2142DOPG   C1B47565   8.640  19.840   9.170
 2142DOPG   D2B47566   9.070  19.620   9.170
 2142DOPG   C3B47567   9.550  19.580   9.340
 2142DOPG   C4B47568   9.770  19.900   9.620
 2143DOPG   GL047569   9.490  20.800   8.520
 2143DOPG   PO447570   9.220  20.750   8.840
 2143DOPG   GL147571   9.640  20.750   9.030
 2143DOPG   GL247572   9.910  20.660   8.840
 2143DOPG   C1A47573   9.930  20.990   9.270
 2143DOPG   D2A47574  10.230  21.330   9.400
 2143DOPG   C3A47575  10.620  21.220   9.740
 2143DOPG   C4A47576  10.650  20.860  10.010
 2143DOPG   C1B47577  10.380  20.740   9.040
 2143DOPG   D2B47578  10.780  20.770   8.980
 2143DOPG   C3B47579  11.050  20.450   9.150
 2143DOPG   C4B47580  11.250  20.120   9.030
 2144DOPG   GL047581   7.180  18.000   8.670
 2144DOPG   PO447582   7.580  17.860   8.890
 2144DOPG   GL147583   7.960  18.190   9.030
 2144DOPG   GL247584   7.790  18.490   9.090
 2144DOPG   C1A47585   8.340  18.220   8.970
 2144DOPG   D2A47586   8.720  18.370   8.810
 2144DOPG   C3A47587   9.120  18.340   8.940
 2144DOPG   C4A47588   9.530  18.460   9.070
 2144DOPG   C1B47589   8.130  18.680   8.950
 2144DOPG   D2B47590   8.200  19.070   8.900
 2144DOPG   C3B47591   8.120  19.320   9.360
 2144DOPG   C4B47592   8.270  19.690   9.670
 2145DOPG   GL047593   1.200  20.030  15.000
 2145DOPG   PO447594   1.440  20.060  15.280
 2145DOPG   GL147595   1.020  20.010  15.570
 2145DOPG   GL247596   0.870  19.790  15.790
 2145DOPG   C1A47597   0.650  20.230  15.710
 2145DOPG   D2A47598   0.230  20.200  15.560
 2145DOPG   C3A47599  36.340  20.310  15.120
 2145DOPG   C4A47600  36.150  20.640  14.840
 2145DOPG   C1B47601   0.490  19.770  15.470
 2145DOPG   D2B47602   0.010  19.760  15.270
 2145DOPG   C3B47603  36.020  19.750  15.490
 2145DOPG   C4B47604  35.560  19.760  15.430
 2146DOPG   GL047605  12.590  12.080  17.750
 2146DOPG   PO447606  12.250  12.110  17.600
 2146DOPG   GL147607  12.320  12.570  17.600
 2146DOPG   GL247608  12.340  12.680  17.280
 2146DOPG   C1A47609  11.970  12.840  17.770
 2146DOPG   D2A47610  11.530  12.840  17.580
 2146DOPG   C3A47611  11.220  13.160  17.610
 2146DOPG   C4A47612  10.940  13.270  17.380
 2146DOPG   C1B47613  12.070  13.070  17.070
 2146DOPG   D2B47614  12.050  13.430  16.790
 2146DOPG   C3B47615  12.120  13.370  16.420
 2146DOPG   C4B47616  12.200  13.440  15.960
 2147DOPG   GL047617  14.900  25.560  16.540
 2147DOPG   PO447618  14.870  25.390  17.010
 2147DOPG   GL147619  14.870  25.010  16.940
 2147DOPG   GL247620  14.940  24.900  16.650
 2147DOPG   C1A47621  14.490  24.780  16.910
 2147DOPG   D2A47622  14.320  24.450  16.850
 2147DOPG   C3A47623  14.340  24.090  16.570
 2147DOPG   C4A47624  14.000  23.790  16.700
 2147DOPG   C1B47625  14.700  24.550  16.460
 2147DOPG   D2B47626  14.310  24.390  16.150
 2147DOPG   C3B47627  14.120  23.940  16.140
 2147DOPG   C4B47628  13.860  23.660  16.010
 2148DOPG   GL047629   7.860  23.560  12.160
 2148DOPG   PO447630   7.880  23.970  12.430
 2148DOPG   GL147631   7.970  23.620  12.720
 2148DOPG   GL247632   7.820  23.480  12.840
 2148DOPG   C1A47633   8.320  23.480  12.730
 2148DOPG   D2A47634   8.510  23.310  13.110
 2148DOPG   C3A47635   8.890  23.260  13.390
 2148DOPG   C4A47636   9.010  23.180  13.770
 2148DOPG   C1B47637   8.000  23.260  13.140
 2148DOPG   D2B47638   8.200  22.890  13.330
 2148DOPG   C3B47639   8.610  22.760  13.230
 2148DOPG   C4B47640   8.960  22.750  13.460
 2149DOPG   GL047641  18.180  20.030   9.630
 2149DOPG   PO447642  18.450  20.340   9.560
 2149DOPG   GL147643  18.790  20.510   9.360
 2149DOPG   GL247644  18.900  20.820   9.360
 2149DOPG   C1A47645  19.120  20.400   9.150
 2149DOPG   D2A47646  19.360  20.580   8.740
 2149DOPG   C3A47647  19.210  21.000   8.560
 2149DOPG   C4A47648  19.120  21.160   8.140
 2149DOPG   C1B47649  19.180  20.890   9.110
 2149DOPG   D2B47650  19.310  21.300   8.930
 2149DOPG   C3B47651  19.240  21.490   8.510
 2149DOPG   C4B47652  19.230  21.920   8.380
 2150DOPG   GL047653   6.100  14.290  15.750
 2150DOPG   PO447654   6.390  13.940  15.810
 2150DOPG   GL147655   6.600  14.330  15.830
 2150DOPG   GL247656   6.620  14.610  15.610
 2150DOPG   C1A47657   6.900  14.560  16.030
 2150DOPG   D2A47658   7.020  14.970  16.000
 2150DOPG   C3A47659   7.390  15.100  16.060
 2150DOPG   C4A47660   7.630  15.410  15.790
 2150DOPG   C1B47661   6.970  14.700  15.330
 2150DOPG   D2B47662   7.380  14.640  15.150
 2150DOPG   C3B47663   7.740  14.900  14.990
 2150DOPG   C4B47664   8.040  15.210  15.090
 2151DOPG   GL047665   4.820  21.220  16.460
 2151DOPG   PO447666   5.290  21.020  16.640
 2151DOPG   GL147667   5.680  20.820  16.620
 2151DOPG   GL247668   5.660  20.550  16.700
 2151DOPG   C1A47669   6.050  20.980  16.610
 2151DOPG   D2A47670   6.520  20.890  16.610
 2151DOPG   C3A47671   6.880  21.040  16.410
 2151DOPG   C4A47672   7.320  21.070  16.200
 2151DOPG   C1B47673   5.980  20.670  16.980
 2151DOPG   D2B47674   6.450  20.770  17.100
 2151DOPG   C3B47675   6.750  20.520  17.290
 2151DOPG   C4B47676   7.090  20.250  17.510
 2152DOPG   GL047677  10.230  11.760  16.510
 2152DOPG   PO447678  10.440  11.770  16.980
 2152DOPG   GL147679  10.380  12.230  16.670
 2152DOPG   GL247680  10.210  12.470  16.760
 2152DOPG   C1A47681  10.700  12.590  16.550
 2152DOPG   D2A47682  10.670  12.980  16.480
 2152DOPG   C3A47683  10.740  13.190  16.160
 2152DOPG   C4A47684  10.900  13.510  15.840
 2152DOPG   C1B47685  10.410  12.820  16.910
 2152DOPG   D2B47686  10.490  13.160  17.230
 2152DOPG   C3B47687  10.210  13.390  17.020
 2152DOPG   C4B47688  10.000  13.610  16.620
 2153DOPG   GL047689  11.990  10.550  12.310
 2153DOPG   PO447690  11.560  10.730  12.190
 2153DOPG   GL147691  11.500  10.360  11.880
 2153DOPG   GL247692  11.250  10.540  11.710
 2153DOPG   C1A47693  11.680   9.910  11.880
 2153DOPG   D2A47694  11.840   9.540  11.910
 2153DOPG   C3A47695  11.640   9.360  11.720
 2153DOPG   C4A47696  11.480   9.410  11.320
 2153DOPG   C1B47697  11.070  10.130  11.770
 2153DOPG   D2B47698  11.210   9.630  11.820
 2153DOPG   C3B47699  10.780   9.340  11.850
 2153DOPG   C4B47700  10.610   9.140  12.150
 2154DOPG   GL047701  15.000  11.930  14.810
 2154DOPG   PO447702  14.580  11.980  14.830
 2154DOPG   GL147703  14.280  12.330  14.870
 2154DOPG   GL247704  14.500  12.410  15.080
 2154DOPG   C1A47705  14.410  12.770  14.780
 2154DOPG   D2A47706  14.580  13.020  14.520
 2154DOPG   C3A47707  14.560  13.320  14.790
 2154DOPG   C4A47708  14.820  13.630  14.980
 2154DOPG   C1B47709  14.410  12.530  15.420
 2154DOPG   D2B47710  14.270  12.830  15.710
 2154DOPG   C3B47711  14.300  13.140  15.430
 2154DOPG   C4B47712  14.160  13.120  15.000
 2155DOPG   GL047713   6.310  15.910   3.870
 2155DOPG   PO447714   6.640  16.130   3.870
 2155DOPG   GL147715   6.890  16.480   4.080
 2155DOPG   GL247716   7.060  16.890   4.000
 2155DOPG   C1A47717   7.190  16.500   4.370
 2155DOPG   D2A47718   7.780  16.470   4.410
 2155DOPG   C3A47719   8.080  16.230   4.670
 2155DOPG   C4A47720   8.470  16.240   4.900
 2155DOPG   C1B47721   7.070  16.980   4.530
 2155DOPG   D2B47722   6.910  17.220   4.790
 2155DOPG   C3B47723   6.720  17.340   5.200
 2155DOPG   C4B47724   6.750  17.700   5.330
 2156DOPG   GL047725  19.870  18.440  11.800
 2156DOPG   PO447726  20.150  18.080  11.540
 2156DOPG   GL147727  20.520  18.150  11.350
 2156DOPG   GL247728  20.540  17.960  10.980
 2156DOPG   C1A47729  20.800  18.420  11.250
 2156DOPG   D2A47730  21.030  18.750  11.190
 2156DOPG   C3A47731  21.120  19.030  11.550
 2156DOPG   C4A47732  21.420  18.850  11.870
 2156DOPG   C1B47733  20.790  17.730  10.860
 2156DOPG   D2B47734  20.780  17.500  10.430
 2156DOPG   C3B47735  20.620  16.990  10.320
 2156DOPG   C4B47736  20.630  16.590  10.500
 2157DOPG   GL047737   8.620  20.010  22.730
 2157DOPG   PO447738   8.540  19.850  23.090
 2157DOPG   GL147739   8.390  19.820  23.440
 2157DOPG   GL247740   8.710  19.870  23.520
 2157DOPG   C1A47741   8.320  20.160  23.790
 2157DOPG   D2A47742   8.230  20.070  24.170
 2157DOPG   C3A47743   8.140  19.750  24.390
 2157DOPG   C4A47744   7.660  19.600  24.480
 2157DOPG   C1B47745   8.500  19.660  23.900
 2157DOPG   D2B47746   8.110  19.370  23.960
 2157DOPG   C3B47747   8.080  19.120  24.320
 2157DOPG   C4B47748   8.060  19.120  24.770
 2158DOPG   GL047749  13.070  24.880  19.570
 2158DOPG   PO447750  13.010  24.490  19.600
 2158DOPG   GL147751  12.830  24.210  19.240
 2158DOPG   GL247752  12.960  24.310  18.960
 2158DOPG   C1A47753  12.830  23.840  18.830
 2158DOPG   D2A47754  12.780  23.990  18.340
 2158DOPG   C3A47755  12.950  23.730  17.980
 2158DOPG   C4A47756  12.740  23.480  17.650
 2158DOPG   C1B47757  13.390  24.110  19.040
 2158DOPG   D2B47758  13.760  23.900  18.730
 2158DOPG   C3B47759  13.720  23.900  18.270
 2158DOPG   C4B47760  13.430  24.010  17.870
 2159DOPG   GL047761  16.020  25.950  17.110
 2159DOPG   PO447762  15.930  25.790  17.540
 2159DOPG   GL147763  15.880  26.260  17.580
 2159DOPG   GL247764  15.740  26.400  17.320
 2159DOPG   C1A47765  16.040  26.560  17.790
 2159DOPG   D2A47766  16.160  27.030  17.710
 2159DOPG   C3A47767  16.560  27.250  17.780
 2159DOPG   C4A47768  16.890  27.480  18.010
 2159DOPG   C1B47769  16.020  26.520  17.190
 2159DOPG   D2B47770  16.200  26.920  17.210
 2159DOPG   C3B47771  16.510  27.170  17.300
 2159DOPG   C4B47772  16.610  27.490  17.140
 2160DOPG   GL047773  15.060  24.480  11.040
 2160DOPG   PO447774  14.770  24.540  11.310
 2160DOPG   GL147775  14.310  24.390  11.390
 2160DOPG   GL247776  14.230  24.240  11.170
 2160DOPG   C1A47777  13.810  24.170  11.580
 2160DOPG   D2A47778  13.690  23.840  11.900
 2160DOPG   C3A47779  13.850  23.470  12.150
 2160DOPG   C4A47780  13.930  23.140  12.460
 2160DOPG   C1B47781  14.330  23.880  11.430
 2160DOPG   D2B47782  14.170  23.580  11.770
 2160DOPG   C3B47783  13.890  23.180  11.620
 2160DOPG   C4B47784  13.570  23.100  11.340
 2161DOPG   GL047785  14.910  18.120  21.700
 2161DOPG   PO447786  15.200  17.880  21.720
 2161DOPG   GL147787  15.370  17.810  22.090
 2161DOPG   GL247788  15.220  18.110  22.300
 2161DOPG   C1A47789  15.590  17.480  22.420
 2161DOPG   D2A47790  15.650  17.260  22.790
 2161DOPG   C3A47791  16.020  17.140  22.820
 2161DOPG   C4A47792  16.130  16.700  22.830
 2161DOPG   C1B47793  15.230  18.160  22.750
 2161DOPG   D2B47794  15.600  18.280  23.050
 2161DOPG   C3B47795  15.710  18.140  23.430
 2161DOPG   C4B47796  15.730  18.130  23.830
 2162DOPG   GL047797  13.330  30.110   9.630
 2162DOPG   PO447798  13.720  30.080   9.540
 2162DOPG   GL147799  13.540  29.660   9.580
 2162DOPG   GL247800  13.820  29.460   9.720
 2162DOPG   C1A47801  13.370  29.400   9.890
 2162DOPG   D2A47802  13.370  28.970  10.130
 2162DOPG   C3A47803  13.780  28.840  10.060
 2162DOPG   C4A47804  14.120  29.110   9.930
 2162DOPG   C1B47805  13.800  29.410  10.190
 2162DOPG   D2B47806  13.710  29.330  10.600
 2162DOPG   C3B47807  13.950  29.260  11.000
 2162DOPG   C4B47808  13.900  28.820  11.170
 2163DOPG   GL047809   9.210  11.500  14.670
 2163DOPG   PO447810   9.650  11.480  14.790
 2163DOPG   GL147811   9.780  11.870  14.940
 2163DOPG   GL247812  10.030  12.020  14.790
 2163DOPG   C1A47813   9.670  12.300  14.850
 2163DOPG   D2A47814   9.890  12.640  14.900
 2163DOPG   C3A47815   9.960  13.030  15.040
 2163DOPG   C4A47816   9.950  13.470  15.070
 2163DOPG   C1B47817  10.180  12.280  15.130
 2163DOPG   D2B47818  10.480  12.500  15.090
 2163DOPG   C3B47819  10.610  12.880  15.240
 2163DOPG   C4B47820  10.470  13.250  15.090
 2164DOPG   GL047821  10.100  11.790  12.510
 2164DOPG   PO447822   9.740  12.040  12.350
 2164DOPG   GL147823   9.790  12.280  12.730
 2164DOPG   GL247824  10.110  12.330  12.730
 2164DOPG   C1A47825   9.670  12.640  13.010
 2164DOPG   D2A47826   9.600  12.960  13.160
 2164DOPG   C3A47827   9.790  13.190  13.560
 2164DOPG   C4A47828   9.760  13.480  13.980
 2164DOPG   C1B47829  10.460  12.570  12.730
 2164DOPG   D2B47830  10.800  12.540  12.780
 2164DOPG   C3B47831  11.000  12.930  12.730
 2164DOPG   C4B47832  10.960  13.390  12.760
 2165DOPG   GL047833  13.940  23.970  20.170
 2165DOPG   PO447834  14.240  23.550  20.100
 2165DOPG   GL147835  14.190  23.080  20.100
 2165DOPG   GL247836  14.290  22.880  19.830
 2165DOPG   C1A47837  14.070  22.650  20.230
 2165DOPG   D2A47838  13.690  22.600  20.040
 2165DOPG   C3A47839  13.550  22.330  19.800
 2165DOPG   C4A47840  13.180  22.370  19.540
 2165DOPG   C1B47841  13.840  22.720  19.590
 2165DOPG   D2B47842  13.360  22.800  19.590
 2165DOPG   C3B47843  13.270  22.720  19.120
 2165DOPG   C4B47844  13.340  22.470  18.800
 2166DOPG   GL047845   6.700  18.290   9.570
 2166DOPG   PO447846   7.070  18.520   9.430
 2166DOPG   GL147847   7.490  18.360   9.560
 2166DOPG   GL247848   7.600  18.040   9.380
 2166DOPG   C1A47849   7.890  18.410   9.600
 2166DOPG   D2A47850   8.350  18.460   9.400
 2166DOPG   C3A47851   8.440  18.940   9.430
 2166DOPG   C4A47852   8.580  19.280   9.700
 2166DOPG   C1B47853   8.050  17.980   9.480
 2166DOPG   D2B47854   8.170  18.160   9.900
 2166DOPG   C3B47855   8.470  18.510   9.870
 2166DOPG   C4B47856   8.440  18.830  10.160
 2167DOPG   GL047857  18.000  19.200  18.400
 2167DOPG   PO447858  17.970  18.760  18.350
 2167DOPG   GL147859  17.520  18.830  18.150
 2167DOPG   GL247860  17.200  18.750  18.260
 2167DOPG   C1A47861  17.260  19.090  17.740
 2167DOPG   D2A47862  16.940  19.230  17.460
 2167DOPG   C3A47863  16.900  19.600  17.520
 2167DOPG   C4A47864  16.590  19.940  17.600
 2167DOPG   C1B47865  16.920  18.750  17.940
 2167DOPG   D2B47866  16.630  18.780  17.640
 2167DOPG   C3B47867  16.320  18.980  17.790
 2167DOPG   C4B47868  15.900  19.100  17.750
 2168DOPG   GL047869   1.780  24.380  14.940
 2168DOPG   PO447870   1.940  24.290  14.600
 2168DOPG   GL147871   1.630  24.430  14.400
 2168DOPG   GL247872   1.660  24.770  14.350
 2168DOPG   C1A47873   1.220  24.520  14.210
 2168DOPG   D2A47874   0.860  24.780  14.100
 2168DOPG   C3A47875   0.680  24.970  14.410
 2168DOPG   C4A47876   0.260  24.980  14.370
 2168DOPG   C1B47877   1.850  25.060  14.110
 2168DOPG   D2B47878   1.630  25.460  14.010
 2168DOPG   C3B47879   1.280  25.690  14.330
 2168DOPG   C4B47880   1.070  25.420  14.620
 2169DOPG   GL047881  35.010  14.770  11.090
 2169DOPG   PO447882  35.400  14.720  11.230
 2169DOPG   GL147883  35.770  14.900  11.460
 2169DOPG   GL247884  35.580  15.160  11.560
 2169DOPG   C1A47885  36.110  14.960  11.730
 2169DOPG   D2A47886  36.260  15.320  11.970
 2169DOPG   C3A47887  36.290  15.740  11.970
 2169DOPG   C4A47888   0.280  16.060  12.030
 2169DOPG   C1B47889  35.960  15.400  11.540
 2169DOPG   D2B47890  36.180  15.730  11.470
 2169DOPG   C3B47891  36.000  16.050  11.580
 2169DOPG   C4B47892  35.740  16.430  11.730
 2170DOPG   GL047893  14.790   6.600  15.720
 2170DOPG   PO447894  14.980   6.940  15.620
 2170DOPG   GL147895  15.170   7.340  15.480
 2170DOPG   GL247896  15.190   7.490  15.110
 2170DOPG   C1A47897  15.470   7.580  15.630
 2170DOPG   D2A47898  15.730   7.730  15.910
 2170DOPG   C3A47899  15.680   8.130  15.980
 2170DOPG   C4A47900  15.400   8.500  15.940
 2170DOPG   C1B47901  14.740   7.680  15.060
 2170DOPG   D2B47902  14.550   8.010  15.290
 2170DOPG   C3B47903  14.910   8.390  15.330
 2170DOPG   C4B47904  14.920   8.840  15.070
 2171DOPG   GL047905   6.790  13.870  13.750
 2171DOPG   PO447906   6.680  13.620  13.370
 2171DOPG   GL147907   6.870  13.890  13.060
 2171DOPG   GL247908   6.900  14.080  13.300
 2171DOPG   C1A47909   7.050  14.180  12.850
 2171DOPG   D2A47910   7.450  14.140  12.710
 2171DOPG   C3A47911   7.460  14.410  12.300
 2171DOPG   C4A47912   7.310  14.770  12.210
 2171DOPG   C1B47913   7.250  14.370  13.230
 2171DOPG   D2B47914   7.360  14.750  13.400
 2171DOPG   C3B47915   6.990  15.030  13.540
 2171DOPG   C4B47916   6.730  15.430  13.430
 2172DOPG   GL047917   5.360  17.060  17.840
 2172DOPG   PO447918   5.800  16.940  17.870
 2172DOPG   GL147919   6.030  17.350  17.840
 2172DOPG   GL247920   6.170  17.560  18.090
 2172DOPG   C1A47921   6.400  17.320  17.750
 2172DOPG   D2A47922   6.700  17.060  17.550
 2172DOPG   C3A47923   7.000  17.200  17.590
 2172DOPG   C4A47924   7.380  17.050  17.350
 2172DOPG   C1B47925   6.490  17.690  18.280
 2172DOPG   D2B47926   6.810  17.800  18.720
 2172DOPG   C3B47927   7.030  17.560  18.990
 2172DOPG   C4B47928   6.920  17.390  19.340
 2173DOPG   GL047929   3.880  20.760  19.850
 2173DOPG   PO447930   3.710  21.040  20.180
 2173DOPG   GL147931   3.520  20.930  20.570
 2173DOPG   GL247932   3.840  20.830  20.640
 2173DOPG   C1A47933   3.250  20.990  20.800
 2173DOPG   D2A47934   2.960  21.230  21.010
 2173DOPG   C3A47935   2.780  21.100  21.380
 2173DOPG   C4A47936   2.440  21.060  21.650
 2173DOPG   C1B47937   3.590  20.770  21.060
 2173DOPG   D2B47938   3.240  20.650  21.250
 2173DOPG   C3B47939   2.920  20.570  21.550
 2173DOPG   C4B47940   2.980  20.240  21.670
 2174DOPG   GL047941  13.200  15.940   8.040
 2174DOPG   PO447942  12.950  15.810   8.360
 2174DOPG   GL147943  13.000  15.600   8.670
 2174DOPG   GL247944  13.280  15.640   8.970
 2174DOPG   C1A47945  12.830  15.470   9.150
 2174DOPG   D2A47946  12.720  15.590   9.490
 2174DOPG   C3A47947  12.920  15.820   9.760
 2174DOPG   C4A47948  13.000  16.290   9.610
 2174DOPG   C1B47949  12.940  15.960   9.200
 2174DOPG   D2B47950  12.610  16.090   9.480
 2174DOPG   C3B47951  12.450  15.970   9.870
 2174DOPG   C4B47952  12.700  16.040  10.170
 2175DOPG   GL047953   8.160  23.930  19.460
 2175DOPG   PO447954   8.380  23.710  19.130
 2175DOPG   GL147955   8.380  23.610  18.730
 2175DOPG   GL247956   8.300  23.300  18.860
 2175DOPG   C1A47957   8.630  23.820  18.360
 2175DOPG   D2A47958   8.950  23.610  18.090
 2175DOPG   C3A47959   8.930  23.180  18.110
 2175DOPG   C4A47960   8.860  22.810  17.850
 2175DOPG   C1B47961   8.270  22.840  18.980
 2175DOPG   D2B47962   8.180  22.590  19.200
 2175DOPG   C3B47963   8.460  22.260  19.080
 2175DOPG   C4B47964   8.740  22.220  18.790
 2176DOPG   GL047965  15.830  14.570  18.810
 2176DOPG   PO447966  15.560  14.700  18.660
 2176DOPG   GL147967  15.200  14.860  18.510
 2176DOPG   GL247968  15.060  14.680  18.180
 2176DOPG   C1A47969  14.790  15.110  18.220
 2176DOPG   D2A47970  14.800  15.460  18.010
 2176DOPG   C3A47971  14.590  15.810  17.850
 2176DOPG   C4A47972  14.550  16.280  17.800
 2176DOPG   C1B47973  14.620  14.590  18.000
 2176DOPG   D2B47974  14.400  14.910  17.870
 2176DOPG   C3B47975  14.530  15.060  17.420
 2176DOPG   C4B47976  14.380  15.110  17.120
 2177DOPG   GL047977   5.930  21.020  17.340
 2177DOPG   PO447978   5.800  21.310  17.600
 2177DOPG   GL147979   6.280  21.300  17.700
 2177DOPG   GL247980   6.510  21.030  17.540
 2177DOPG   C1A47981   6.690  21.480  17.630
 2177DOPG   D2A47982   7.050  21.650  17.770
 2177DOPG   C3A47983   7.560  21.630  17.550
 2177DOPG   C4A47984   7.780  21.280  17.450
 2177DOPG   C1B47985   6.860  20.920  17.590
 2177DOPG   D2B47986   7.250  20.720  17.510
 2177DOPG   C3B47987   7.400  20.580  17.150
 2177DOPG   C4B47988   7.400  20.070  17.010
 2178DOPG   GL047989  14.710  13.190  18.470
 2178DOPG   PO447990  14.460  13.320  18.200
 2178DOPG   GL147991  14.340  13.570  17.840
 2178DOPG   GL247992  14.260  13.850  18.040
 2178DOPG   C1A47993  14.360  13.740  17.340
 2178DOPG   D2A47994  14.190  13.690  16.960
 2178DOPG   C3A47995  14.290  13.670  16.560
 2178DOPG   C4A47996  14.510  13.290  16.410
 2178DOPG   C1B47997  13.950  13.810  17.650
 2178DOPG   D2B47998  13.490  14.090  17.660
 2178DOPG   C3B47999  13.300  14.060  17.340
 2178DOPG   C4B48000  12.990  14.120  17.130
 2179DOPG   GL048001  14.230  17.070   2.540
 2179DOPG   PO448002  13.780  17.130   2.520
 2179DOPG   GL148003  13.680  17.380   2.940
 2179DOPG   GL248004  13.800  17.140   3.250
 2179DOPG   C1A48005  13.420  17.750   3.140
 2179DOPG   D2A48006  13.090  17.900   3.320
 2179DOPG   C3A48007  12.890  18.330   3.270
 2179DOPG   C4A48008  12.670  18.640   3.490
 2179DOPG   C1B48009  13.690  17.380   3.570
 2179DOPG   D2B48010  13.480  17.340   3.950
 2179DOPG   C3B48011  13.680  17.550   4.270
 2179DOPG   C4B48012  13.760  17.600   4.710
 2180DOPG   GL048013  10.540  10.990  13.240
 2180DOPG   PO448014  10.190  10.770  13.020
 2180DOPG   GL148015  10.190  10.350  13.150
 2180DOPG   GL248016  10.270  10.260  13.460
 2180DOPG   C1A48017  10.270   9.930  13.040
 2180DOPG   D2A48018  10.140   9.480  13.020
 2180DOPG   C3A48019   9.970   9.150  12.780
 2180DOPG   C4A48020   9.640   8.850  12.690
 2180DOPG   C1B48021  10.280   9.880  13.670
 2180DOPG   D2B48022  10.330   9.450  13.450
 2180DOPG   C3B48023   9.960   9.140  13.380
 2180DOPG   C4B48024   9.740   8.940  13.150
 2181DOPG   GL048025  10.490  26.280   5.470
 2181DOPG   PO448026  10.150  26.140   5.270
 2181DOPG   GL148027  10.320  25.730   5.430
 2181DOPG   GL248028  10.640  25.800   5.640
 2181DOPG   C1A48029  10.170  25.380   5.660
 2181DOPG   D2A48030  10.320  25.010   5.710
 2181DOPG   C3A48031  10.220  24.730   6.100
 2181DOPG   C4A48032  10.000  24.440   6.390
 2181DOPG   C1B48033  10.680  25.410   5.870
 2181DOPG   D2B48034  10.780  25.030   6.020
 2181DOPG   C3B48035  10.990  24.790   6.340
 2181DOPG   C4B48036  11.100  24.760   6.810
 2182DOPG   GL048037   6.850  24.230  21.230
 2182DOPG   PO448038   6.670  24.480  21.560
 2182DOPG   GL148039   6.780  24.820  21.700
 2182DOPG   GL248040   6.950  25.080  21.520
 2182DOPG   C1A48041   6.670  25.010  22.180
 2182DOPG   D2A48042   6.330  24.930  22.470
 2182DOPG   C3A48043   6.150  25.280  22.500
 2182DOPG   C4A48044   5.680  25.480  22.270
 2182DOPG   C1B48045   6.710  25.360  21.840
 2182DOPG   D2B48046   6.990  25.760  21.980
 2182DOPG   C3B48047   6.940  25.890  22.270
 2182DOPG   C4B48048   7.190  26.070  22.550
 2183DOPG   GL048049   8.000  20.570  20.920
 2183DOPG   PO448050   8.200  20.480  21.220
 2183DOPG   GL148051   8.490  20.410  20.840
 2183DOPG   GL248052   8.550  20.140  20.700
 2183DOPG   C1A48053   8.670  20.570  20.450
 2183DOPG   D2A48054   8.500  20.700  19.960
 2183DOPG   C3A48055   8.620  20.480  19.570
 2183DOPG   C4A48056   8.820  20.770  19.300
 2183DOPG   C1B48057   8.150  20.300  20.530
 2183DOPG   D2B48058   7.850  20.120  20.320
 2183DOPG   C3B48059   7.440  20.010  20.390
 2183DOPG   C4B48060   7.330  19.740  20.050
 2184DOPG   GL048061   5.300  19.800  14.170
 2184DOPG   PO448062   5.710  19.590  14.180
 2184DOPG   GL148063   6.030  19.620  14.400
 2184DOPG   GL248064   6.190  19.790  14.170
 2184DOPG   C1A48065   6.410  19.610  14.580
 2184DOPG   D2A48066   6.840  19.410  14.470
 2184DOPG   C3A48067   7.140  19.040  14.360
 2184DOPG   C4A48068   7.150  18.920  13.890
 2184DOPG   C1B48069   6.690  19.720  14.100
 2184DOPG   D2B48070   6.670  19.250  13.860
 2184DOPG   C3B48071   6.410  18.990  13.610
 2184DOPG   C4B48072   6.420  18.670  13.220
 2185DOPG   GL048073   4.750  19.380  16.280
 2185DOPG   PO448074   5.190  19.500  16.490
 2185DOPG   GL148075   5.600  19.700  16.600
 2185DOPG   GL248076   5.690  20.020  16.460
 2185DOPG   C1A48077   5.920  19.430  16.630
 2185DOPG   D2A48078   6.010  19.020  16.340
 2185DOPG   C3A48079   6.330  18.800  16.560
 2185DOPG   C4A48080   6.660  18.570  16.840
 2185DOPG   C1B48081   6.080  20.120  16.160
 2185DOPG   D2B48082   6.260  19.860  15.960
 2185DOPG   C3B48083   6.400  19.900  15.540
 2185DOPG   C4B48084   6.580  19.740  15.160
 2186DOPG   GL048085   3.830  20.480  10.070
 2186DOPG   PO448086   3.530  20.770  10.310
 2186DOPG   GL148087   3.250  20.850  10.090
 2186DOPG   GL248088   2.990  20.570  10.120
 2186DOPG   C1A48089   2.930  20.960   9.720
 2186DOPG   D2A48090   2.890  21.120   9.260
 2186DOPG   C3A48091   2.770  20.920   8.840
 2186DOPG   C4A48092   2.510  21.210   8.640
 2186DOPG   C1B48093   2.730  20.380   9.750
 2186DOPG   D2B48094   2.400  20.360   9.420
 2186DOPG   C3B48095   1.890  20.160   9.390
 2186DOPG   C4B48096   1.530  19.930   9.370
 2187DOPG   GL048097   7.850  12.540  14.210
 2187DOPG   PO448098   7.990  12.070  14.370
 2187DOPG   GL148099   8.360  12.470  14.270
 2187DOPG   GL248100   8.670  12.300  14.240
 2187DOPG   C1A48101   8.500  12.880  14.140
 2187DOPG   D2A48102   8.810  13.260  14.380
 2187DOPG   C3A48103   8.950  13.470  14.630
 2187DOPG   C4A48104   9.260  13.730  14.720
 2187DOPG   C1B48105   8.890  12.730  14.410
 2187DOPG   D2B48106   9.170  12.930  14.510
 2187DOPG   C3B48107   9.330  13.360  14.340
 2187DOPG   C4B48108   9.090  13.660  14.180
 2188DOPG   GL048109   9.890  13.690   9.930
 2188DOPG   PO448110  10.050  14.110   9.880
 2188DOPG   GL148111  10.180  14.190  10.310
 2188DOPG   GL248112  10.020  14.450  10.470
 2188DOPG   C1A48113  10.300  14.190  10.830
 2188DOPG   D2A48114  10.380  14.360  11.230
 2188DOPG   C3A48115  10.050  14.490  11.480
 2188DOPG   C4A48116   9.860  14.470  11.800
 2188DOPG   C1B48117   9.940  14.520  10.960
 2188DOPG   D2B48118  10.000  14.920  11.150
 2188DOPG   C3B48119   9.920  14.970  11.630
 2188DOPG   C4B48120   9.810  15.010  12.100
 2189DOPG   GL048121  11.070  12.830  17.970
 2189DOPG   PO448122  10.660  12.730  18.260
 2189DOPG   GL148123  10.880  13.210  18.170
 2189DOPG   GL248124  11.040  13.450  18.340
 2189DOPG   C1A48125  10.870  13.500  17.820
 2189DOPG   D2A48126  11.250  13.790  17.640
 2189DOPG   C3A48127  11.360  13.580  17.280
 2189DOPG   C4A48128  11.670  13.810  16.940
 2189DOPG   C1B48129  11.420  13.460  18.010
 2189DOPG   D2B48130  11.690  13.800  18.010
 2189DOPG   C3B48131  11.500  14.150  17.880
 2189DOPG   C4B48132  11.440  14.580  17.690
 2190DOPG   GL048133   8.920  12.750  17.950
 2190DOPG   PO448134   9.300  12.930  17.930
 2190DOPG   GL148135   9.280  13.350  17.810
 2190DOPG   GL248136   9.070  13.480  18.050
 2190DOPG   C1A48137   9.460  13.630  17.450
 2190DOPG   D2A48138   9.870  13.860  17.340
 2190DOPG   C3A48139  10.240  13.860  17.060
 2190DOPG   C4A48140  10.700  13.640  17.120
 2190DOPG   C1B48141   9.130  13.850  17.830
 2190DOPG   D2B48142   9.270  14.230  17.930
 2190DOPG   C3B48143   9.580  14.310  17.590
 2190DOPG   C4B48144   9.590  14.360  17.170
 2191DOPG   GL048145  16.700  24.900  14.860
 2191DOPG   PO448146  16.410  24.940  14.480
 2191DOPG   GL148147  16.200  24.610  14.420
 2191DOPG   GL248148  15.780  24.640  14.370
 2191DOPG   C1A48149  15.890  24.140  14.360
 2191DOPG   D2A48150  15.930  23.600  14.520
 2191DOPG   C3A48151  15.680  23.280  14.530
 2191DOPG   C4A48152  15.300  22.980  14.510
 2191DOPG   C1B48153  15.500  24.330  14.560
 2191DOPG   D2B48154  15.180  24.030  14.720
 2191DOPG   C3B48155  15.380  23.670  14.720
 2191DOPG   C4B48156  15.450  23.280  14.950
 2192DOPG   GL048157  11.680  26.370  15.210
 2192DOPG   PO448158  11.660  26.290  14.830
 2192DOPG   GL148159  11.800  25.910  15.090
 2192DOPG   GL248160  11.580  25.850  15.460
 2192DOPG   C1A48161  11.740  25.460  15.150
 2192DOPG   D2A48162  11.650  25.110  15.150
 2192DOPG   C3A48163  11.280  24.910  15.290
 2192DOPG   C4A48164  11.020  24.800  15.480
 2192DOPG   C1B48165  11.270  25.570  15.330
 2192DOPG   D2B48166  10.970  25.240  15.120
 2192DOPG   C3B48167  10.590  24.820  15.250
 2192DOPG   C4B48168  10.570  24.490  15.090
 2193DOPG   GL048169  18.590  20.440  16.010
 2193DOPG   PO448170  18.180  20.380  15.960
 2193DOPG   GL148171  17.840  20.050  15.930
 2193DOPG   GL248172  17.920  19.990  15.650
 2193DOPG   C1A48173  17.540  19.790  15.970
 2193DOPG   D2A48174  17.250  19.650  15.610
 2193DOPG   C3A48175  16.930  19.650  15.750
 2193DOPG   C4A48176  16.650  19.410  16.010
 2193DOPG   C1B48177  17.520  20.270  15.600
 2193DOPG   D2B48178  17.200  20.420  15.690
 2193DOPG   C3B48179  16.840  20.300  15.410
 2193DOPG   C4B48180  16.590  19.980  15.510
 2194DOPG   GL048181  13.150  13.080  10.260
 2194DOPG   PO448182  13.110  13.320  10.630
 2194DOPG   GL148183  13.200  13.670  10.700
 2194DOPG   GL248184  13.510  13.740  10.810
 2194DOPG   C1A48185  13.050  14.030  10.690
 2194DOPG   D2A48186  12.900  14.510  10.750
 2194DOPG   C3A48187  12.720  14.640  10.400
 2194DOPG   C4A48188  12.760  14.870  10.110
 2194DOPG   C1B48189  13.620  13.930  11.140
 2194DOPG   D2B48190  13.490  13.960  11.540
 2194DOPG   C3B48191  13.320  14.370  11.610
 2194DOPG   C4B48192  13.070  14.530  11.870
 2195DOPG   GL048193  16.270  24.740  16.600
 2195DOPG   PO448194  16.100  24.540  16.280
 2195DOPG   GL148195  15.940  24.180  16.280
 2195DOPG   GL248196  15.620  24.290  16.190
 2195DOPG   C1A48197  15.750  23.750  16.150
 2195DOPG   D2A48198  15.420  23.490  15.970
 2195DOPG   C3A48199  15.480  22.920  15.880
 2195DOPG   C4A48200  15.460  22.470  15.880
 2195DOPG   C1B48201  15.320  24.090  16.290
 2195DOPG   D2B48202  14.810  24.070  16.380
 2195DOPG   C3B48203  14.690  23.700  16.480
 2195DOPG   C4B48204  14.440  23.310  16.700
 2196DOPG   GL048205  13.610  27.860  15.710
 2196DOPG   PO448206  13.330  27.790  15.990
 2196DOPG   GL148207  13.450  28.150  16.250
 2196DOPG   GL248208  13.500  28.290  16.010
 2196DOPG   C1A48209  13.660  28.550  16.440
 2196DOPG   D2A48210  13.500  28.850  16.610
 2196DOPG   C3A48211  13.730  28.830  17.030
 2196DOPG   C4A48212  13.500  28.740  17.460
 2196DOPG   C1B48213  13.860  28.670  15.990
 2196DOPG   D2B48214  13.730  29.080  15.830
 2196DOPG   C3B48215  13.790  29.320  15.410
 2196DOPG   C4B48216  13.820  29.650  15.120
 2197DOPG   GL048217   8.030  15.460   9.930
 2197DOPG   PO448218   8.420  15.570   9.900
 2197DOPG   GL148219   8.860  15.810   9.960
 2197DOPG   GL248220   9.050  15.980   9.790
 2197DOPG   C1A48221   9.240  15.910  10.250
 2197DOPG   D2A48222   9.500  16.190  10.680
 2197DOPG   C3A48223   9.350  16.180  11.090
 2197DOPG   C4A48224   9.370  16.150  11.500
 2197DOPG   C1B48225   9.000  16.330   9.940
 2197DOPG   D2B48226   9.130  16.510  10.330
 2197DOPG   C3B48227   9.270  16.630  10.750
 2197DOPG   C4B48228   9.390  17.050  11.020
 2198DOPG   GL048229  13.490   6.120  16.370
 2198DOPG   PO448230  13.500   6.540  16.550
 2198DOPG   GL148231  13.430   6.920  16.570
 2198DOPG   GL248232  13.130   7.000  16.440
 2198DOPG   C1A48233  13.550   7.350  16.380
 2198DOPG   D2A48234  13.400   7.800  16.280
 2198DOPG   C3A48235  13.370   8.030  16.630
 2198DOPG   C4A48236  13.240   8.470  16.810
 2198DOPG   C1B48237  13.110   7.410  16.460
 2198DOPG   D2B48238  13.200   7.340  16.850
 2198DOPG   C3B48239  13.570   7.600  16.840
 2198DOPG   C4B48240  13.860   7.780  16.520
 2199DOPG   GL048241   6.000  19.530  18.490
 2199DOPG   PO448242   6.050  19.890  18.740
 2199DOPG   GL148243   6.380  20.020  18.590
 2199DOPG   GL248244   6.290  19.960  18.250
 2199DOPG   C1A48245   6.830  20.160  18.570
 2199DOPG   D2A48246   7.200  20.360  18.410
 2199DOPG   C3A48247   7.530  20.110  18.660
 2199DOPG   C4A48248   7.720  19.740  18.610
 2199DOPG   C1B48249   6.460  19.670  17.980
 2199DOPG   D2B48250   6.420  19.490  17.600
 2199DOPG   C3B48251   6.670  19.460  17.390
 2199DOPG   C4B48252   7.010  19.170  17.400
 2200DOPG   GL048253   4.870  26.120  15.770
 2200DOPG   PO448254   4.680  26.130  15.370
 2200DOPG   GL148255   4.570  26.580  15.320
 2200DOPG   GL248256   4.310  26.690  15.510
 2200DOPG   C1A48257   4.690  27.000  15.480
 2200DOPG   D2A48258   4.890  27.390  15.500
 2200DOPG   C3A48259   4.590  27.790  15.410
 2200DOPG   C4A48260   4.230  28.180  15.380
 2200DOPG   C1B48261   4.280  26.990  15.210
 2200DOPG   D2B48262   4.330  27.410  15.190
 2200DOPG   C3B48263   4.130  27.640  15.490
 2200DOPG   C4B48264   3.840  27.660  15.850
 2201DOPG   GL048265   7.940  21.080   3.200
 2201DOPG   PO448266   8.030  21.150   3.630
 2201DOPG   GL148267   8.350  21.390   3.940
 2201DOPG   GL248268   8.270  21.640   4.190
 2201DOPG   C1A48269   8.670  21.160   4.230
 2201DOPG   D2A48270   8.980  20.990   4.530
 2201DOPG   C3A48271   9.160  21.150   4.800
 2201DOPG   C4A48272   9.330  21.230   5.220
 2201DOPG   C1B48273   8.410  21.750   4.510
 2201DOPG   D2B48274   8.430  21.970   4.940
 2201DOPG   C3B48275   8.450  22.370   5.150
 2201DOPG   C4B48276   8.190  22.690   5.330
 2202DOPG   GL048277   8.030  16.640   8.950
 2202DOPG   PO448278   8.220  17.000   9.020
 2202DOPG   GL148279   8.180  17.260   9.240
 2202DOPG   GL248280   8.110  17.280   9.520
 2202DOPG   C1A48281   8.470  17.670   9.380
 2202DOPG   D2A48282   8.550  18.030   9.640
 2202DOPG   C3A48283   8.930  18.220   9.730
 2202DOPG   C4A48284   9.260  18.410   9.980
 2202DOPG   C1B48285   8.400  17.110   9.890
 2202DOPG   D2B48286   8.670  17.160  10.070
 2202DOPG   C3B48287   8.580  17.480  10.330
 2202DOPG   C4B48288   8.860  17.790  10.520
 2203DOPG   GL048289  16.190  11.900   4.730
 2203DOPG   PO448290  15.980  12.320   4.960
 2203DOPG   GL148291  15.850  12.630   5.210
 2203DOPG   GL248292  15.860  12.890   5.130
 2203DOPG   C1A48293  15.890  12.540   5.640
 2203DOPG   D2A48294  15.780  12.790   6.010
 2203DOPG   C3A48295  15.790  12.920   6.450
 2203DOPG   C4A48296  15.740  13.380   6.540
 2203DOPG   C1B48297  15.480  13.250   5.290
 2203DOPG   D2B48298  15.110  13.400   5.470
 2203DOPG   C3B48299  14.780  13.630   5.510
 2203DOPG   C4B48300  14.830  13.970   5.780
 2204DOPG   GL048301   6.480  22.470   8.990
 2204DOPG   PO448302   6.840  22.740   9.130
 2204DOPG   GL148303   6.580  22.880   8.710
 2204DOPG   GL248304   6.750  22.820   8.430
 2204DOPG   C1A48305   6.250  23.170   8.570
 2204DOPG   D2A48306   6.290  23.380   8.250
 2204DOPG   C3A48307   6.030  23.510   8.040
 2204DOPG   C4A48308   5.700  23.760   8.250
 2204DOPG   C1B48309   6.670  23.100   8.080
 2204DOPG   D2B48310   6.580  23.370   7.740
 2204DOPG   C3B48311   6.930  23.430   7.480
 2204DOPG   C4B48312   7.110  23.710   7.210
 2205DOPG   GL048313   6.240  14.830  17.960
 2205DOPG   PO448314   6.430  14.790  17.540
 2205DOPG   GL148315   6.860  14.840  17.290
 2205DOPG   GL248316   6.990  15.000  17.580
 2205DOPG   C1A48317   7.310  14.580  17.340
 2205DOPG   D2A48318   7.800  14.570  17.260
 2205DOPG   C3A48319   8.200  14.740  17.520
 2205DOPG   C4A48320   8.180  14.840  17.940
 2205DOPG   C1B48321   7.320  15.110  17.210
 2205DOPG   D2B48322   7.650  15.310  17.080
 2205DOPG   C3B48323   7.850  15.070  17.280
 2205DOPG   C4B48324   7.690  14.910  17.530
 2206DOPG   GL048325  12.750  25.740  11.960
 2206DOPG   PO448326  12.870  25.840  12.320
 2206DOPG   GL148327  12.870  25.340  12.430
 2206DOPG   GL248328  12.830  25.060  12.710
 2206DOPG   C1A48329  13.070  24.900  12.250
 2206DOPG   D2A48330  12.990  24.460  12.200
 2206DOPG   C3A48331  12.860  24.170  11.890
 2206DOPG   C4A48332  12.370  24.150  11.940
 2206DOPG   C1B48333  12.630  24.730  12.540
 2206DOPG   D2B48334  12.510  24.300  12.440
 2206DOPG   C3B48335  12.740  23.920  12.280
 2206DOPG   C4B48336  12.660  23.560  12.320
 2207DOPG   GL048337   9.700  30.960  20.100
 2207DOPG   PO448338   9.710  30.470  19.920
 2207DOPG   GL148339   9.660  30.010  19.830
 2207DOPG   GL248340   9.410  29.830  20.040
 2207DOPG   C1A48341   9.990  29.760  19.630
 2207DOPG   D2A48342  10.230  29.400  19.710
 2207DOPG   C3A48343  10.630  29.400  19.740
 2207DOPG   C4A48344  11.060  29.410  19.890
 2207DOPG   C1B48345   9.070  29.590  20.010
 2207DOPG   D2B48346   9.090  29.100  20.160
 2207DOPG   C3B48347   9.020  28.690  19.970
 2207DOPG   C4B48348   9.070  28.270  19.980
 2208DOPG   GL048349  16.160  29.820  12.000
 2208DOPG   PO448350  16.310  29.840  11.570
 2208DOPG   GL148351  16.270  29.420  11.540
 2208DOPG   GL248352  16.520  29.190  11.730
 2208DOPG   C1A48353  16.010  29.140  11.360
 2208DOPG   D2A48354  15.890  28.750  11.510
 2208DOPG   C3A48355  15.410  28.660  11.720
 2208DOPG   C4A48356  15.210  28.430  12.120
 2208DOPG   C1B48357  16.470  28.820  11.660
 2208DOPG   D2B48358  16.590  28.480  11.870
 2208DOPG   C3B48359  16.320  28.200  12.030
 2208DOPG   C4B48360  16.000  27.940  11.890
 2209DOPG   GL048361   8.380   6.620  12.800
 2209DOPG   PO448362   8.380   6.980  12.950
 2209DOPG   GL148363   8.520   7.310  12.800
 2209DOPG   GL248364   8.230   7.590  12.930
 2209DOPG   C1A48365   8.720   7.540  12.480
 2209DOPG   D2A48366   9.010   7.250  12.180
 2209DOPG   C3A48367   9.470   7.370  12.110
 2209DOPG   C4A48368   9.860   7.420  11.890
 2209DOPG   C1B48369   8.440   7.910  12.750
 2209DOPG   D2B48370   8.430   8.300  12.780
 2209DOPG   C3B48371   8.510   8.660  12.590
 2209DOPG   C4B48372   8.430   9.060  12.520
 2210DOPG   GL048373  20.090  10.110  10.230
 2210DOPG   PO448374  19.930  10.200  10.570
 2210DOPG   GL148375  19.430  10.360  10.760
 2210DOPG   GL248376  19.390  10.620  10.630
 2210DOPG   C1A48377  19.290  10.730  11.090
 2210DOPG   D2A48378  19.030  10.890  11.380
 2210DOPG   C3A48379  18.820  11.260  11.590
 2210DOPG   C4A48380  18.760  11.640  11.660
 2210DOPG   C1B48381  19.170  11.020  10.520
 2210DOPG   D2B48382  18.740  11.050  10.330
 2210DOPG   C3B48383  18.710  11.230   9.970
 2210DOPG   C4B48384  18.950  11.120   9.530
 2211DOPG   GL048385   9.300  26.660  18.120
 2211DOPG   PO448386   9.570  27.040  18.090
 2211DOPG   GL148387   9.510  27.350  18.420
 2211DOPG   GL248388   9.710  27.590  18.700
 2211DOPG   C1A48389   9.400  27.750  18.250
 2211DOPG   D2A48390   9.410  28.090  18.180
 2211DOPG   C3A48391   9.660  28.390  18.040
 2211DOPG   C4A48392   9.870  28.760  18.040
 2211DOPG   C1B48393   9.590  28.080  18.630
 2211DOPG   D2B48394   9.470  28.460  18.460
 2211DOPG   C3B48395   9.570  28.820  18.590
 2211DOPG   C4B48396   9.700  29.260  18.680
 2212DOPG   GL048397  18.280  16.010  17.070
 2212DOPG   PO448398  18.150  16.410  16.900
 2212DOPG   GL148399  17.750  16.550  16.800
 2212DOPG   GL248400  17.650  16.700  16.800
 2212DOPG   C1A48401  17.750  16.620  16.300
 2212DOPG   D2A48402  17.800  16.580  15.810
 2212DOPG   C3A48403  17.970  16.930  15.580
 2212DOPG   C4A48404  18.090  16.940  15.160
 2212DOPG   C1B48405  17.380  16.890  16.590
 2212DOPG   D2B48406  17.210  16.910  16.260
 2212DOPG   C3B48407  17.250  16.470  16.090
 2212DOPG   C4B48408  17.320  16.080  16.160
 2213DOPG   GL048409   7.620  22.900  12.010
 2213DOPG   PO448410   7.730  23.280  11.740
 2213DOPG   GL148411   8.140  23.290  11.650
 2213DOPG   GL248412   8.100  22.930  11.580
 2213DOPG   C1A48413   8.580  23.400  11.660
 2213DOPG   D2A48414   8.920  23.450  11.700
 2213DOPG   C3A48415   9.310  23.570  11.850
 2213DOPG   C4A48416   9.610  23.670  12.000
 2213DOPG   C1B48417   8.410  22.910  11.900
 2213DOPG   D2B48418   8.590  22.530  12.170
 2213DOPG   C3B48419   8.460  22.080  12.090
 2213DOPG   C4B48420   8.340  21.890  11.660
 2214DOPG   GL048421  14.300  11.200  23.670
 2214DOPG   PO448422  14.220  11.490  23.870
 2214DOPG   GL148423  14.030  11.870  23.840
 2214DOPG   GL248424  14.120  12.240  23.800
 2214DOPG   C1A48425  13.850  11.910  23.350
 2214DOPG   D2A48426  13.530  11.880  23.080
 2214DOPG   C3A48427  13.140  12.050  22.950
 2214DOPG   C4A48428  12.820  12.140  22.760
 2214DOPG   C1B48429  13.890  12.490  23.400
 2214DOPG   D2B48430  13.980  12.720  22.960
 2214DOPG   C3B48431  14.040  12.600  22.550
 2214DOPG   C4B48432  14.250  12.680  22.230
 2215DOPG   GL048433   7.730  25.810  15.780
 2215DOPG   PO448434   7.750  25.530  16.210
 2215DOPG   GL148435   8.150  25.280  16.120
 2215DOPG   GL248436   8.330  25.040  16.270
 2215DOPG   C1A48437   8.420  25.180  15.750
 2215DOPG   D2A48438   8.510  24.940  15.340
 2215DOPG   C3A48439   8.940  24.990  15.130
 2215DOPG   C4A48440   8.930  24.850  14.820
 2215DOPG   C1B48441   8.700  24.650  16.290
 2215DOPG   D2B48442   8.780  24.270  16.150
 2215DOPG   C3B48443   9.150  24.130  16.290
 2215DOPG   C4B48444   9.310  23.810  16.590
 2216DOPG   GL048445   8.260  12.490  11.500
 2216DOPG   PO448446   8.260  12.900  11.700
 2216DOPG   GL148447   8.580  13.090  12.020
 2216DOPG   GL248448   8.900  12.960  11.850
 2216DOPG   C1A48449   8.480  13.260  12.260
 2216DOPG   D2A48450   8.570  13.650  12.480
 2216DOPG   C3A48451   8.740  14.030  12.340
 2216DOPG   C4A48452   8.840  14.370  12.450
 2216DOPG   C1B48453   9.250  13.220  11.840
 2216DOPG   D2B48454   9.420  13.530  11.740
 2216DOPG   C3B48455   9.560  13.830  11.590
 2216DOPG   C4B48456   9.990  14.020  11.460
 2217DOPG   GL048457  13.950  15.930  25.900
 2217DOPG   PO448458  14.220  15.780  25.710
 2217DOPG   GL148459  14.260  16.050  25.380
 2217DOPG   GL248460  14.030  16.410  25.490
 2217DOPG   C1A48461  14.010  16.250  24.970
 2217DOPG   D2A48462  14.150  16.640  24.820
 2217DOPG   C3A48463  14.310  16.840  24.420
 2217DOPG   C4A48464  14.390  16.490  24.130
 2217DOPG   C1B48465  13.830  16.650  25.190
 2217DOPG   D2B48466  13.630  16.670  24.810
 2217DOPG   C3B48467  13.880  16.520  24.440
 2217DOPG   C4B48468  13.860  16.400  23.970
 2218DOPG   GL048469  13.030  20.560  21.730
 2218DOPG   PO448470  12.550  20.500  21.740
 2218DOPG   GL148471  12.520  20.520  21.320
 2218DOPG   GL248472  12.590  20.860  21.120
 2218DOPG   C1A48473  12.470  20.440  20.880
 2218DOPG   D2A48474  12.390  20.550  20.400
 2218DOPG   C3A48475  12.610  20.620  20.030
 2218DOPG   C4A48476  13.000  20.930  20.070
 2218DOPG   C1B48477  12.300  20.900  20.790
 2218DOPG   D2B48478  12.160  21.000  20.410
 2218DOPG   C3B48479  11.970  20.790  20.140
 2218DOPG   C4B48480  11.700  20.520  19.960
 2219DOPG   GL048481  17.600  23.010  15.720
 2219DOPG   PO448482  17.470  23.140  16.170
 2219DOPG   GL148483  17.130  22.950  16.040
 2219DOPG   GL248484  17.080  23.010  15.720
 2219DOPG   C1A48485  16.940  22.650  16.200
 2219DOPG   D2A48486  16.620  22.460  16.470
 2219DOPG   C3A48487  16.410  22.090  16.370
 2219DOPG   C4A48488  16.000  21.990  16.370
 2219DOPG   C1B48489  16.680  23.180  15.530
 2219DOPG   D2B48490  16.340  23.170  15.840
 2219DOPG   C3B48491  16.040  22.820  15.840
 2219DOPG   C4B48492  15.840  22.580  15.580
 2220DOPG   GL048493   9.850  22.470   3.440
 2220DOPG   PO448494  10.200  22.740   3.530
 2220DOPG   GL148495  10.230  22.770   3.990
 2220DOPG   GL248496  10.500  22.910   3.990
 2220DOPG   C1A48497  10.030  22.910   4.340
 2220DOPG   D2A48498  10.020  22.970   4.790
 2220DOPG   C3A48499  10.090  23.090   5.170
 2220DOPG   C4A48500   9.900  22.940   5.510
 2220DOPG   C1B48501  10.500  23.080   4.340
 2220DOPG   D2B48502  10.670  23.030   4.720
 2220DOPG   C3B48503  10.700  22.930   5.180
 2220DOPG   C4B48504  10.590  22.680   5.650
 2221DOPG   GL048505   7.210  24.840  14.910
 2221DOPG   PO448506   7.110  24.350  14.770
 2221DOPG   GL148507   7.340  24.110  14.500
 2221DOPG   GL248508   7.230  23.720  14.570
 2221DOPG   C1A48509   7.690  23.800  14.410
 2221DOPG   D2A48510   7.880  23.440  14.400
 2221DOPG   C3A48511   8.010  23.130  14.210
 2221DOPG   C4A48512   8.130  22.830  13.980
 2221DOPG   C1B48513   7.520  23.340  14.750
 2221DOPG   D2B48514   7.840  22.990  14.700
 2221DOPG   C3B48515   8.060  22.740  14.480
 2221DOPG   C4B48516   8.370  22.580  14.330
 2222DOPG   GL048517  11.880  23.020   9.160
 2222DOPG   PO448518  12.210  22.850   8.960
 2222DOPG   GL148519  12.340  22.490   9.300
 2222DOPG   GL248520  12.610  22.190   9.260
 2222DOPG   C1A48521  12.100  22.230   9.340
 2222DOPG   D2A48522  11.950  21.870   9.610
 2222DOPG   C3A48523  11.510  21.840   9.690
 2222DOPG   C4A48524  11.090  21.750   9.620
 2222DOPG   C1B48525  12.610  22.240   9.700
 2222DOPG   D2B48526  12.600  22.600  10.080
 2222DOPG   C3B48527  12.980  22.620  10.410
 2222DOPG   C4B48528  13.380  22.780  10.640
 2223DOPG   GL048529   6.850  14.130  11.320
 2223DOPG   PO448530   7.280  14.130  11.070
 2223DOPG   GL148531   7.630  14.200  11.330
 2223DOPG   GL248532   7.920  14.160  11.180
 2223DOPG   C1A48533   7.840  14.270  11.660
 2223DOPG   D2A48534   8.160  14.600  11.800
 2223DOPG   C3A48535   8.140  14.890  12.180
 2223DOPG   C4A48536   8.140  15.340  12.200
 2223DOPG   C1B48537   8.300  14.400  11.340
 2223DOPG   D2B48538   8.640  14.650  11.570
 2223DOPG   C3B48539   8.960  14.790  11.750
 2223DOPG   C4B48540   8.990  14.900  12.160
 2224DOPG   GL048541  17.810  19.910  10.530
 2224DOPG   PO448542  17.500  19.840  10.320
 2224DOPG   GL148543  17.280  19.760  10.690
 2224DOPG   GL248544  17.490  19.580  10.920
 2224DOPG   C1A48545  16.840  19.650  10.970
 2224DOPG   D2A48546  16.500  19.400  11.160
 2224DOPG   C3A48547  16.370  19.060  10.940
 2224DOPG   C4A48548  16.310  18.790  10.630
 2224DOPG   C1B48549  17.170  19.300  11.120
 2224DOPG   D2B48550  16.920  19.340  11.430
 2224DOPG   C3B48551  16.820  19.090  11.840
 2224DOPG   C4B48552  16.530  19.050  12.170
 2225DOPG   GL048553   7.460  15.650   8.810
 2225DOPG   PO448554   7.620  15.460   8.320
 2225DOPG   GL148555   7.510  15.060   8.040
 2225DOPG   GL248556   7.820  14.960   7.930
 2225DOPG   C1A48557   7.410  14.910   7.620
 2225DOPG   D2A48558   7.400  14.740   7.360
 2225DOPG   C3A48559   7.750  14.570   7.450
 2225DOPG   C4A48560   7.770  14.150   7.370
 2225DOPG   C1B48561   8.250  14.860   7.510
 2225DOPG   D2B48562   8.440  14.800   7.120
 2225DOPG   C3B48563   7.960  14.700   7.000
 2225DOPG   C4B48564   7.540  14.510   6.940
 2226DOPG   GL048565   3.210  10.600  18.300
 2226DOPG   PO448566   2.880  10.500  18.020
 2226DOPG   GL148567   2.900  11.020  17.940
 2226DOPG   GL248568   2.610  11.240  17.950
 2226DOPG   C1A48569   3.210  11.350  18.010
 2226DOPG   D2A48570   3.360  11.520  18.290
 2226DOPG   C3A48571   3.750  11.750  18.470
 2226DOPG   C4A48572   3.990  11.940  18.750
 2226DOPG   C1B48573   2.340  11.520  17.690
 2226DOPG   D2B48574   2.270  11.940  17.560
 2226DOPG   C3B48575   2.510  12.290  17.500
 2226DOPG   C4B48576   2.760  12.700  17.310
 2227DOPG   GL048577  15.750  13.500  12.220
 2227DOPG   PO448578  16.150  13.620  12.160
 2227DOPG   GL148579  15.790  13.990  12.110
 2227DOPG   GL248580  15.780  14.130  11.800
 2227DOPG   C1A48581  15.530  14.220  12.450
 2227DOPG   D2A48582  15.190  14.450  12.570
 2227DOPG   C3A48583  14.990  14.410  12.900
 2227DOPG   C4A48584  15.090  14.060  13.290
 2227DOPG   C1B48585  15.830  14.460  12.050
 2227DOPG   D2B48586  15.540  14.780  12.290
 2227DOPG   C3B48587  15.210  15.020  12.240
 2227DOPG   C4B48588  14.780  15.060  12.460
 2228DOPG   GL048589   2.260  14.950   6.840
 2228DOPG   PO448590   2.380  14.530   7.020
 2228DOPG   GL148591   2.480  14.420   7.460
 2228DOPG   GL248592   2.920  14.420   7.540
 2228DOPG   C1A48593   2.700  14.830   7.750
 2228DOPG   D2A48594   3.000  15.160   7.940
 2228DOPG   C3A48595   2.960  15.350   8.390
 2228DOPG   C4A48596   2.600  15.520   8.630
 2228DOPG   C1B48597   2.820  14.310   7.940
 2228DOPG   D2B48598   2.550  14.430   8.300
 2228DOPG   C3B48599   2.680  14.200   8.630
 2228DOPG   C4B48600   2.640  13.760   8.650
 2229DOPG   GL048601   6.530  22.070  12.450
 2229DOPG   PO448602   6.740  22.470  12.280
 2229DOPG   GL148603   7.030  22.190  12.290
 2229DOPG   GL248604   7.020  21.880  12.450
 2229DOPG   C1A48605   7.440  22.170  12.410
 2229DOPG   D2A48606   7.670  21.780  12.330
 2229DOPG   C3A48607   8.080  21.710  12.280
 2229DOPG   C4A48608   8.570  21.560  12.150
 2229DOPG   C1B48609   7.310  21.630  12.610
 2229DOPG   D2B48610   7.360  21.220  12.540
 2229DOPG   C3B48611   7.830  21.290  12.660
 2229DOPG   C4B48612   8.130  21.240  13.070
 2230DOPG   GL048613  12.920  11.820  17.030
 2230DOPG   PO448614  12.730  12.140  17.240
 2230DOPG   GL148615  12.830  12.570  17.200
 2230DOPG   GL248616  12.780  12.810  17.510
 2230DOPG   C1A48617  13.000  12.780  16.900
 2230DOPG   D2A48618  12.920  13.000  16.570
 2230DOPG   C3A48619  13.100  13.020  16.210
 2230DOPG   C4A48620  13.010  13.260  15.850
 2230DOPG   C1B48621  12.740  13.160  17.250
 2230DOPG   D2B48622  12.400  13.420  17.100
 2230DOPG   C3B48623  12.140  13.710  17.340
 2230DOPG   C4B48624  11.730  13.820  17.480
 2231DOPG   GL048625  35.060  25.150  12.180
 2231DOPG   PO448626  35.070  24.890  11.760
 2231DOPG   GL148627  35.230  24.650  12.030
 2231DOPG   GL248628  35.510  24.440  11.790
 2231DOPG   C1A48629  35.540  24.620  12.310
 2231DOPG   D2A48630  35.900  24.890  12.400
 2231DOPG   C3A48631  36.030  24.650  12.630
 2231DOPG   C4A48632   0.100  24.750  12.910
 2231DOPG   C1B48633  35.830  24.230  11.710
 2231DOPG   D2B48634  36.260  24.110  11.770
 2231DOPG   C3B48635   0.200  23.980  12.200
 2231DOPG   C4B48636   0.580  23.810  12.440
 2232DOPG   GL048637  13.960  26.460  14.910
 2232DOPG   PO448638  13.720  26.300  14.460
 2232DOPG   GL148639  13.700  25.820  14.500
 2232DOPG   GL248640  13.460  25.680  14.330
 2232DOPG   C1A48641  13.690  25.430  14.810
 2232DOPG   D2A48642  13.500  25.220  15.160
 2232DOPG   C3A48643  13.530  25.110  15.590
 2232DOPG   C4A48644  13.490  24.780  15.780
 2232DOPG   C1B48645  13.520  25.240  14.150
 2232DOPG   D2B48646  13.730  24.900  13.860
 2232DOPG   C3B48647  13.650  24.720  13.470
 2232DOPG   C4B48648  13.620  24.440  13.070
 2233DOPG   GL048649   4.020  17.660  10.300
 2233DOPG   PO448650   3.920  17.320  10.170
 2233DOPG   GL148651   3.550  17.210  10.010
 2233DOPG   GL248652   3.270  17.020  10.080
 2233DOPG   C1A48653   3.100  17.420   9.880
 2233DOPG   D2A48654   2.750  17.400   9.740
 2233DOPG   C3A48655   2.600  17.490   9.320
 2233DOPG   C4A48656   2.450  17.660   9.080
 2233DOPG   C1B48657   2.840  17.010  10.010
 2233DOPG   D2B48658   2.580  17.260  10.290
 2233DOPG   C3B48659   2.250  17.050  10.400
 2233DOPG   C4B48660   1.870  16.980  10.110
 2234DOPG   GL048661  12.610  11.710  16.300
 2234DOPG   PO448662  12.200  11.430  16.110
 2234DOPG   GL148663  12.380  11.650  15.790
 2234DOPG   GL248664  12.160  11.800  15.610
 2234DOPG   C1A48665  12.760  11.750  15.590
 2234DOPG   D2A48666  13.070  12.060  15.640
 2234DOPG   C3A48667  12.990  12.450  15.680
 2234DOPG   C4A48668  13.050  12.900  15.480
 2234DOPG   C1B48669  12.130  12.170  15.840
 2234DOPG   D2B48670  11.950  12.490  16.160
 2234DOPG   C3B48671  11.560  12.770  15.940
 2234DOPG   C4B48672  11.610  12.990  15.550
 2235DOPG   GL048673  17.640  23.220  17.070
 2235DOPG   PO448674  17.630  23.080  16.630
 2235DOPG   GL148675  17.320  22.960  16.820
 2235DOPG   GL248676  17.210  22.820  16.570
 2235DOPG   C1A48677  16.990  22.520  16.850
 2235DOPG   D2A48678  16.940  22.170  16.820
 2235DOPG   C3A48679  16.610  21.810  16.760
 2235DOPG   C4A48680  16.110  21.810  16.800
 2235DOPG   C1B48681  16.770  23.040  16.740
 2235DOPG   D2B48682  16.380  23.330  16.880
 2235DOPG   C3B48683  15.900  23.200  16.720
 2235DOPG   C4B48684  15.500  23.090  16.810
 2236DOPG   GL048685  17.400  14.840  13.330
 2236DOPG   PO448686  17.470  15.030  13.730
 2236DOPG   GL148687  17.350  15.300  13.500
 2236DOPG   GL248688  17.160  15.320  13.350
 2236DOPG   C1A48689  17.250  15.780  13.420
 2236DOPG   D2A48690  17.010  15.990  13.310
 2236DOPG   C3A48691  16.570  16.180  13.370
 2236DOPG   C4A48692  16.360  16.580  13.520
 2236DOPG   C1B48693  16.820  15.290  13.170
 2236DOPG   D2B48694  16.460  15.070  13.350
 2236DOPG   C3B48695  16.090  15.230  13.500
 2236DOPG   C4B48696  15.680  15.310  13.440
 2237DOPG   GL048697   5.560  16.770  11.700
 2237DOPG   PO448698   5.840  16.610  11.290
 2237DOPG   GL148699   6.240  16.730  11.270
 2237DOPG   GL248700   6.560  16.850  11.080
 2237DOPG   C1A48701   6.560  16.630  11.560
 2237DOPG   D2A48702   6.610  16.410  11.930
 2237DOPG   C3A48703   6.630  16.020  12.000
 2237DOPG   C4A48704   6.610  15.880  12.480
 2237DOPG   C1B48705   6.750  17.080  11.380
 2237DOPG   D2B48706   6.990  16.980  11.730
 2237DOPG   C3B48707   6.930  17.030  12.100
 2237DOPG   C4B48708   7.180  17.260  12.410
 2238DOPG   GL048709   2.870  19.890   9.930
 2238DOPG   PO448710   2.810  20.090  10.300
 2238DOPG   GL148711   2.370  20.230  10.060
 2238DOPG   GL248712   2.510  20.490  10.130
 2238DOPG   C1A48713   2.000  20.390   9.820
 2238DOPG   D2A48714   1.880  20.680   9.550
 2238DOPG   C3A48715   1.670  20.690   9.160
 2238DOPG   C4A48716   1.440  20.590   8.830
 2238DOPG   C1B48717   2.340  20.750   9.850
 2238DOPG   D2B48718   2.190  21.060   9.610
 2238DOPG   C3B48719   1.830  21.170   9.660
 2238DOPG   C4B48720   1.550  21.520   9.640
 2239DOPG   GL048721   3.230  16.940  11.640
 2239DOPG   PO448722   2.920  16.660  11.930
 2239DOPG   GL148723   2.600  16.500  11.810
 2239DOPG   GL248724   2.590  16.220  11.770
 2239DOPG   C1A48725   2.270  16.510  11.530
 2239DOPG   D2A48726   1.820  16.310  11.490
 2239DOPG   C3A48727   1.690  16.020  11.720
 2239DOPG   C4A48728   1.270  15.750  11.560
 2239DOPG   C1B48729   2.220  16.030  11.570
 2239DOPG   D2B48730   1.890  15.740  11.310
 2239DOPG   C3B48731   1.520  15.980  11.180
 2239DOPG   C4B48732   1.190  16.210  11.130
 2240DOPG   GL048733  10.500  28.180  15.490
 2240DOPG   PO448734  10.480  27.910  15.040
 2240DOPG   GL148735  10.570  28.430  15.040
 2240DOPG   GL248736  10.310  28.580  14.730
 2240DOPG   C1A48737  10.980  28.670  14.930
 2240DOPG   D2A48738  11.300  28.990  14.810
 2240DOPG   C3A48739  11.010  29.190  14.660
 2240DOPG   C4A48740  10.730  29.450  14.600
 2240DOPG   C1B48741  10.530  28.940  14.880
 2240DOPG   D2B48742  10.840  29.160  15.130
 2240DOPG   C3B48743  11.100  29.530  14.940
 2240DOPG   C4B48744  11.290  29.930  15.020
 2241DOPG   GL048745  17.690  18.460  10.990
 2241DOPG   PO448746  17.660  17.990  11.130
 2241DOPG   GL148747  17.310  17.670  11.240
 2241DOPG   GL248748  17.490  17.550  11.450
 2241DOPG   C1A48749  16.910  17.500  11.220
 2241DOPG   D2A48750  16.520  17.380  11.390
 2241DOPG   C3A48751  16.420  17.590  11.810
 2241DOPG   C4A48752  16.670  17.450  12.170
 2241DOPG   C1B48753  17.570  17.360  11.810
 2241DOPG   D2B48754  17.580  16.920  11.880
 2241DOPG   C3B48755  17.600  16.620  12.330
 2241DOPG   C4B48756  17.550  16.200  12.530
 2242DOPG   GL048757   6.900   7.100  15.100
 2242DOPG   PO448758   6.620   7.390  15.310
 2242DOPG   GL148759   6.750   7.820  15.440
 2242DOPG   GL248760   6.580   7.890  15.630
 2242DOPG   C1A48761   7.080   8.130  15.310
 2242DOPG   D2A48762   7.430   8.380  15.220
 2242DOPG   C3A48763   7.470   8.630  14.890
 2242DOPG   C4A48764   7.460   9.010  14.820
 2242DOPG   C1B48765   6.770   8.280  15.760
 2242DOPG   D2B48766   6.980   8.620  15.640
 2242DOPG   C3B48767   7.420   8.480  15.830
 2242DOPG   C4B48768   7.840   8.260  16.020
 2243DOPG   GL048769  18.120  21.280  17.290
 2243DOPG   PO448770  18.300  21.460  17.020
 2243DOPG   GL148771  18.010  21.690  16.870
 2243DOPG   GL248772  17.810  21.750  17.210
 2243DOPG   C1A48773  17.640  21.690  16.640
 2243DOPG   D2A48774  17.210  21.880  16.460
 2243DOPG   C3A48775  16.790  21.640  16.310
 2243DOPG   C4A48776  16.340  21.590  16.370
 2243DOPG   C1B48777  17.690  21.370  17.130
 2243DOPG   D2B48778  17.670  20.980  17.160
 2243DOPG   C3B48779  17.600  20.750  16.780
 2243DOPG   C4B48780  17.560  20.760  16.340
 2244DOPG   GL048781   6.380  13.850   9.660
 2244DOPG   PO448782   6.000  13.660   9.870
 2244DOPG   GL148783   6.100  13.580   9.340
 2244DOPG   GL248784   5.990  13.830   9.170
 2244DOPG   C1A48785   6.130  13.240   8.930
 2244DOPG   D2A48786   5.940  13.070   8.620
 2244DOPG   C3A48787   5.910  12.610   8.650
 2244DOPG   C4A48788   5.730  12.180   8.670
 2244DOPG   C1B48789   5.740  13.810   8.760
 2244DOPG   D2B48790   5.420  13.490   8.730
 2244DOPG   C3B48791   5.600  13.170   8.970
 2244DOPG   C4B48792   5.860  12.880   9.170
 2245DOPG   GL048793  14.120  15.590   8.090
 2245DOPG   PO448794  13.580  15.590   8.150
 2245DOPG   GL148795  13.460  15.890   8.510
 2245DOPG   GL248796  13.710  16.100   8.710
 2245DOPG   C1A48797  13.230  16.160   8.850
 2245DOPG   D2A48798  13.410  16.260   9.280
 2245DOPG   C3A48799  13.780  16.220   9.370
 2245DOPG   C4A48800  14.160  16.290   9.060
 2245DOPG   C1B48801  13.690  15.890   8.980
 2245DOPG   D2B48802  13.380  15.780   9.440
 2245DOPG   C3B48803  13.380  16.010   9.810
 2245DOPG   C4B48804  13.170  16.250  10.150
 2246DOPG   GL048805  17.580  22.510  11.970
 2246DOPG   PO448806  17.690  22.360  12.310
 2246DOPG   GL148807  17.390  22.080  12.240
 2246DOPG   GL248808  17.190  22.230  12.480
 2246DOPG   C1A48809  17.000  21.830  11.990
 2246DOPG   D2A48810  16.800  21.430  12.040
 2246DOPG   C3A48811  16.800  21.240  12.440
 2246DOPG   C4A48812  16.480  21.080  12.710
 2246DOPG   C1B48813  16.880  22.510  12.810
 2246DOPG   D2B48814  16.930  22.860  13.110
 2246DOPG   C3B48815  16.990  22.940  13.570
 2246DOPG   C4B48816  16.700  22.920  13.940
 2247DOPG   GL048817  15.020  18.690  20.800
 2247DOPG   PO448818  15.220  18.450  20.410
 2247DOPG   GL148819  15.120  18.510  19.920
 2247DOPG   GL248820  15.080  18.180  19.760
 2247DOPG   C1A48821  15.020  18.740  19.500
 2247DOPG   D2A48822  14.950  18.590  19.120
 2247DOPG   C3A48823  14.650  18.640  18.820
 2247DOPG   C4A48824  14.580  18.450  18.530
 2247DOPG   C1B48825  14.950  17.850  19.480
 2247DOPG   D2B48826  14.700  17.450  19.260
 2247DOPG   C3B48827  14.210  17.480  19.280
 2247DOPG   C4B48828  13.820  17.440  19.390
 2248DOPG   GL048829   5.980  23.430  15.740
 2248DOPG   PO448830   5.980  23.240  16.090
 2248DOPG   GL148831   6.320  23.010  15.970
 2248DOPG   GL248832   6.470  22.940  16.220
 2248DOPG   C1A48833   6.400  22.510  15.800
 2248DOPG   D2A48834   6.210  22.060  15.930
 2248DOPG   C3A48835   6.340  21.650  16.230
 2248DOPG   C4A48836   6.290  21.170  16.190
 2248DOPG   C1B48837   6.770  22.840  16.450
 2248DOPG   D2B48838   7.220  22.730  16.410
 2248DOPG   C3B48839   7.300  22.360  16.700
 2248DOPG   C4B48840   7.700  22.300  17.030
 2249DOPG   GL048841   8.350  11.870  15.850
 2249DOPG   PO448842   8.210  11.970  15.450
 2249DOPG   GL148843   8.670  12.220  15.600
 2249DOPG   GL248844   8.850  12.160  15.320
 2249DOPG   C1A48845   8.620  12.680  15.530
 2249DOPG   D2A48846   8.450  12.910  15.320
 2249DOPG   C3A48847   8.130  13.070  14.980
 2249DOPG   C4A48848   8.030  13.420  14.720
 2249DOPG   C1B48849   9.150  12.420  15.330
 2249DOPG   D2B48850   9.360  12.670  15.730
 2249DOPG   C3B48851   9.650  13.030  15.740
 2249DOPG   C4B48852   9.590  13.230  15.430
 2250DOPG   GL048853  10.250  15.450   9.110
 2250DOPG   PO448854  10.600  15.250   9.140
 2250DOPG   GL148855  10.500  15.060   9.490
 2250DOPG   GL248856  10.270  14.950   9.570
 2250DOPG   C1A48857  10.490  15.310   9.880
 2250DOPG   D2A48858  10.470  15.680  10.150
 2250DOPG   C3A48859  10.860  16.000  10.310
 2250DOPG   C4A48860  11.310  16.150  10.380
 2250DOPG   C1B48861   9.840  15.100   9.820
 2250DOPG   D2B48862   9.620  15.230  10.140
 2250DOPG   C3B48863   9.730  15.460  10.520
 2250DOPG   C4B48864   9.480  15.700  10.800
 2251DOPG   GL048865  18.220  18.320  16.590
 2251DOPG   PO448866  18.280  18.010  16.290
 2251DOPG   GL148867  17.930  17.900  16.590
 2251DOPG   GL248868  17.870  17.690  16.330
 2251DOPG   C1A48869  17.430  17.830  16.600
 2251DOPG   D2A48870  17.090  17.980  16.760
 2251DOPG   C3A48871  16.710  17.840  16.550
 2251DOPG   C4A48872  16.300  17.660  16.570
 2251DOPG   C1B48873  17.460  17.710  16.060
 2251DOPG   D2B48874  17.140  17.680  15.640
 2251DOPG   C3B48875  16.880  17.980  15.550
 2251DOPG   C4B48876  16.580  18.200  15.620
 2252DOPG   GL048877  12.960  21.920   7.860
 2252DOPG   PO448878  12.860  21.940   8.260
 2252DOPG   GL148879  12.600  21.920   8.700
 2252DOPG   GL248880  12.420  21.730   8.960
 2252DOPG   C1A48881  12.890  21.870   9.080
 2252DOPG   D2A48882  13.190  21.560   9.140
 2252DOPG   C3A48883  13.510  21.730   8.930
 2252DOPG   C4A48884  13.840  21.510   8.860
 2252DOPG   C1B48885  12.400  21.660   9.390
 2252DOPG   D2B48886  12.340  21.670   9.860
 2252DOPG   C3B48887  11.870  21.680  10.070
 2252DOPG   C4B48888  11.450  21.750  10.270
 2253DOPG   GL048889  11.390  20.730   7.260
 2253DOPG   PO448890  11.600  20.520   7.540
 2253DOPG   GL148891  11.730  20.520   7.980
 2253DOPG   GL248892  11.430  20.520   8.230
 2253DOPG   C1A48893  11.970  20.460   8.350
 2253DOPG   D2A48894  12.360  20.260   8.510
 2253DOPG   C3A48895  12.380  20.010   8.820
 2253DOPG   C4A48896  12.270  19.880   9.090
 2253DOPG   C1B48897  11.550  20.320   8.640
 2253DOPG   D2B48898  11.940  20.180   8.860
 2253DOPG   C3B48899  11.760  20.010   9.240
 2253DOPG   C4B48900  11.540  19.770   9.670
 2254DOPG   GL048901   6.370  26.250  18.240
 2254DOPG   PO448902   6.300  26.530  18.530
 2254DOPG   GL148903   5.960  26.750  18.770
 2254DOPG   GL248904   5.740  26.690  18.880
 2254DOPG   C1A48905   5.980  27.180  19.000
 2254DOPG   D2A48906   6.230  27.510  19.190
 2254DOPG   C3A48907   6.480  27.830  18.980
 2254DOPG   C4A48908   6.660  27.790  18.580
 2254DOPG   C1B48909   5.680  26.870  19.310
 2254DOPG   D2B48910   5.610  27.350  19.220
 2254DOPG   C3B48911   5.820  27.490  19.470
 2254DOPG   C4B48912   5.760  27.750  19.740
 2255DOPG   GL048913  16.630  24.460  15.020
 2255DOPG   PO448914  16.690  24.040  15.130
 2255DOPG   GL148915  16.310  23.760  14.950
 2255DOPG   GL248916  16.560  23.610  14.740
 2255DOPG   C1A48917  15.980  23.430  15.030
 2255DOPG   D2A48918  15.830  23.050  15.250
 2255DOPG   C3A48919  15.450  22.940  15.380
 2255DOPG   C4A48920  15.030  22.830  15.680
 2255DOPG   C1B48921  16.450  23.750  14.350
 2255DOPG   D2B48922  16.090  23.790  13.950
 2255DOPG   C3B48923  15.760  23.520  14.050
 2255DOPG   C4B48924  15.630  23.030  14.070
 2256DOPG   GL048925  10.530  14.730  19.870
 2256DOPG   PO448926  10.410  14.370  19.530
 2256DOPG   GL148927  10.580  14.650  19.360
 2256DOPG   GL248928  10.810  14.580  19.110
 2256DOPG   C1A48929  10.650  15.010  19.380
 2256DOPG   D2A48930  10.510  15.310  19.170
 2256DOPG   C3A48931  10.130  15.310  19.270
 2256DOPG   C4A48932   9.680  15.360  19.180
 2256DOPG   C1B48933  10.700  14.930  18.920
 2256DOPG   D2B48934  10.360  15.040  18.750
 2256DOPG   C3B48935  10.370  14.890  18.390
 2256DOPG   C4B48936  10.670  14.760  18.250
 2257DOPG   GL048937   3.270  21.850  18.990
 2257DOPG   PO448938   2.960  22.100  18.940
 2257DOPG   GL148939   2.490  22.080  19.050
 2257DOPG   GL248940   2.240  22.110  18.780
 2257DOPG   C1A48941   2.280  22.330  19.230
 2257DOPG   D2A48942   1.970  22.530  19.350
 2257DOPG   C3A48943   1.520  22.520  19.550
 2257DOPG   C4A48944   1.160  22.770  19.430
 2257DOPG   C1B48945   1.830  22.100  18.870
 2257DOPG   D2B48946   1.330  22.080  18.890
 2257DOPG   C3B48947   1.110  22.160  19.220
 2257DOPG   C4B48948   0.890  22.310  19.540
 2258DOPG   GL048949  18.570  21.960  18.010
 2258DOPG   PO448950  18.590  21.920  17.580
 2258DOPG   GL148951  18.980  22.020  17.530
 2258DOPG   GL248952  19.080  22.310  17.550
 2258DOPG   C1A48953  19.380  21.950  17.530
 2258DOPG   D2A48954  19.810  21.980  17.610
 2258DOPG   C3A48955  20.160  21.660  17.590
 2258DOPG   C4A48956  20.540  21.490  17.720
 2258DOPG   C1B48957  19.400  22.460  17.460
 2258DOPG   D2B48958  19.650  22.720  17.580
 2258DOPG   C3B48959  20.010  22.500  17.560
 2258DOPG   C4B48960  20.290  22.360  17.900
 2259DOPG   GL048961   2.730  10.000  16.000
 2259DOPG   PO448962   2.740  10.490  16.190
 2259DOPG   GL148963   2.770  10.850  15.930
 2259DOPG   GL248964   2.760  10.770  15.570
 2259DOPG   C1A48965   3.000  11.210  16.150
 2259DOPG   D2A48966   3.450  11.240  16.170
 2259DOPG   C3A48967   3.600  11.660  16.290
 2259DOPG   C4A48968   3.640  11.790  16.750
 2259DOPG   C1B48969   2.870  11.200  15.390
 2259DOPG   D2B48970   3.300  11.410  15.280
 2259DOPG   C3B48971   3.270  11.880  15.380
 2259DOPG   C4B48972   3.090  12.300  15.180
 2260DOPG   GL048973  14.500  20.210  20.920
 2260DOPG   PO448974  14.190  19.770  21.090
 2260DOPG   GL148975  14.010  19.590  20.640
 2260DOPG   GL248976  13.790  19.350  20.580
 2260DOPG   C1A48977  13.670  19.820  20.490
 2260DOPG   D2A48978  13.380  19.910  20.070
 2260DOPG   C3A48979  13.470  19.620  19.610
 2260DOPG   C4A48980  13.550  19.660  19.180
 2260DOPG   C1B48981  14.000  19.120  20.210
 2260DOPG   D2B48982  14.210  19.260  19.940
 2260DOPG   C3B48983  14.060  19.000  19.650
 2260DOPG   C4B48984  13.890  18.580  19.490
 2261DOPG   GL048985   6.400  11.340   6.030
 2261DOPG   PO448986   6.380  11.870   6.060
 2261DOPG   GL148987   6.600  12.100   6.270
 2261DOPG   GL248988   6.910  11.980   6.340
 2261DOPG   C1A48989   6.710  12.450   6.420
 2261DOPG   D2A48990   6.970  12.780   6.520
 2261DOPG   C3A48991   7.170  12.620   6.830
 2261DOPG   C4A48992   7.260  12.750   7.280
 2261DOPG   C1B48993   6.900  12.090   6.820
 2261DOPG   D2B48994   6.800  12.260   7.270
 2261DOPG   C3B48995   6.940  12.490   7.500
 2261DOPG   C4B48996   7.190  12.650   7.810
 2262DOPG   GL048997   6.980  22.360  19.500
 2262DOPG   PO448998   7.340  22.540  19.710
 2262DOPG   GL148999   7.460  22.160  19.440
 2262DOPG   GL249000   7.870  22.120  19.440
 2262DOPG   C1A49001   7.490  22.180  19.090
 2262DOPG   D2A49002   7.650  22.350  18.650
 2262DOPG   C3A49003   7.950  22.620  18.600
 2262DOPG   C4A49004   8.320  22.420  18.540
 2262DOPG   C1B49005   7.930  22.000  18.980
 2262DOPG   D2B49006   8.340  21.990  18.660
 2262DOPG   C3B49007   8.340  21.760  18.320
 2262DOPG   C4B49008   8.060  21.380  18.110
 2263DOPG   GL049009   8.960  21.660  20.890
 2263DOPG   PO449010   9.170  21.880  21.130
 2263DOPG   GL149011   9.470  21.750  20.810
 2263DOPG   GL249012   9.600  21.350  20.940
 2263DOPG   C1A49013   9.730  21.610  20.450
 2263DOPG   D2A49014  10.000  21.520  20.110
 2263DOPG   C3A49015  10.230  21.140  20.100
 2263DOPG   C4A49016  10.430  21.030  19.710
 2263DOPG   C1B49017   9.280  21.330  20.590
 2263DOPG   D2B49018   9.280  21.550  20.220
 2263DOPG   C3B49019   9.590  21.420  19.870
 2263DOPG   C4B49020   9.750  21.020  19.730
 2264DOPG   GL049021   3.830  24.490  18.620
 2264DOPG   PO449022   3.890  24.790  18.890
 2264DOPG   GL149023   3.570  25.090  19.050
 2264DOPG   GL249024   3.470  25.340  18.870
 2264DOPG   C1A49025   3.200  25.140  19.290
 2264DOPG   D2A49026   3.000  25.350  19.670
 2264DOPG   C3A49027   2.580  25.120  19.850
 2264DOPG   C4A49028   2.270  25.020  20.160
 2264DOPG   C1B49029   3.130  25.570  18.990
 2264DOPG   D2B49030   2.750  25.690  19.210
 2264DOPG   C3B49031   2.870  25.910  19.560
 2264DOPG   C4B49032   2.790  25.910  20.040
 2265DOPG   GL049033  12.980  24.290   9.800
 2265DOPG   PO449034  12.810  23.970  10.020
 2265DOPG   GL149035  12.680  23.630  10.270
 2265DOPG   GL249036  12.780  23.340  10.400
 2265DOPG   C1A49037  12.290  23.480  10.250
 2265DOPG   D2A49038  11.990  23.300  10.410
 2265DOPG   C3A49039  11.870  23.380  10.830
 2265DOPG   C4A49040  12.090  23.480  11.180
 2265DOPG   C1B49041  13.100  23.250  10.620
 2265DOPG   D2B49042  13.110  23.040  11.110
 2265DOPG   C3B49043  13.030  23.190  11.470
 2265DOPG   C4B49044  12.910  23.350  11.800
 2266DOPG   GL049045   9.380  17.670  22.290
 2266DOPG   PO449046   9.540  17.250  22.540
 2266DOPG   GL149047   9.560  17.070  22.920
 2266DOPG   GL249048   9.750  16.820  22.730
 2266DOPG   C1A49049   9.410  16.970  23.330
 2266DOPG   D2A49050   9.130  17.160  23.510
 2266DOPG   C3A49051   9.120  17.200  24.010
 2266DOPG   C4A49052   8.890  17.220  24.400
 2266DOPG   C1B49053   9.780  16.610  23.210
 2266DOPG   D2B49054   9.470  16.340  23.410
 2266DOPG   C3B49055   9.730  15.960  23.560
 2266DOPG   C4B49056   9.920  15.820  23.900
 2267DOPG   GL049057  16.670  23.760  12.210
 2267DOPG   PO449058  16.630  23.460  12.540
 2267DOPG   GL149059  16.180  23.310  12.660
 2267DOPG   GL249060  16.080  23.340  12.370
 2267DOPG   C1A49061  16.010  23.050  13.020
 2267DOPG   D2A49062  15.610  22.960  13.250
 2267DOPG   C3A49063  15.340  22.640  13.150
 2267DOPG   C4A49064  15.270  22.360  12.780
 2267DOPG   C1B49065  15.700  23.560  12.230
 2267DOPG   D2B49066  15.360  23.730  12.520
 2267DOPG   C3B49067  15.070  23.370  12.730
 2267DOPG   C4B49068  15.110  23.090  13.130
 2268DOPG   GL049069  17.100  13.600  15.650
 2268DOPG   PO449070  16.660  13.810  15.520
 2268DOPG   GL149071  16.290  14.080  15.490
 2268DOPG   GL249072  16.500  14.360  15.560
 2268DOPG   C1A49073  16.350  14.380  15.060
 2268DOPG   D2A49074  16.250  14.110  14.730
 2268DOPG   C3A49075  15.880  14.310  14.570
 2268DOPG   C4A49076  15.520  14.630  14.660
 2268DOPG   C1B49077  16.070  14.570  15.570
 2268DOPG   D2B49078  15.760  14.900  15.480
 2268DOPG   C3B49079  15.550  14.980  15.050
 2268DOPG   C4B49080  15.480  15.140  14.700
 2269DOPG   GL049081  16.750  15.850  16.820
 2269DOPG   PO449082  16.780  15.870  17.250
 2269DOPG   GL149083  16.520  16.120  17.190
 2269DOPG   GL249084  16.480  16.350  17.290
 2269DOPG   C1A49085  16.060  16.110  17.150
 2269DOPG   D2A49086  15.640  15.920  17.190
 2269DOPG   C3A49087  15.180  16.110  17.370
 2269DOPG   C4A49088  14.810  15.980  17.410
 2269DOPG   C1B49089  16.200  16.620  17.390
 2269DOPG   D2B49090  15.840  16.830  17.190
 2269DOPG   C3B49091  15.590  17.120  17.250
 2269DOPG   C4B49092  15.320  17.490  17.230
 2270DOPG   GL049093  17.910  22.220  15.140
 2270DOPG   PO449094  17.920  22.550  14.870
 2270DOPG   GL149095  17.530  22.620  14.870
 2270DOPG   GL249096  17.410  22.440  14.610
 2270DOPG   C1A49097  17.070  22.330  14.890
 2270DOPG   D2A49098  16.770  22.270  15.120
 2270DOPG   C3A49099  16.340  22.110  14.960
 2270DOPG   C4A49100  16.180  22.420  14.590
 2270DOPG   C1B49101  17.070  22.270  14.270
 2270DOPG   D2B49102  16.710  21.950  14.180
 2270DOPG   C3B49103  16.280  22.080  14.190
 2270DOPG   C4B49104  15.810  22.100  14.290
 2271DOPG   GL049105   9.590  11.370  16.930
 2271DOPG   PO449106   9.850  11.350  17.240
 2271DOPG   GL149107   9.780  10.960  17.460
 2271DOPG   GL249108   9.880  10.790  17.720
 2271DOPG   C1A49109   9.520  10.510  17.570
 2271DOPG   D2A49110   9.470  10.150  17.320
 2271DOPG   C3A49111   9.300   9.760  17.450
 2271DOPG   C4A49112   9.280   9.600  17.880
 2271DOPG   C1B49113   9.850  10.470  18.160
 2271DOPG   D2B49114   9.650  10.140  18.080
 2271DOPG   C3B49115   9.750   9.880  17.700
 2271DOPG   C4B49116   9.740   9.410  17.590
 2272DOPG   GL049117  14.650  16.080   9.000
 2272DOPG   PO449118  14.860  15.800   9.200
 2272DOPG   GL149119  14.730  15.860   9.560
 2272DOPG   GL249120  14.540  15.600   9.740
 2272DOPG   C1A49121  14.910  15.700  10.020
 2272DOPG   D2A49122  14.930  15.990  10.330
 2272DOPG   C3A49123  14.600  16.000  10.540
 2272DOPG   C4A49124  14.260  15.950  10.460
 2272DOPG   C1B49125  14.490  15.960   9.960
 2272DOPG   D2B49126  14.440  16.350  10.150
 2272DOPG   C3B49127  14.150  16.460  10.310
 2272DOPG   C4B49128  14.010  16.710  10.720
 2273DOPG   GL049129   1.830  18.820  24.090
 2273DOPG   PO449130   2.180  18.840  23.810
 2273DOPG   GL149131   2.520  18.880  23.450
 2273DOPG   GL249132   2.590  19.140  23.260
 2273DOPG   C1A49133   2.930  18.740  23.340
 2273DOPG   D2A49134   3.260  18.960  23.050
 2273DOPG   C3A49135   3.240  19.340  22.730
 2273DOPG   C4A49136   3.390  19.680  22.480
 2273DOPG   C1B49137   2.350  19.070  22.870
 2273DOPG   D2B49138   2.620  19.210  22.540
 2273DOPG   C3B49139   2.890  19.580  22.550
 2273DOPG   C4B49140   2.710  19.960  22.880
 2274DOPG   GL049141   6.280  12.130  12.900
 2274DOPG   PO449142   6.490  11.990  12.570
 2274DOPG   GL149143   6.240  11.750  12.340
 2274DOPG   GL249144   6.190  11.570  12.060
 2274DOPG   C1A49145   5.920  11.470  12.450
 2274DOPG   D2A49146   5.670  11.130  12.280
 2274DOPG   C3A49147   5.730  10.700  12.110
 2274DOPG   C4A49148   5.740  10.440  11.770
 2274DOPG   C1B49149   5.940  11.230  11.760
 2274DOPG   D2B49150   5.760  10.870  11.570
 2274DOPG   C3B49151   5.610  10.620  11.260
 2274DOPG   C4B49152   5.710  10.260  11.300
 2275DOPG   GL049153   7.620  16.180  19.940
 2275DOPG   PO449154   7.600  16.540  20.180
 2275DOPG   GL149155   8.100  16.630  20.250
 2275DOPG   GL249156   8.190  16.440  20.010
 2275DOPG   C1A49157   8.300  16.950  19.940
 2275DOPG   D2A49158   8.380  17.320  19.700
 2275DOPG   C3A49159   8.610  17.430  19.270
 2275DOPG   C4A49160   8.940  17.470  18.950
 2275DOPG   C1B49161   8.300  16.610  19.470
 2275DOPG   D2B49162   8.280  16.880  19.440
 2275DOPG   C3B49163   7.890  16.990  19.350
 2275DOPG   C4B49164   7.630  16.860  19.040
 2276DOPG   GL049165  17.450  14.740  15.600
 2276DOPG   PO449166  17.400  15.160  15.320
 2276DOPG   GL149167  16.990  15.250  15.100
 2276DOPG   GL249168  16.820  15.000  14.910
 2276DOPG   C1A49169  16.770  15.600  14.830
 2276DOPG   D2A49170  16.560  15.870  14.580
 2276DOPG   C3A49171  16.280  16.170  14.820
 2276DOPG   C4A49172  16.040  16.330  15.050
 2276DOPG   C1B49173  16.480  15.230  15.090
 2276DOPG   D2B49174  16.210  15.670  14.940
 2276DOPG   C3B49175  15.970  15.840  15.250
 2276DOPG   C4B49176  15.640  15.760  15.440
 2277DOPG   GL049177  15.600  21.170   8.210
 2277DOPG   PO449178  15.810  21.180   7.850
 2277DOPG   GL149179  16.160  21.410   7.710
 2277DOPG   GL249180  16.340  21.200   7.570
 2277DOPG   C1A49181  16.370  21.670   7.390
 2277DOPG   D2A49182  16.180  22.060   7.130
 2277DOPG   C3A49183  16.630  22.160   6.900
 2277DOPG   C4A49184  16.880  22.020   6.610
 2277DOPG   C1B49185  16.640  21.250   7.170
 2277DOPG   D2B49186  16.640  21.490   6.760
 2277DOPG   C3B49187  16.460  21.770   6.490
 2277DOPG   C4B49188  16.510  21.650   6.140
 2278DOPG   GL049189  15.740  19.300  20.180
 2278DOPG   PO449190  15.560  19.730  20.050
 2278DOPG   GL149191  15.370  20.020  19.750
 2278DOPG   GL249192  15.620  20.190  19.590
 2278DOPG   C1A49193  14.960  20.150  19.480
 2278DOPG   D2A49194  14.960  20.130  19.040
 2278DOPG   C3A49195  14.530  20.270  18.810
 2278DOPG   C4A49196  14.240  20.470  19.010
 2278DOPG   C1B49197  15.480  20.150  19.220
 2278DOPG   D2B49198  15.530  19.850  18.920
 2278DOPG   C3B49199  15.170  19.610  18.890
 2278DOPG   C4B49200  14.810  19.690  19.180
 2279DOPG   GL049201   5.920  19.260  19.450
 2279DOPG   PO449202   6.280  19.550  19.310
 2279DOPG   GL149203   6.710  19.450  19.190
 2279DOPG   GL249204   6.860  19.220  19.340
 2279DOPG   C1A49205   7.210  19.340  19.020
 2279DOPG   D2A49206   7.670  19.360  18.890
 2279DOPG   C3A49207   8.030  19.170  19.190
 2279DOPG   C4A49208   8.260  19.220  19.580
 2279DOPG   C1B49209   7.130  18.830  19.060
 2279DOPG   D2B49210   7.400  18.960  18.750
 2279DOPG   C3B49211   7.850  18.890  18.770
 2279DOPG   C4B49212   8.090  19.170  18.680
 2280DOPG   GL049213  15.660  15.550  19.890
 2280DOPG   PO449214  15.730  15.760  19.440
 2280DOPG   GL149215  15.490  15.680  19.080
 2280DOPG   GL249216  15.250  15.480  19.230
 2280DOPG   C1A49217  15.280  15.800  18.770
 2280DOPG   D2A49218  15.100  15.900  18.300
 2280DOPG   C3A49219  14.790  16.200  18.240
 2280DOPG   C4A49220  14.720  16.640  18.150
 2280DOPG   C1B49221  15.040  15.820  19.240
 2280DOPG   D2B49222  14.710  15.990  19.370
 2280DOPG   C3B49223  14.410  16.100  19.060
 2280DOPG   C4B49224  14.200  16.320  18.760
 2281DOPG   GL049225  12.860  23.070   8.920
 2281DOPG   PO449226  12.660  23.230   9.270
 2281DOPG   GL149227  12.810  23.020   9.630
 2281DOPG   GL249228  12.600  23.060   9.850
 2281DOPG   C1A49229  13.050  22.600   9.800
 2281DOPG   D2A49230  13.030  22.190  10.010
 2281DOPG   C3A49231  13.340  22.250  10.420
 2281DOPG   C4A49232  13.350  22.340  10.820
 2281DOPG   C1B49233  12.430  23.000  10.280
 2281DOPG   D2B49234  12.330  22.620  10.550
 2281DOPG   C3B49235  12.480  22.190  10.470
 2281DOPG   C4B49236  12.840  22.110  10.490
 2282DOPG   GL049237  10.170   6.270  15.280
 2282DOPG   PO449238  10.500   6.420  15.550
 2282DOPG   GL149239  10.600   6.920  15.440
 2282DOPG   GL249240  10.930   7.040  15.570
 2282DOPG   C1A49241  10.700   7.270  15.210
 2282DOPG   D2A49242  10.550   7.600  15.180
 2282DOPG   C3A49243  10.130   7.610  15.170
 2282DOPG   C4A49244   9.920   7.910  14.980
 2282DOPG   C1B49245  10.850   7.530  15.610
 2282DOPG   D2B49246  10.760   8.010  15.540
 2282DOPG   C3B49247  10.370   8.030  15.270
 2282DOPG   C4B49248  10.310   8.240  14.900
 2283DOPG   GL049249  17.940  15.540  16.610
 2283DOPG   PO449250  17.600  15.560  16.680
 2283DOPG   GL149251  17.210  15.860  16.570
 2283DOPG   GL249252  17.330  16.300  16.560
 2283DOPG   C1A49253  16.870  16.120  16.410
 2283DOPG   D2A49254  16.690  16.250  16.040
 2283DOPG   C3A49255  16.400  16.440  15.840
 2283DOPG   C4A49256  16.280  16.160  15.480
 2283DOPG   C1B49257  16.850  16.610  16.320
 2283DOPG   D2B49258  16.370  16.750  16.260
 2283DOPG   C3B49259  16.240  16.280  16.400
 2283DOPG   C4B49260  16.350  16.030  16.670
 2284DOPG   GL049261  17.840  16.340  17.320
 2284DOPG   PO449262  17.430  16.420  17.160
 2284DOPG   GL149263  17.100  16.610  16.860
 2284DOPG   GL249264  17.070  16.860  17.050
 2284DOPG   C1A49265  16.720  16.510  16.770
 2284DOPG   D2A49266  16.260  16.590  16.820
 2284DOPG   C3A49267  15.950  16.820  16.640
 2284DOPG   C4A49268  16.060  17.110  16.470
 2284DOPG   C1B49269  16.840  17.040  16.640
 2284DOPG   D2B49270  16.630  17.290  16.410
 2284DOPG   C3B49271  16.180  17.480  16.160
 2284DOPG   C4B49272  16.090  17.190  15.810
 2285DOPG   GL049273  16.120  15.200  18.030
 2285DOPG   PO449274  16.480  15.430  18.220
 2285DOPG   GL149275  16.000  15.380  18.450
 2285DOPG   GL249276  15.710  15.320  18.300
 2285DOPG   C1A49277  15.800  15.720  18.580
 2285DOPG   D2A49278  15.590  15.890  18.280
 2285DOPG   C3A49279  15.420  15.590  17.980
 2285DOPG   C4A49280  15.120  15.770  17.780
 2285DOPG   C1B49281  15.190  15.410  18.370
 2285DOPG   D2B49282  14.800  15.570  18.650
 2285DOPG   C3B49283  14.830  16.040  18.780
 2285DOPG   C4B49284  14.960  16.290  19.090
 2286DOPG   GL049285   2.980  16.690  16.740
 2286DOPG   PO449286   2.800  16.330  16.610
 2286DOPG   GL149287   2.480  16.290  16.890
 2286DOPG   GL249288   2.220  16.150  16.710
 2286DOPG   C1A49289   2.510  16.420  17.400
 2286DOPG   D2A49290   2.480  16.240  17.830
 2286DOPG   C3A49291   2.030  16.230  17.870
 2286DOPG   C4A49292   1.570  16.280  17.690
 2286DOPG   C1B49293   1.880  16.130  16.950
 2286DOPG   D2B49294   1.500  15.930  16.960
 2286DOPG   C3B49295   1.030  16.120  16.880
 2286DOPG   C4B49296   0.480  16.150  16.800
 2287DOPG   GL049297  15.190  25.400  12.860
 2287DOPG   PO449298  15.330  25.210  13.220
 2287DOPG   GL149299  14.960  25.050  13.110
 2287DOPG   GL249300  14.860  24.940  13.390
 2287DOPG   C1A49301  14.890  24.710  12.830
 2287DOPG   D2A49302  14.710  24.360  12.760
 2287DOPG   C3A49303  14.270  24.270  13.010
 2287DOPG   C4A49304  14.070  24.650  13.170
 2287DOPG   C1B49305  15.010  24.530  13.320
 2287DOPG   D2B49306  14.750  24.110  13.180
 2287DOPG   C3B49307  14.430  24.000  13.430
 2287DOPG   C4B49308  14.180  24.040  13.750
 2288DOPG   GL049309   8.720  20.450  22.880
 2288DOPG   PO449310   9.000  20.290  22.970
 2288DOPG   GL149311   8.920  20.330  23.400
 2288DOPG   GL249312   9.180  20.450  23.530
 2288DOPG   C1A49313   8.730  20.450  23.720
 2288DOPG   D2A49314   8.560  20.490  24.060
 2288DOPG   C3A49315   8.690  20.630  24.500
 2288DOPG   C4A49316   8.730  20.830  24.970
 2288DOPG   C1B49317   9.190  20.550  23.970
 2288DOPG   D2B49318   9.010  20.360  24.240
 2288DOPG   C3B49319   9.280  20.450  24.540
 2288DOPG   C4B49320   9.280  20.450  24.960
 2289DOPG   GL049321  18.700  20.370  16.510
 2289DOPG   PO449322  18.310  20.150  16.410
 2289DOPG   GL149323  17.870  20.280  16.330
 2289DOPG   GL249324  17.750  20.210  16.570
 2289DOPG   C1A49325  17.380  20.300  16.170
 2289DOPG   D2A49326  16.970  20.440  16.190
 2289DOPG   C3A49327  16.680  20.390  15.860
 2289DOPG   C4A49328  16.330  20.430  15.640
 2289DOPG   C1B49329  17.280  20.340  16.650
 2289DOPG   D2B49330  17.040  20.810  16.630
 2289DOPG   C3B49331  16.650  20.770  16.460
 2289DOPG   C4B49332  16.550  20.730  16.140
 2290DOPG   GL049333  16.890  13.520  14.700
 2290DOPG   PO449334  16.700  13.520  14.450
 2290DOPG   GL149335  16.460  13.850  14.250
 2290DOPG   GL249336  16.610  14.160  14.220
 2290DOPG   C1A49337  16.180  13.930  14.010
 2290DOPG   D2A49338  15.820  13.980  13.870
 2290DOPG   C3A49339  15.610  14.290  13.450
 2290DOPG   C4A49340  15.470  14.220  13.000
 2290DOPG   C1B49341  16.210  14.480  14.170
 2290DOPG   D2B49342  16.140  14.850  13.940
 2290DOPG   C3B49343  16.470  15.310  13.910
 2290DOPG   C4B49344  16.590  15.720  14.080
 2291DOPG   GL049345  17.570  19.020  19.120
 2291DOPG   PO449346  17.700  18.900  18.770
 2291DOPG   GL149347  17.380  19.120  18.570
 2291DOPG   GL249348  17.500  19.340  18.300
 2291DOPG   C1A49349  17.060  19.210  18.200
 2291DOPG   D2A49350  16.760  19.210  17.940
 2291DOPG   C3A49351  16.460  19.430  17.730
 2291DOPG   C4A49352  16.110  19.470  18.030
 2291DOPG   C1B49353  17.360  19.620  17.900
 2291DOPG   D2B49354  17.370  19.650  17.390
 2291DOPG   C3B49355  17.140  19.470  17.060
 2291DOPG   C4B49356  16.850  19.320  16.810
 2292DOPG   GL049357  14.410  11.600  14.570
 2292DOPG   PO449358  14.460  11.260  14.350
 2292DOPG   GL149359  14.640  10.910  14.250
 2292DOPG   GL249360  14.820  10.720  14.500
 2292DOPG   C1A49361  14.800  10.500  14.050
 2292DOPG   D2A49362  15.070  10.300  13.890
 2292DOPG   C3A49363  15.300  10.020  14.200
 2292DOPG   C4A49364  15.650   9.940  14.520
 2292DOPG   C1B49365  15.200  10.640  14.340
 2292DOPG   D2B49366  15.550  10.460  14.460
 2292DOPG   C3B49367  15.830  10.290  14.190
 2292DOPG   C4B49368  16.210  10.380  14.160
 2293DOPG   GL049369   8.960  25.020  11.740
 2293DOPG   PO449370   9.270  24.580  11.710
 2293DOPG   GL149371   9.600  24.480  11.910
 2293DOPG   GL249372   9.580  24.200  11.990
 2293DOPG   C1A49373   9.840  24.520  12.260
 2293DOPG   D2A49374  10.100  24.280  12.630
 2293DOPG   C3A49375  10.100  23.910  12.790
 2293DOPG   C4A49376  10.300  23.520  12.960
 2293DOPG   C1B49377   9.720  23.960  12.400
 2293DOPG   D2B49378   9.840  23.470  12.550
 2293DOPG   C3B49379   9.760  23.460  13.030
 2293DOPG   C4B49380  10.000  23.580  13.490
 2294DOPG   GL049381   9.560  23.810  19.640
 2294DOPG   PO449382   9.290  23.460  19.660
 2294DOPG   GL149383   9.360  23.330  19.230
 2294DOPG   GL249384   9.030  23.290  19.060
 2294DOPG   C1A49385   9.660  23.280  18.820
 2294DOPG   D2A49386  10.070  23.380  18.480
 2294DOPG   C3A49387  10.350  23.260  18.150
 2294DOPG   C4A49388  10.660  23.320  17.760
 2294DOPG   C1B49389   9.100  23.020  18.760
 2294DOPG   D2B49390   9.470  22.880  18.620
 2294DOPG   C3B49391   9.790  23.010  18.350
 2294DOPG   C4B49392  10.020  22.900  17.950
 2295DOPG   GL049393   7.580  21.520  11.150
 2295DOPG   PO449394   7.480  21.330  10.810
 2295DOPG   GL149395   7.770  21.070  11.020
 2295DOPG   GL249396   7.670  20.730  11.040
 2295DOPG   C1A49397   8.160  20.930  11.330
 2295DOPG   D2A49398   8.500  21.000  11.520
 2295DOPG   C3A49399   8.640  20.980  11.850
 2295DOPG   C4A49400   8.760  21.110  12.390
 2295DOPG   C1B49401   8.020  20.460  11.180
 2295DOPG   D2B49402   8.170  20.170  11.440
 2295DOPG   C3B49403   8.440  19.780  11.500
 2295DOPG   C4B49404   8.440  19.410  11.420
 2296DOPG   GL049405  15.580  25.910  12.890
 2296DOPG   PO449406  15.690  25.490  12.750
 2296DOPG   GL149407  16.060  25.840  12.710
 2296DOPG   GL249408  16.450  25.740  12.740
 2296DOPG   C1A49409  16.270  26.040  12.350
 2296DOPG   D2A49410  16.450  26.380  12.190
 2296DOPG   C3A49411  16.800  26.600  12.020
 2296DOPG   C4A49412  17.100  26.910  12.040
 2296DOPG   C1B49413  16.360  26.300  12.740
 2296DOPG   D2B49414  16.230  26.690  12.710
 2296DOPG   C3B49415  16.430  27.100  12.910
 2296DOPG   C4B49416  16.550  27.470  13.090
 2297DOPG   GL049417   4.990  19.810  18.060
 2297DOPG   PO449418   5.410  19.760  18.010
 2297DOPG   GL149419   5.770  19.980  17.720
 2297DOPG   GL249420   5.900  20.260  17.890
 2297DOPG   C1A49421   6.060  19.830  17.380
 2297DOPG   D2A49422   6.350  19.610  17.080
 2297DOPG   C3A49423   6.800  19.590  16.910
 2297DOPG   C4A49424   7.140  19.730  16.630
 2297DOPG   C1B49425   6.240  20.140  17.760
 2297DOPG   D2B49426   6.690  19.960  17.550
 2297DOPG   C3B49427   6.900  20.050  17.140
 2297DOPG   C4B49428   7.070  20.320  16.780
 2298DOPG   GL049429  16.140  14.510  10.760
 2298DOPG   PO449430  16.090  14.150  10.830
 2298DOPG   GL149431  15.760  14.460  11.050
 2298DOPG   GL249432  16.000  14.340  11.400
 2298DOPG   C1A49433  15.320  14.690  11.170
 2298DOPG   D2A49434  14.930  14.710  11.060
 2298DOPG   C3A49435  14.890  15.000  10.700
 2298DOPG   C4A49436  15.240  15.080  10.340
 2298DOPG   C1B49437  16.150  14.800  11.420
 2298DOPG   D2B49438  16.330  15.100  11.600
 2298DOPG   C3B49439  16.670  15.090  11.960
 2298DOPG   C4B49440  16.580  14.960  12.350
 2299DOPG   GL049441   9.170  24.980  19.790
 2299DOPG   PO449442   9.320  24.490  19.590
 2299DOPG   GL149443   9.270  24.240  19.290
 2299DOPG   GL249444   9.080  24.010  19.190
 2299DOPG   C1A49445   9.380  24.230  18.890
 2299DOPG   D2A49446   9.760  24.540  18.700
 2299DOPG   C3A49447  10.100  24.350  18.450
 2299DOPG   C4A49448  10.270  24.250  18.010
 2299DOPG   C1B49449   9.340  23.720  18.980
 2299DOPG   D2B49450   9.220  23.450  18.590
 2299DOPG   C3B49451   9.540  23.440  18.350
 2299DOPG   C4B49452   9.910  23.450  17.980
 2300DOPG   GL049453   7.540  21.610  20.650
 2300DOPG   PO449454   7.640  21.150  20.610
 2300DOPG   GL149455   7.980  20.930  20.280
 2300DOPG   GL249456   8.310  21.030  20.360
 2300DOPG   C1A49457   8.080  20.520  20.070
 2300DOPG   D2A49458   8.210  20.320  19.770
 2300DOPG   C3A49459   8.490  20.030  19.650
 2300DOPG   C4A49460   8.690  19.670  19.540
 2300DOPG   C1B49461   8.340  21.220  19.880
 2300DOPG   D2B49462   8.570  21.390  19.430
 2300DOPG   C3B49463   9.030  21.290  19.290
 2300DOPG   C4B49464   9.460  21.380  19.390
 2301DOPG   GL049465   6.790  13.760   9.410
 2301DOPG   PO449466   6.650  14.110   9.300
 2301DOPG   GL149467   6.550  13.810   8.970
 2301DOPG   GL249468   6.680  13.470   8.990
 2301DOPG   C1A49469   6.250  13.640   8.650
 2301DOPG   D2A49470   6.100  13.460   8.330
 2301DOPG   C3A49471   6.050  13.530   7.910
 2301DOPG   C4A49472   6.130  13.370   7.460
 2301DOPG   C1B49473   6.600  13.110   8.720
 2301DOPG   D2B49474   6.360  12.870   8.430
 2301DOPG   C3B49475   5.960  13.030   8.120
 2301DOPG   C4B49476   5.700  13.260   7.750
 2302DOPG   GL049477  11.190  14.210  19.830
 2302DOPG   PO449478  10.960  14.350  19.600
 2302DOPG   GL149479  11.280  14.540  19.390
 2302DOPG   GL249480  11.190  14.880  19.270
 2302DOPG   C1A49481  11.670  14.760  19.190
 2302DOPG   D2A49482  12.030  14.980  18.940
 2302DOPG   C3A49483  12.210  15.360  18.970
 2302DOPG   C4A49484  12.460  15.610  18.790
 2302DOPG   C1B49485  11.310  15.030  18.830
 2302DOPG   D2B49486  11.770  15.210  18.610
 2302DOPG   C3B49487  11.630  15.390  18.180
 2302DOPG   C4B49488  11.520  15.660  17.780
 2303DOPG   GL049489  19.830  19.030  13.220
 2303DOPG   PO449490  20.240  19.120  13.190
 2303DOPG   GL149491  20.540  19.020  12.860
 2303DOPG   GL249492  20.630  18.800  13.060
 2303DOPG   C1A49493  21.000  19.020  12.630
 2303DOPG   D2A49494  21.420  19.140  12.700
 2303DOPG   C3A49495  21.630  18.960  13.070
 2303DOPG   C4A49496  22.000  18.950  13.280
 2303DOPG   C1B49497  20.940  18.650  12.990
 2303DOPG   D2B49498  21.390  18.530  12.870
 2303DOPG   C3B49499  21.600  18.300  12.630
 2303DOPG   C4B49500  22.060  18.230  12.540
 2304DOPG   GL049501  13.380  19.180   7.690
 2304DOPG   PO449502  13.180  19.210   7.970
 2304DOPG   GL149503  13.100  18.970   8.350
 2304DOPG   GL249504  13.310  18.740   8.410
 2304DOPG   C1A49505  12.860  18.820   8.680
 2304DOPG   D2A49506  12.530  18.770   8.870
 2304DOPG   C3A49507  12.260  18.950   9.400
 2304DOPG   C4A49508  12.200  18.890   9.810
 2304DOPG   C1B49509  13.300  18.840   8.880
 2304DOPG   D2B49510  13.340  18.910   9.300
 2304DOPG   C3B49511  13.620  18.530   9.500
 2304DOPG   C4B49512  13.450  18.460   9.950
 2305DOPG   GL049513   2.490  24.490  13.400
 2305DOPG   PO449514   2.540  24.500  13.870
 2305DOPG   GL149515   2.430  25.040  13.730
 2305DOPG   GL249516   2.330  25.160  14.070
 2305DOPG   C1A49517   2.110  25.420  13.730
 2305DOPG   D2A49518   1.780  25.630  13.520
 2305DOPG   C3A49519   1.760  25.390  13.260
 2305DOPG   C4A49520   1.660  25.380  12.840
 2305DOPG   C1B49521   2.100  25.450  14.220
 2305DOPG   D2B49522   1.790  25.710  14.580
 2305DOPG   C3B49523   1.690  26.030  14.300
 2305DOPG   C4B49524   1.760  26.050  13.790
 2306DOPG   GL049525  14.040  22.040   8.820
 2306DOPG   PO449526  13.920  22.360   9.190
 2306DOPG   GL149527  14.020  22.080   9.450
 2306DOPG   GL249528  13.830  21.800   9.320
 2306DOPG   C1A49529  14.200  21.920   9.880
 2306DOPG   D2A49530  14.640  21.770  10.000
 2306DOPG   C3A49531  14.600  21.870  10.410
 2306DOPG   C4A49532  14.980  21.660  10.670
 2306DOPG   C1B49533  13.470  21.790   9.470
 2306DOPG   D2B49534  13.270  21.480   9.620
 2306DOPG   C3B49535  13.340  21.180   9.820
 2306DOPG   C4B49536  13.550  20.850   9.990
 2307DOPG   GL049537   5.440  16.480  17.870
 2307DOPG   PO449538   5.550  16.290  17.560
 2307DOPG   GL149539   5.810  16.400  17.250
 2307DOPG   GL249540   6.130  16.420  17.190
 2307DOPG   C1A49541   5.870  16.830  17.020
 2307DOPG   D2A49542   6.330  17.150  17.090
 2307DOPG   C3A49543   6.280  17.480  16.840
 2307DOPG   C4A49544   6.080  17.780  16.490
 2307DOPG   C1B49545   6.350  16.600  16.810
 2307DOPG   D2B49546   6.130  16.720  16.520
 2307DOPG   C3B49547   6.370  16.650  16.130
 2307DOPG   C4B49548   6.240  16.740  15.760
 2308DOPG   GL049549  16.340  13.580  10.830
 2308DOPG   PO449550  16.610  13.140  10.780
 2308DOPG   GL149551  16.870  12.790  10.550
 2308DOPG   GL249552  17.000  13.000  10.140
 2308DOPG   C1A49553  17.170  12.410  10.410
 2308DOPG   D2A49554  17.540  12.160  10.360
 2308DOPG   C3A49555  17.580  11.810  10.620
 2308DOPG   C4A49556  17.850  11.400  10.730
 2308DOPG   C1B49557  17.340  13.130   9.940
 2308DOPG   D2B49558  17.460  13.340   9.520
 2308DOPG   C3B49559  17.220  13.200   9.120
 2308DOPG   C4B49560  17.180  12.990   8.720
 2309DOPG   GL049561  16.950  15.600  17.670
 2309DOPG   PO449562  16.850  15.350  17.300
 2309DOPG   GL149563  16.500  15.500  17.050
 2309DOPG   GL249564  16.300  15.680  17.230
 2309DOPG   C1A49565  16.170  15.260  16.700
 2309DOPG   D2A49566  16.060  15.330  16.240
 2309DOPG   C3A49567  16.040  15.830  16.310
 2309DOPG   C4A49568  16.030  16.100  15.900
 2309DOPG   C1B49569  15.950  15.680  16.860
 2309DOPG   D2B49570  15.860  16.130  16.700
 2309DOPG   C3B49571  15.690  16.420  17.030
 2309DOPG   C4B49572  15.360  16.860  16.930
 2310DOPG   GL049573  16.490  18.660   9.370
 2310DOPG   PO449574  15.990  18.640   9.330
 2310DOPG   GL149575  16.030  18.700   9.700
 2310DOPG   GL249576  15.880  18.410   9.770
 2310DOPG   C1A49577  15.770  18.790  10.090
 2310DOPG   D2A49578  15.720  18.710  10.630
 2310DOPG   C3A49579  15.730  19.150  10.920
 2310DOPG   C4A49580  15.950  19.410  11.280
 2310DOPG   C1B49581  15.440  18.530   9.890
 2310DOPG   D2B49582  15.260  18.540  10.320
 2310DOPG   C3B49583  15.350  19.020  10.510
 2310DOPG   C4B49584  15.120  19.420  10.720
 2311DOPG   GL049585   1.780  20.470  16.420
 2311DOPG   PO449586   1.530  20.540  16.790
 2311DOPG   GL149587   1.060  20.440  16.890
 2311DOPG   GL249588   0.890  20.150  16.690
 2311DOPG   C1A49589   0.540  20.510  17.120
 2311DOPG   D2A49590   0.160  20.460  17.380
 2311DOPG   C3A49591   0.210  20.040  17.510
 2311DOPG   C4A49592   0.080  19.970  17.950
 2311DOPG   C1B49593   0.440  20.340  16.650
 2311DOPG   D2B49594   0.040  20.460  16.870
 2311DOPG   C3B49595  36.090  20.140  16.820
 2311DOPG   C4B49596  36.160  19.700  16.960
 2312DOPG   GL049597  11.010   6.970  17.340
 2312DOPG   PO449598  10.810   6.730  17.090
 2312DOPG   GL149599  10.720   7.120  16.810
 2312DOPG   GL249600  10.910   7.120  16.530
 2312DOPG   C1A49601  10.630   7.570  16.990
 2312DOPG   D2A49602  10.630   7.790  17.330
 2312DOPG   C3A49603  11.050   8.120  17.340
 2312DOPG   C4A49604  11.130   8.510  17.080
 2312DOPG   C1B49605  10.700   7.630  16.490
 2312DOPG   D2B49606  10.770   8.070  16.470
 2312DOPG   C3B49607  10.970   8.410  16.580
 2312DOPG   C4B49608  11.140   8.870  16.630
 2313DOPG   GL049609  18.060  15.690  11.840
 2313DOPG   PO449610  17.880  15.460  12.150
 2313DOPG   GL149611  17.520  15.710  12.090
 2313DOPG   GL249612  17.260  15.750  12.410
 2313DOPG   C1A49613  17.300  16.090  12.050
 2313DOPG   D2A49614  17.160  16.580  12.050
 2313DOPG   C3A49615  16.820  16.880  12.290
 2313DOPG   C4A49616  16.730  17.040  12.710
 2313DOPG   C1B49617  16.950  15.890  12.430
 2313DOPG   D2B49618  16.900  16.410  12.410
 2313DOPG   C3B49619  17.230  16.740  12.610
 2313DOPG   C4B49620  17.600  16.810  12.800
 2314DOPG   GL049621   9.890  19.150  16.830
 2314DOPG   PO449622   9.620  19.350  17.100
 2314DOPG   GL149623   9.190  19.270  17.360
 2314DOPG   GL249624   8.990  19.320  17.730
 2314DOPG   C1A49625   8.780  19.130  17.240
 2314DOPG   D2A49626   8.340  19.130  17.320
 2314DOPG   C3A49627   8.140  18.790  17.440
 2314DOPG   C4A49628   7.830  18.510  17.300
 2314DOPG   C1B49629   8.840  19.250  18.070
 2314DOPG   D2B49630   8.510  19.280  18.430
 2314DOPG   C3B49631   8.200  19.020  18.180
 2314DOPG   C4B49632   8.010  18.740  17.970
 2315DOPG   GL049633  15.240  16.980  13.630
 2315DOPG   PO449634  14.830  16.940  13.870
 2315DOPG   GL149635  15.160  16.590  13.930
 2315DOPG   GL249636  15.160  16.380  13.590
 2315DOPG   C1A49637  15.610  16.530  14.200
 2315DOPG   D2A49638  15.880  16.230  14.430
 2315DOPG   C3A49639  16.270  16.240  14.340
 2315DOPG   C4A49640  16.480  16.290  13.970
 2315DOPG   C1B49641  15.610  16.380  13.560
 2315DOPG   D2B49642  15.710  16.210  13.160
 2315DOPG   C3B49643  15.480  16.030  12.710
 2315DOPG   C4B49644  15.350  16.040  12.200
 2316DOPG   GL049645  11.940  14.780  13.740
 2316DOPG   PO449646  11.960  14.850  14.220
 2316DOPG   GL149647  11.660  14.560  14.330
 2316DOPG   GL249648  11.720  14.360  14.620
 2316DOPG   C1A49649  11.380  14.130  14.320
 2316DOPG   D2A49650  11.000  14.040  14.330
 2316DOPG   C3A49651  10.660  14.270  14.270
 2316DOPG   C4A49652  10.290  14.220  14.010
 2316DOPG   C1B49653  11.560  13.900  14.740
 2316DOPG   D2B49654  11.270  13.740  14.920
 2316DOPG   C3B49655  11.320  13.390  14.820
 2316DOPG   C4B49656  11.050  13.090  14.920
 2317DOPG   GL049657   8.470  17.790  14.290
 2317DOPG   PO449658   8.360  17.920  14.680
 2317DOPG   GL149659   7.870  18.040  14.480
 2317DOPG   GL249660   7.710  18.340  14.230
 2317DOPG   C1A49661   7.460  17.910  14.350
 2317DOPG   D2A49662   7.220  17.600  14.590
 2317DOPG   C3A49663   7.190  17.440  15.010
 2317DOPG   C4A49664   7.370  17.610  15.270
 2317DOPG   C1B49665   7.830  18.130  13.770
 2317DOPG   D2B49666   7.620  18.120  13.390
 2317DOPG   C3B49667   7.560  18.450  13.080
 2317DOPG   C4B49668   7.860  18.630  12.860
 2318DOPG   GL049669   3.420  15.030  12.490
 2318DOPG   PO449670   3.090  14.750  12.560
 2318DOPG   GL149671   2.740  14.480  12.630
 2318DOPG   GL249672   2.890  14.250  12.720
 2318DOPG   C1A49673   2.350  14.450  12.800
 2318DOPG   D2A49674   2.090  14.260  12.500
 2318DOPG   C3A49675   1.940  14.000  12.620
 2318DOPG   C4A49676   1.570  13.700  12.590
 2318DOPG   C1B49677   2.600  13.990  12.620
 2318DOPG   D2B49678   2.300  13.690  12.540
 2318DOPG   C3B49679   2.340  13.370  12.220
 2318DOPG   C4B49680   2.110  13.110  11.840
 2319DOPG   GL049681   2.540  17.670  12.900
 2319DOPG   PO449682   2.240  17.500  12.520
 2319DOPG   GL149683   1.980  17.410  12.180
 2319DOPG   GL249684   2.090  17.430  11.840
 2319DOPG   C1A49685   1.650  17.160  12.040
 2319DOPG   D2A49686   1.400  17.050  11.780
 2319DOPG   C3A49687   1.030  16.860  11.910
 2319DOPG   C4A49688   0.630  16.640  11.740
 2319DOPG   C1B49689   1.730  17.520  11.740
 2319DOPG   D2B49690   1.320  17.480  11.530
 2319DOPG   C3B49691   0.960  17.170  11.490
 2319DOPG   C4B49692   0.610  17.220  11.790
 2320DOPG   GL049693   0.950  17.820  22.240
 2320DOPG   PO449694   1.060  17.820  22.690
 2320DOPG   GL149695   1.360  18.110  22.500
 2320DOPG   GL249696   1.600  18.030  22.720
 2320DOPG   C1A49697   1.760  17.990  22.260
 2320DOPG   D2A49698   1.980  18.300  22.110
 2320DOPG   C3A49699   2.450  18.380  22.130
 2320DOPG   C4A49700   2.830  18.470  21.910
 2320DOPG   C1B49701   1.890  18.280  22.660
 2320DOPG   D2B49702   2.040  18.660  22.720
 2320DOPG   C3B49703   2.400  18.740  22.490
 2320DOPG   C4B49704   2.810  18.730  22.360
 2321DOPG   GL049705  13.310  21.340  14.620
 2321DOPG   PO449706  13.230  21.780  14.600
 2321DOPG   GL149707  13.500  22.130  14.480
 2321DOPG   GL249708  13.580  22.270  14.780
 2321DOPG   C1A49709  13.940  22.200  14.380
 2321DOPG   D2A49710  14.360  22.230  14.170
 2321DOPG   C3A49711  14.530  21.910  13.880
 2321DOPG   C4A49712  14.920  21.800  13.620
 2321DOPG   C1B49713  13.680  22.600  14.530
 2321DOPG   D2B49714  13.680  22.950  14.220
 2321DOPG   C3B49715  13.950  23.250  14.160
 2321DOPG   C4B49716  14.190  23.380  13.840
 2322DOPG   GL049717   5.600  30.560  14.640
 2322DOPG   PO449718   5.810  30.740  14.300
 2322DOPG   GL149719   5.930  30.310  14.260
 2322DOPG   GL249720   5.960  30.210  14.510
 2322DOPG   C1A49721   6.120  29.810  14.240
 2322DOPG   D2A49722   6.310  29.380  14.410
 2322DOPG   C3A49723   6.730  29.540  14.550
 2322DOPG   C4A49724   7.100  29.360  14.610
 2322DOPG   C1B49725   5.890  29.940  14.850
 2322DOPG   D2B49726   5.800  29.810  15.300
 2322DOPG   C3B49727   6.120  29.650  15.540
 2322DOPG   C4B49728   6.540  29.730  15.700
 2323DOPG   GL049729  11.830  20.690  23.020
 2323DOPG   PO449730  11.600  20.350  22.850
 2323DOPG   GL149731  11.580  20.450  23.320
 2323DOPG   GL249732  11.300  20.420  23.460
 2323DOPG   C1A49733  11.740  20.280  23.770
 2323DOPG   D2A49734  11.690  19.910  23.940
 2323DOPG   C3A49735  12.040  19.860  24.330
 2323DOPG   C4A49736  12.250  19.850  24.790
 2323DOPG   C1B49737  11.400  20.730  23.780
 2323DOPG   D2B49738  11.620  20.690  24.200
 2323DOPG   C3B49739  11.810  20.350  24.380
 2323DOPG   C4B49740  12.030  20.340  24.810
 2324DOPG   GL049741   1.870  15.730   7.570
 2324DOPG   PO449742   1.600  15.950   7.360
 2324DOPG   GL149743   1.910  16.220   7.550
 2324DOPG   GL249744   1.820  16.590   7.430
 2324DOPG   C1A49745   2.370  16.290   7.560
 2324DOPG   D2A49746   2.710  16.430   7.220
 2324DOPG   C3A49747   2.790  16.770   6.990
 2324DOPG   C4A49748   2.920  16.960   6.680
 2324DOPG   C1B49749   2.050  16.640   7.730
 2324DOPG   D2B49750   2.230  16.870   8.040
 2324DOPG   C3B49751   2.480  17.260   8.040
 2324DOPG   C4B49752   2.550  17.600   8.370
 2325DOPG   GL049753   6.630  23.420  14.750
 2325DOPG   PO449754   6.480  23.650  15.010
 2325DOPG   GL149755   6.670  23.450  15.340
 2325DOPG   GL249756   6.970  23.490  15.520
 2325DOPG   C1A49757   6.590  23.060  15.540
 2325DOPG   D2A49758   6.800  22.530  15.550
 2325DOPG   C3A49759   7.260  22.450  15.600
 2325DOPG   C4A49760   7.530  22.560  16.000
 2325DOPG   C1B49761   7.310  23.390  15.770
 2325DOPG   D2B49762   7.340  23.120  16.100
 2325DOPG   C3B49763   7.740  22.990  16.210
 2325DOPG   C4B49764   8.080  22.700  16.030
 2326DOPG   GL049765  13.330  17.400  11.800
 2326DOPG   PO449766  13.330  17.080  12.080
 2326DOPG   GL149767  13.700  17.100  11.890
 2326DOPG   GL249768  13.850  17.450  11.810
 2326DOPG   C1A49769  13.680  17.000  11.530
 2326DOPG   D2A49770  13.560  16.930  11.100
 2326DOPG   C3A49771  13.680  17.160  10.670
 2326DOPG   C4A49772  13.860  17.270  10.310
 2326DOPG   C1B49773  14.050  17.450  11.530
 2326DOPG   D2B49774  14.100  17.830  11.340
 2326DOPG   C3B49775  13.870  18.060  10.960
 2326DOPG   C4B49776  13.520  18.150  10.700
 2327DOPG   GL049777  17.130  18.580   4.080
 2327DOPG   PO449778  16.980  18.150   3.960
 2327DOPG   GL149779  16.740  18.290   4.320
 2327DOPG   GL249780  16.440  18.290   4.280
 2327DOPG   C1A49781  16.530  18.190   4.760
 2327DOPG   D2A49782  16.060  18.250   4.980
 2327DOPG   C3A49783  15.780  17.930   4.990
 2327DOPG   C4A49784  15.820  17.440   4.950
 2327DOPG   C1B49785  16.340  18.610   4.550
 2327DOPG   D2B49786  16.460  18.640   5.000
 2327DOPG   C3B49787  16.280  19.020   5.200
 2327DOPG   C4B49788  16.300  19.320   5.480
 2328DOPG   GL049789   8.190  10.320   6.650
 2328DOPG   PO449790   8.360   9.960   6.790
 2328DOPG   GL149791   8.620  10.170   7.070
 2328DOPG   GL249792   8.750   9.970   7.200
 2328DOPG   C1A49793   8.500  10.400   7.400
 2328DOPG   D2A49794   8.500  10.490   7.800
 2328DOPG   C3A49795   8.860  10.580   8.070
 2328DOPG   C4A49796   9.170  10.490   8.370
 2328DOPG   C1B49797   9.010  10.230   7.400
 2328DOPG   D2B49798   9.270  10.310   7.730
 2328DOPG   C3B49799   9.120  10.130   7.990
 2328DOPG   C4B49800   8.770  10.050   8.150
 2329DOPG   GL049801   5.730  26.590   7.510
 2329DOPG   PO449802   5.850  27.010   7.340
 2329DOPG   GL149803   6.180  26.790   7.530
 2329DOPG   GL249804   6.390  26.530   7.370
 2329DOPG   C1A49805   6.430  26.710   7.840
 2329DOPG   D2A49806   6.460  26.470   8.100
 2329DOPG   C3A49807   6.680  26.110   7.970
 2329DOPG   C4A49808   6.780  25.660   8.080
 2329DOPG   C1B49809   6.300  26.220   7.650
 2329DOPG   D2B49810   6.350  25.750   7.720
 2329DOPG   C3B49811   6.420  25.330   7.820
 2329DOPG   C4B49812   6.520  25.030   8.030
 2330DOPG   GL049813  12.090  16.980  12.340
 2330DOPG   PO449814  12.300  16.790  11.880
 2330DOPG   GL149815  12.310  16.640  11.460
 2330DOPG   GL249816  12.610  16.770  11.460
 2330DOPG   C1A49817  12.470  16.660  11.000
 2330DOPG   D2A49818  12.670  16.440  10.680
 2330DOPG   C3A49819  12.400  16.360  10.350
 2330DOPG   C4A49820  12.150  16.290  10.060
 2330DOPG   C1B49821  12.650  16.240  11.260
 2330DOPG   D2B49822  12.770  15.970  10.980
 2330DOPG   C3B49823  12.580  15.580  10.960
 2330DOPG   C4B49824  12.330  15.300  10.790
 2331DOPG   GL049825   9.390  20.630  15.160
 2331DOPG   PO449826   9.680  21.100  15.050
 2331DOPG   GL149827   9.180  21.190  15.030
 2331DOPG   GL249828   9.100  20.880  14.880
 2331DOPG   C1A49829   8.710  21.450  15.020
 2331DOPG   D2A49830   8.290  21.700  15.010
 2331DOPG   C3A49831   8.380  22.180  14.980
 2331DOPG   C4A49832   8.070  22.480  14.890
 2331DOPG   C1B49833   8.820  21.050  14.610
 2331DOPG   D2B49834   8.420  21.350  14.570
 2331DOPG   C3B49835   8.370  21.820  14.520
 2331DOPG   C4B49836   8.440  22.050  14.200
 2332DOPG   GL049837  35.330  27.320  13.760
 2332DOPG   PO449838  35.360  26.950  13.990
 2332DOPG   GL149839  35.470  26.570  13.810
 2332DOPG   GL249840  35.790  26.610  13.690
 2332DOPG   C1A49841  35.550  26.260  14.080
 2332DOPG   D2A49842  35.390  25.950  14.170
 2332DOPG   C3A49843  35.400  25.600  13.960
 2332DOPG   C4A49844  35.510  25.240  13.790
 2332DOPG   C1B49845  35.920  26.160  13.710
 2332DOPG   D2B49846  35.900  25.780  13.990
 2332DOPG   C3B49847  35.870  25.400  14.180
 2332DOPG   C4B49848  36.130  25.150  14.350
 2333DOPG   GL049849   9.850  16.280  15.520
 2333DOPG   PO449850   9.920  16.390  15.880
 2333DOPG   GL149851   9.720  16.210  16.260
 2333DOPG   GL249852   9.750  15.940  16.580
 2333DOPG   C1A49853   9.320  16.100  16.350
 2333DOPG   D2A49854   9.280  15.660  16.200
 2333DOPG   C3A49855   9.640  15.500  16.400
 2333DOPG   C4A49856  10.050  15.430  16.790
 2333DOPG   C1B49857   9.700  15.870  16.990
 2333DOPG   D2B49858   9.750  15.560  17.240
 2333DOPG   C3B49859  10.080  15.540  17.500
 2333DOPG   C4B49860  10.180  15.170  17.710
 2334DOPG   GL049861  33.550  20.440  16.660
 2334DOPG   PO449862  34.020  20.470  16.640
 2334DOPG   GL149863  34.440  20.390  16.700
 2334DOPG   GL249864  34.420  20.110  16.870
 2334DOPG   C1A49865  34.860  20.470  16.320
 2334DOPG   D2A49866  35.300  20.450  16.350
 2334DOPG   C3A49867  35.390  20.180  16.000
 2334DOPG   C4A49868  35.610  19.830  15.900
 2334DOPG   C1B49869  34.790  20.020  16.780
 2334DOPG   D2B49870  35.200  20.130  16.770
 2334DOPG   C3B49871  35.320  20.590  16.830
 2334DOPG   C4B49872  35.340  21.160  16.840
 2335DOPG   GL049873  35.980  21.460  21.290
 2335DOPG   PO449874  36.090  21.510  20.800
 2335DOPG   GL149875  36.230  21.550  20.390
 2335DOPG   GL249876  36.190  21.200  20.420
 2335DOPG   C1A49877  36.340  21.420  19.950
 2335DOPG   D2A49878   0.320  21.230  19.650
 2335DOPG   C3A49879   0.060  20.760  19.540
 2335DOPG   C4A49880   0.030  20.450  19.790
 2335DOPG   C1B49881  36.360  20.940  20.480
 2335DOPG   D2B49882   0.360  20.830  20.860
 2335DOPG   C3B49883   0.590  20.490  20.720
 2335DOPG   C4B49884   1.010  20.380  20.820
 2336DOPG   GL049885  11.420  23.150   8.980
 2336DOPG   PO449886  11.420  22.750   8.850
 2336DOPG   GL149887  11.460  22.720   9.350
 2336DOPG   GL249888  11.800  22.610   9.420
 2336DOPG   C1A49889  11.350  22.590   9.790
 2336DOPG   D2A49890  11.390  22.180  10.060
 2336DOPG   C3A49891  11.540  22.190  10.420
 2336DOPG   C4A49892  11.520  21.990  10.850
 2336DOPG   C1B49893  11.930  22.320   9.810
 2336DOPG   D2B49894  12.220  22.120  10.010
 2336DOPG   C3B49895  12.360  21.760  10.330
 2336DOPG   C4B49896  12.690  21.630  10.640
 2337DOPG   GL049897   7.300  16.170   8.660
 2337DOPG   PO449898   7.010  15.960   8.620
 2337DOPG   GL149899   7.210  15.780   8.180
 2337DOPG   GL249900   7.150  15.420   8.030
 2337DOPG   C1A49901   7.380  15.860   7.760
 2337DOPG   D2A49902   7.490  15.730   7.360
 2337DOPG   C3A49903   7.190  16.000   7.120
 2337DOPG   C4A49904   7.080  16.220   6.890
 2337DOPG   C1B49905   7.210  15.320   7.700
 2337DOPG   D2B49906   7.110  15.150   7.220
 2337DOPG   C3B49907   7.260  15.510   6.960
 2337DOPG   C4B49908   7.050  15.770   6.640
 2338DOPG   GL049909   1.460  26.080  22.620
 2338DOPG   PO449910   1.830  26.300  22.450
 2338DOPG   GL149911   2.040  26.060  22.220
 2338DOPG   GL249912   2.000  26.030  21.800
 2338DOPG   C1A49913   2.140  25.640  22.090
 2338DOPG   D2A49914   1.770  25.340  22.110
 2338DOPG   C3A49915   1.990  24.990  22.040
 2338DOPG   C4A49916   2.090  24.550  21.970
 2338DOPG   C1B49917   1.960  25.640  21.600
 2338DOPG   D2B49918   2.170  25.240  21.580
 2338DOPG   C3B49919   2.070  24.850  21.580
 2338DOPG   C4B49920   1.870  24.530  21.250
 2339DOPG   GL049921  12.840  12.940   9.330
 2339DOPG   PO449922  12.710  13.220   9.030
 2339DOPG   GL149923  12.800  12.840   8.770
 2339DOPG   GL249924  12.930  12.960   8.480
 2339DOPG   C1A49925  13.020  12.440   8.560
 2339DOPG   D2A49926  12.920  12.060   8.490
 2339DOPG   C3A49927  13.050  11.790   8.770
 2339DOPG   C4A49928  13.310  11.440   8.760
 2339DOPG   C1B49929  12.850  12.720   8.160
 2339DOPG   D2B49930  12.950  12.620   7.770
 2339DOPG   C3B49931  13.050  12.120   7.830
 2339DOPG   C4B49932  13.130  11.850   7.590
 2340DOPG   GL049933   2.660  20.550  10.650
 2340DOPG   PO449934   2.460  20.810  11.040
 2340DOPG   GL149935   2.170  20.850  10.750
 2340DOPG   GL249936   2.220  20.650  10.510
 2340DOPG   C1A49937   1.830  20.920  10.670
 2340DOPG   D2A49938   1.420  20.780  10.580
 2340DOPG   C3A49939   1.000  20.880  10.730
 2340DOPG   C4A49940   0.650  21.150  10.730
 2340DOPG   C1B49941   1.940  20.720  10.200
 2340DOPG   D2B49942   1.620  20.770   9.950
 2340DOPG   C3B49943   1.460  20.370   9.770
 2340DOPG   C4B49944   1.420  19.960   9.920
 2341DOPG   GL049945  10.300  20.430  13.020
 2341DOPG   PO449946  10.110  20.250  12.670
 2341DOPG   GL149947   9.720  20.140  12.690
 2341DOPG   GL249948   9.790  19.840  12.830
 2341DOPG   C1A49949   9.330  20.200  12.880
 2341DOPG   D2A49950   8.860  20.000  12.900
 2341DOPG   C3A49951   8.590  19.990  13.310
 2341DOPG   C4A49952   8.430  19.920  13.660
 2341DOPG   C1B49953   9.330  19.660  12.800
 2341DOPG   D2B49954   9.070  19.710  12.480
 2341DOPG   C3B49955   8.660  19.800  12.510
 2341DOPG   C4B49956   8.290  20.100  12.300
 2342DOPG   GL049957   2.250  18.830  16.570
 2342DOPG   PO449958   1.820  18.700  16.920
 2342DOPG   GL149959   1.540  18.700  17.120
 2342DOPG   GL249960   1.580  18.390  17.330
 2342DOPG   C1A49961   1.090  18.760  17.310
 2342DOPG   D2A49962   0.610  18.740  17.480
 2342DOPG   C3A49963   0.350  18.880  17.830
 2342DOPG   C4A49964   0.160  18.740  18.150
 2342DOPG   C1B49965   1.100  18.320  17.570
 2342DOPG   D2B49966   0.770  18.370  17.770
 2342DOPG   C3B49967   0.550  18.060  18.070
 2342DOPG   C4B49968   0.340  17.790  18.270
 2343DOPG   GL049969  12.500  20.130  17.590
 2343DOPG   PO449970  12.570  19.760  17.640
 2343DOPG   GL149971  12.600  19.660  18.170
 2343DOPG   GL249972  12.730  19.370  18.280
 2343DOPG   C1A49973  12.520  19.730  18.580
 2343DOPG   D2A49974  12.220  19.560  18.880
 2343DOPG   C3A49975  11.830  19.840  19.070
 2343DOPG   C4A49976  11.400  19.960  19.030
 2343DOPG   C1B49977  13.090  19.370  18.470
 2343DOPG   D2B49978  13.190  19.260  18.960
 2343DOPG   C3B49979  13.620  19.220  19.050
 2343DOPG   C4B49980  13.880  19.360  19.360
 2344DOPG   GL049981   8.720  25.260  25.800
 2344DOPG   PO449982   8.740  25.620  25.520
 2344DOPG   GL149983   8.880  25.390  25.150
 2344DOPG   GL249984   8.660  25.070  25.230
 2344DOPG   C1A49985   8.670  25.290  24.710
 2344DOPG   D2A49986   8.730  24.960  24.450
 2344DOPG   C3A49987   8.790  24.610  24.430
 2344DOPG   C4A49988   8.440  24.320  24.420
 2344DOPG   C1B49989   8.430  24.840  24.900
 2344DOPG   D2B49990   8.180  24.710  24.550
 2344DOPG   C3B49991   8.160  24.820  24.120
 2344DOPG   C4B49992   8.010  25.000  23.730
 2345DOPG   GL049993   4.360  14.160   6.060
 2345DOPG   PO449994   4.030  14.410   5.800
 2345DOPG   GL149995   3.890  14.540   6.120
 2345DOPG   GL249996   3.720  14.270   6.320
 2345DOPG   C1A49997   4.000  14.620   6.550
 2345DOPG   D2A49998   4.330  14.740   6.820
 2345DOPG   C3A49999   4.460  14.720   7.290
 2345DOPG   C4A50000   4.520  14.690   7.710
 2345DOPG   C1B50001   4.260  14.190   6.500
 2345DOPG   D2B50002   4.350  14.240   6.980
 2345DOPG   C3B50003   4.410  13.890   7.240
 2345DOPG   C4B50004   4.680  13.790   7.650
 2346DOPG   GL050005  19.970  26.460  20.250
 2346DOPG   PO450006  19.630  26.270  20.420
 2346DOPG   GL150007  19.490  26.180  20.060
 2346DOPG   GL250008  19.440  26.410  19.960
 2346DOPG   C1A50009  18.990  26.140  20.010
 2346DOPG   D2A50010  18.910  25.980  19.600
 2346DOPG   C3A50011  18.540  25.830  19.410
 2346DOPG   C4A50012  18.150  25.630  19.220
 2346DOPG   C1B50013  19.050  26.460  19.650
 2346DOPG   D2B50014  18.750  26.400  19.320
 2346DOPG   C3B50015  18.540  26.330  18.920
 2346DOPG   C4B50016  18.620  26.040  18.570
 2347DOPG   GL050017  12.910  22.570  16.270
 2347DOPG   PO450018  12.750  22.680  15.830
 2347DOPG   GL150019  12.820  23.190  15.740
 2347DOPG   GL250020  12.990  23.200  15.960
 2347DOPG   C1A50021  12.940  23.650  15.620
 2347DOPG   D2A50022  13.060  24.100  15.430
 2347DOPG   C3A50023  13.450  23.980  15.200
 2347DOPG   C4A50024  13.700  23.810  14.890
 2347DOPG   C1B50025  12.860  23.570  16.170
 2347DOPG   D2B50026  12.550  23.640  16.490
 2347DOPG   C3B50027  12.150  23.820  16.360
 2347DOPG   C4B50028  11.880  23.600  15.950
 2348DOPG   GL050029   4.620  13.670  23.000
 2348DOPG   PO450030   4.960  13.600  23.070
 2348DOPG   GL150031   5.050  13.980  22.870
 2348DOPG   GL250032   5.410  13.880  22.800
 2348DOPG   C1A50033   5.180  14.390  22.800
 2348DOPG   D2A50034   5.300  14.850  22.870
 2348DOPG   C3A50035   5.450  15.240  22.760
 2348DOPG   C4A50036   5.880  15.480  22.720
 2348DOPG   C1B50037   5.370  13.600  22.510
 2348DOPG   D2B50038   5.460  13.660  22.190
 2348DOPG   C3B50039   5.510  13.920  21.860
 2348DOPG   C4B50040   5.550  14.120  21.470
 2349DOPG   GL050041  17.640  16.260  10.340
 2349DOPG   PO450042  17.480  16.250  10.680
 2349DOPG   GL150043  17.130  16.560  10.770
 2349DOPG   GL250044  17.230  16.850  10.810
 2349DOPG   C1A50045  16.710  16.460  10.960
 2349DOPG   D2A50046  16.510  16.380  11.390
 2349DOPG   C3A50047  16.170  16.600  11.480
 2349DOPG   C4A50048  16.010  16.880  11.340
 2349DOPG   C1B50049  16.930  16.920  11.070
 2349DOPG   D2B50050  16.560  16.910  11.330
 2349DOPG   C3B50051  16.430  17.040  11.820
 2349DOPG   C4B50052  16.170  17.330  12.170
 2350DOPG   GL050053   9.330  15.610   8.720
 2350DOPG   PO450054   9.670  15.600   9.060
 2350DOPG   GL150055   9.780  15.680   9.410
 2350DOPG   GL250056  10.050  15.470   9.520
 2350DOPG   C1A50057  10.100  15.920   9.590
 2350DOPG   D2A50058  10.260  16.320   9.510
 2350DOPG   C3A50059  10.360  16.610   9.910
 2350DOPG   C4A50060  10.390  16.450  10.400
 2350DOPG   C1B50061   9.990  15.610   9.980
 2350DOPG   D2B50062  10.070  15.770  10.390
 2350DOPG   C3B50063   9.930  15.950  10.810
 2350DOPG   C4B50064   9.760  15.900  11.200
 2351DOPG   GL050065  11.560  16.570   7.220
 2351DOPG   PO450066  12.000  16.730   7.160
 2351DOPG   GL150067  11.800  16.540   6.820
 2351DOPG   GL250068  11.730  16.210   6.860
 2351DOPG   C1A50069  11.770  16.620   6.380
 2351DOPG   D2A50070  11.900  16.620   5.930
 2351DOPG   C3A50071  11.800  17.020   5.670
 2351DOPG   C4A50072  11.500  17.270   5.540
 2351DOPG   C1B50073  11.450  16.270   6.400
 2351DOPG   D2B50074  11.410  16.360   5.950
 2351DOPG   C3B50075  11.470  16.070   5.690
 2351DOPG   C4B50076  11.440  16.020   5.220
 2352DOPG   GL050077   3.770  25.280  15.710
 2352DOPG   PO450078   3.600  25.620  15.650
 2352DOPG   GL150079   3.180  25.670  15.850
 2352DOPG   GL250080   2.970  25.760  16.130
 2352DOPG   C1A50081   2.790  26.000  15.740
 2352DOPG   D2A50082   2.630  26.350  15.470
 2352DOPG   C3A50083   2.310  26.650  15.730
 2352DOPG   C4A50084   1.900  26.770  15.830
 2352DOPG   C1B50085   2.980  26.140  16.180
 2352DOPG   D2B50086   2.820  26.420  16.040
 2352DOPG   C3B50087   2.570  26.750  16.090
 2352DOPG   C4B50088   2.350  27.040  16.240
 2353DOPG   GL050089   2.660  11.680   8.600
 2353DOPG   PO450090   2.700  12.080   8.350
 2353DOPG   GL150091   2.780  12.450   8.560
 2353DOPG   GL250092   2.800  12.740   8.470
 2353DOPG   C1A50093   2.770  12.540   9.050
 2353DOPG   D2A50094   2.730  12.690   9.510
 2353DOPG   C3A50095   3.040  13.170   9.560
 2353DOPG   C4A50096   3.100  13.630   9.540
 2353DOPG   C1B50097   3.200  12.540   8.620
 2353DOPG   D2B50098   3.570  12.360   8.930
 2353DOPG   C3B50099   3.520  12.250   9.330
 2353DOPG   C4B50100   3.840  12.190   9.630
 2354DOPG   GL050101  13.280  18.540  16.860
 2354DOPG   PO450102  13.390  18.600  17.190
 2354DOPG   GL150103  13.600  18.640  17.490
 2354DOPG   GL250104  13.830  18.900  17.360
 2354DOPG   C1A50105  13.670  18.660  17.920
 2354DOPG   D2A50106  13.890  18.360  18.300
 2354DOPG   C3A50107  14.260  18.080  18.320
 2354DOPG   C4A50108  14.610  17.930  18.520
 2354DOPG   C1B50109  14.140  18.660  17.620
 2354DOPG   D2B50110  14.580  18.670  17.630
 2354DOPG   C3B50111  14.640  18.290  17.920
 2354DOPG   C4B50112  14.940  18.410  18.240
 2355DOPG   GL050113  14.860  18.740  14.370
 2355DOPG   PO450114  15.280  18.960  14.450
 2355DOPG   GL150115  15.710  18.920  14.470
 2355DOPG   GL250116  15.740  19.180  14.580
 2355DOPG   C1A50117  16.130  18.750  14.370
 2355DOPG   D2A50118  16.210  18.300  14.370
 2355DOPG   C3A50119  16.340  17.990  14.440
 2355DOPG   C4A50120  16.240  17.670  14.580
 2355DOPG   C1B50121  15.880  18.990  15.020
 2355DOPG   D2B50122  16.190  19.050  15.290
 2355DOPG   C3B50123  16.530  19.060  15.090
 2355DOPG   C4B50124  16.920  18.800  15.060
 2356DOPG   GL050125   9.830  20.310  18.100
 2356DOPG   PO450126   9.980  20.670  17.970
 2356DOPG   GL150127   9.740  20.770  18.200
 2356DOPG   GL250128   9.700  21.070  18.200
 2356DOPG   C1A50129   9.290  20.820  18.210
 2356DOPG   D2A50130   8.790  20.600  18.280
 2356DOPG   C3A50131   8.920  20.280  18.540
 2356DOPG   C4A50132   9.190  20.220  18.920
 2356DOPG   C1B50133   9.540  21.030  18.630
 2356DOPG   D2B50134   9.290  20.850  19.030
 2356DOPG   C3B50135   8.970  20.670  18.830
 2356DOPG   C4B50136   8.580  20.740  18.780
 2357DOPG   GL050137  19.010  22.130  14.900
 2357DOPG   PO450138  19.160  22.190  15.290
 2357DOPG   GL150139  19.520  22.370  15.110
 2357DOPG   GL250140  19.670  22.280  14.860
 2357DOPG   C1A50141  19.900  22.560  15.160
 2357DOPG   D2A50142  20.250  22.580  15.460
 2357DOPG   C3A50143  20.520  22.950  15.470
 2357DOPG   C4A50144  20.630  23.310  15.250
 2357DOPG   C1B50145  20.150  22.230  14.890
 2357DOPG   D2B50146  20.600  22.240  14.950
 2357DOPG   C3B50147  20.780  22.570  14.760
 2357DOPG   C4B50148  20.780  22.790  15.050
 2358DOPG   GL050149  11.490  14.860   3.410
 2358DOPG   PO450150  11.230  14.450   3.420
 2358DOPG   GL150151  11.330  14.490   3.900
 2358DOPG   GL250152  10.960  14.530   3.880
 2358DOPG   C1A50153  11.370  14.940   4.010
 2358DOPG   D2A50154  11.670  15.130   4.300
 2358DOPG   C3A50155  11.980  14.840   4.530
 2358DOPG   C4A50156  12.430  14.590   4.540
 2358DOPG   C1B50157  11.020  14.640   4.290
 2358DOPG   D2B50158  10.960  14.620   4.740
 2358DOPG   C3B50159  10.770  14.910   4.890
 2358DOPG   C4B50160  10.530  15.210   4.780
 2359DOPG   GL050161   9.860  29.980  22.650
 2359DOPG   PO450162   9.920  29.820  22.260
 2359DOPG   GL150163   9.950  29.590  21.920
 2359DOPG   GL250164   9.650  29.520  21.970
 2359DOPG   C1A50165  10.210  29.480  21.550
 2359DOPG   D2A50166  10.260  29.570  21.120
 2359DOPG   C3A50167   9.980  29.330  20.750
 2359DOPG   C4A50168   9.640  29.220  20.390
 2359DOPG   C1B50169   9.820  29.180  21.630
 2359DOPG   D2B50170   9.890  29.040  21.270
 2359DOPG   C3B50171  10.100  28.590  21.420
 2359DOPG   C4B50172   9.970  28.290  21.190
 2360DOPG   GL050173   9.120  18.150  16.330
 2360DOPG   PO450174   8.690  18.290  16.400
 2360DOPG   GL150175   8.510  18.060  16.580
 2360DOPG   GL250176   8.470  18.330  16.850
 2360DOPG   C1A50177   8.220  17.940  16.790
 2360DOPG   D2A50178   7.890  18.050  16.950
 2360DOPG   C3A50179   7.740  17.660  16.990
 2360DOPG   C4A50180   7.640  17.260  16.820
 2360DOPG   C1B50181   8.080  18.580  16.910
 2360DOPG   D2B50182   7.950  18.970  16.920
 2360DOPG   C3B50183   7.580  19.110  17.180
 2360DOPG   C4B50184   7.450  19.450  17.580
 2361DOPG   GL050185  17.710  18.330  19.520
 2361DOPG   PO450186  17.980  17.950  19.680
 2361DOPG   GL150187  18.220  18.060  19.910
 2361DOPG   GL250188  18.090  18.130  20.240
 2361DOPG   C1A50189  18.630  18.190  20.080
 2361DOPG   D2A50190  19.000  18.050  20.280
 2361DOPG   C3A50191  19.280  18.040  20.770
 2361DOPG   C4A50192  19.540  17.970  21.200
 2361DOPG   C1B50193  18.370  18.310  20.510
 2361DOPG   D2B50194  18.840  18.340  20.720
 2361DOPG   C3B50195  18.910  18.730  21.010
 2361DOPG   C4B50196  18.890  19.100  21.240
 2362DOPG   GL050197  13.650  19.860  11.400
 2362DOPG   PO450198  13.550  20.160  11.660
 2362DOPG   GL150199  13.490  20.410  11.330
 2362DOPG   GL250200  13.330  20.730  11.370
 2362DOPG   C1A50201  13.490  20.500  10.860
 2362DOPG   D2A50202  13.530  20.270  10.500
 2362DOPG   C3A50203  13.270  19.900  10.510
 2362DOPG   C4A50204  13.070  19.490  10.360
 2362DOPG   C1B50205  13.450  21.130  11.340
 2362DOPG   D2B50206  13.440  21.610  11.270
 2362DOPG   C3B50207  13.110  21.970  11.110
 2362DOPG   C4B50208  12.670  22.150  10.970
 2363DOPG   GL050209  11.730  16.450  16.280
 2363DOPG   PO450210  12.000  16.350  16.620
 2363DOPG   GL150211  11.970  15.990  16.770
 2363DOPG   GL250212  11.770  16.020  16.970
 2363DOPG   C1A50213  12.310  15.860  17.060
 2363DOPG   D2A50214  12.570  15.550  16.950
 2363DOPG   C3A50215  12.640  15.160  17.200
 2363DOPG   C4A50216  12.960  15.220  17.530
 2363DOPG   C1B50217  11.830  15.860  17.320
 2363DOPG   D2B50218  11.910  15.500  17.510
 2363DOPG   C3B50219  12.110  15.590  17.930
 2363DOPG   C4B50220  12.460  15.650  18.180
 2364DOPG   GL050221  10.980  10.790  12.090
 2364DOPG   PO450222  10.830  10.890  11.690
 2364DOPG   GL150223  10.730  10.470  11.740
 2364DOPG   GL250224  10.730  10.280  12.130
 2364DOPG   C1A50225  10.520  10.220  11.580
 2364DOPG   D2A50226  10.310   9.850  11.280
 2364DOPG   C3A50227  10.260   9.540  11.310
 2364DOPG   C4A50228  10.490   9.200  11.360
 2364DOPG   C1B50229  10.840   9.850  12.060
 2364DOPG   D2B50230  10.940   9.460  12.300
 2364DOPG   C3B50231  11.170   9.160  12.190
 2364DOPG   C4B50232  11.160   9.100  11.720
 2365DOPG   GL050233   5.850  17.380  25.880
 2365DOPG   PO450234   6.320  17.270  25.850
 2365DOPG   GL150235   6.190  17.430  25.500
 2365DOPG   GL250236   5.950  17.190  25.380
 2365DOPG   C1A50237   5.990  17.690  25.240
 2365DOPG   D2A50238   6.120  17.950  24.890
 2365DOPG   C3A50239   6.500  18.050  24.960
 2365DOPG   C4A50240   6.770  18.440  24.930
 2365DOPG   C1B50241   6.120  17.180  25.030
 2365DOPG   D2B50242   6.070  17.060  24.650
 2365DOPG   C3B50243   6.130  17.190  24.250
 2365DOPG   C4B50244   6.400  17.100  23.980
 2366DOPG   GL050245  13.460  19.900  12.240
 2366DOPG   PO450246  13.150  19.900  11.900
 2366DOPG   GL150247  13.120  19.820  11.490
 2366DOPG   GL250248  12.890  19.850  11.240
 2366DOPG   C1A50249  13.340  20.010  11.020
 2366DOPG   D2A50250  13.670  19.860  10.810
 2366DOPG   C3A50251  13.790  19.870  10.330
 2366DOPG   C4A50252  14.110  19.770  10.010
 2366DOPG   C1B50253  12.880  19.810  10.790
 2366DOPG   D2B50254  12.760  19.980  10.340
 2366DOPG   C3B50255  12.900  19.830   9.990
 2366DOPG   C4B50256  12.900  19.840   9.600
 2367DOPG   GL050257   1.970  15.810   7.080
 2367DOPG   PO450258   1.790  15.370   7.130
 2367DOPG   GL150259   2.150  15.410   7.290
 2367DOPG   GL250260   2.400  15.240   7.380
 2367DOPG   C1A50261   2.430  15.780   7.340
 2367DOPG   D2A50262   2.810  16.080   7.540
 2367DOPG   C3A50263   3.180  15.840   7.490
 2367DOPG   C4A50264   3.370  15.570   7.720
 2367DOPG   C1B50265   2.240  15.500   7.760
 2367DOPG   D2B50266   2.180  15.900   7.900
 2367DOPG   C3B50267   2.570  15.970   7.970
 2367DOPG   C4B50268   2.600  15.560   8.150
 2368DOPG   GL050269   7.250   7.410  16.880
 2368DOPG   PO450270   7.600   7.120  16.770
 2368DOPG   GL150271   7.700   7.630  16.930
 2368DOPG   GL250272   7.500   7.790  17.200
 2368DOPG   C1A50273   7.810   8.110  16.920
 2368DOPG   D2A50274   8.130   8.420  17.120
 2368DOPG   C3A50275   8.110   8.610  17.550
 2368DOPG   C4A50276   7.990   8.730  18.020
 2368DOPG   C1B50277   7.350   7.970  16.790
 2368DOPG   D2B50278   7.280   8.100  16.370
 2368DOPG   C3B50279   7.200   8.500  16.330
 2368DOPG   C4B50280   7.480   8.760  16.310
 2369DOPG   GL050281   2.260  11.260   9.710
 2369DOPG   PO450282   2.410  11.420  10.090
 2369DOPG   GL150283   2.740  11.580  10.300
 2369DOPG   GL250284   2.890  11.760  10.110
 2369DOPG   C1A50285   3.090  11.510  10.580
 2369DOPG   D2A50286   3.460  11.500  10.780
 2369DOPG   C3A50287   3.770  11.800  10.650
 2369DOPG   C4A50288   4.050  12.100  10.390
 2369DOPG   C1B50289   2.980  12.060  10.300
 2369DOPG   D2B50290   2.810  12.330  10.460
 2369DOPG   C3B50291   3.150  12.600  10.590
 2369DOPG   C4B50292   3.470  12.760  10.510
 2370DOPG   GL050293   5.460   7.620  14.350
 2370DOPG   PO450294   5.230   8.040  14.300
 2370DOPG   GL150295   5.480   8.200  14.320
 2370DOPG   GL250296   5.360   8.470  14.570
 2370DOPG   C1A50297   5.800   8.450  14.120
 2370DOPG   D2A50298   6.070   8.680  13.800
 2370DOPG   C3A50299   5.840   9.130  13.630
 2370DOPG   C4A50300   5.720   9.460  13.480
 2370DOPG   C1B50301   5.470   8.920  14.620
 2370DOPG   D2B50302   5.580   9.380  14.820
 2370DOPG   C3B50303   5.790   9.750  14.590
 2370DOPG   C4B50304   6.040  10.090  14.420
 2371DOPG   GL050305  13.420  21.680  13.720
 2371DOPG   PO450306  13.570  22.040  13.770
 2371DOPG   GL150307  13.800  22.430  13.460
 2371DOPG   GL250308  13.640  22.650  13.690
 2371DOPG   C1A50309  14.270  22.620  13.540
 2371DOPG   D2A50310  14.610  22.980  13.620
 2371DOPG   C3A50311  14.660  23.210  14.050
 2371DOPG   C4A50312  14.390  23.360  14.330
 2371DOPG   C1B50313  13.910  22.960  13.690
 2371DOPG   D2B50314  13.860  23.320  13.390
 2371DOPG   C3B50315  13.940  23.710  13.470
 2371DOPG   C4B50316  13.930  23.960  13.110
 2372DOPG   GL050317  33.680  21.570  16.830
 2372DOPG   PO450318  34.080  21.430  17.020
 2372DOPG   GL150319  34.400  21.560  16.710
 2372DOPG   GL250320  34.470  21.830  16.930
 2372DOPG   C1A50321  34.690  21.650  16.350
 2372DOPG   D2A50322  34.940  21.410  15.990
 2372DOPG   C3A50323  35.120  21.650  15.690
 2372DOPG   C4A50324  35.450  21.910  15.570
 2372DOPG   C1B50325  34.790  21.810  17.130
 2372DOPG   D2B50326  35.120  22.130  17.290
 2372DOPG   C3B50327  35.530  21.990  17.080
 2372DOPG   C4B50328  35.850  21.730  17.080
 2373DOPG   GL050329  35.170  13.360  12.490
 2373DOPG   PO450330  35.290  13.630  12.810
 2373DOPG   GL150331  35.780  13.630  12.580
 2373DOPG   GL250332  35.910  13.880  12.250
 2373DOPG   C1A50333  36.180  13.360  12.530
 2373DOPG   D2A50334   0.250  13.540  12.400
 2373DOPG   C3A50335   0.700  13.800  12.450
 2373DOPG   C4A50336   1.090  13.950  12.740
 2373DOPG   C1B50337  36.300  13.940  12.470
 2373DOPG   D2B50338   0.330  13.950  12.700
 2373DOPG   C3B50339   0.600  14.280  12.600
 2373DOPG   C4B50340   0.510  14.740  12.620
 2374DOPG   GL050341  17.100  16.990  10.090
 2374DOPG   PO450342  17.430  17.090  10.370
 2374DOPG   GL150343  17.200  17.290  10.490
 2374DOPG   GL250344  17.180  17.570  10.450
 2374DOPG   C1A50345  16.750  17.300  10.770
 2374DOPG   D2A50346  16.300  17.200  10.980
 2374DOPG   C3A50347  16.180  16.720  10.860
 2374DOPG   C4A50348  16.200  16.300  10.960
 2374DOPG   C1B50349  16.880  17.810  10.480
 2374DOPG   D2B50350  16.720  17.960  10.920
 2374DOPG   C3B50351  16.490  17.990  11.350
 2374DOPG   C4B50352  16.490  18.070  11.740
 2375DOPG   GL050353  14.730  20.570  20.750
 2375DOPG   PO450354  14.790  21.030  20.640
 2375DOPG   GL150355  14.660  20.810  20.300
 2375DOPG   GL250356  14.900  20.680  20.240
 2375DOPG   C1A50357  14.340  20.650  20.040
 2375DOPG   D2A50358  14.070  20.750  19.780
 2375DOPG   C3A50359  14.070  20.350  19.500
 2375DOPG   C4A50360  13.840  20.040  19.230
 2375DOPG   C1B50361  14.940  20.460  19.970
 2375DOPG   D2B50362  14.920  20.010  20.010
 2375DOPG   C3B50363  14.570  19.690  19.930
 2375DOPG   C4B50364  14.320  19.780  20.200
 2376DOPG   GL050365   9.400  20.220  14.890
 2376DOPG   PO450366   8.970  20.390  14.910
 2376DOPG   GL150367   8.600  20.410  14.720
 2376DOPG   GL250368   8.560  20.340  14.480
 2376DOPG   C1A50369   8.230  20.690  14.570
 2376DOPG   D2A50370   7.840  20.790  14.490
 2376DOPG   C3A50371   7.710  20.440  14.550
 2376DOPG   C4A50372   7.520  20.390  14.930
 2376DOPG   C1B50373   8.140  20.180  14.540
 2376DOPG   D2B50374   7.760  19.970  14.310
 2376DOPG   C3B50375   7.450  20.010  14.630
 2376DOPG   C4B50376   7.140  20.290  14.590
 2377DOPG   GL050377   1.910  29.030  18.770
 2377DOPG   PO450378   2.100  28.780  18.480
 2377DOPG   GL150379   1.990  28.410  18.350
 2377DOPG   GL250380   2.130  28.260  18.600
 2377DOPG   C1A50381   1.940  28.010  18.220
 2377DOPG   D2A50382   2.010  27.870  17.820
 2377DOPG   C3A50383   2.260  27.540  17.820
 2377DOPG   C4A50384   2.380  27.310  17.600
 2377DOPG   C1B50385   2.390  27.840  18.430
 2377DOPG   D2B50386   2.640  27.640  18.120
 2377DOPG   C3B50387   2.660  27.170  18.300
 2377DOPG   C4B50388   2.550  26.730  18.400
 2378DOPG   GL050389  35.860  26.090  18.960
 2378DOPG   PO450390  35.800  25.790  18.730
 2378DOPG   GL150391  36.200  25.650  18.570
 2378DOPG   GL250392   0.090  25.730  18.410
 2378DOPG   C1A50393  36.280  25.330  18.280
 2378DOPG   D2A50394   0.180  24.950  18.090
 2378DOPG   C3A50395   0.610  24.860  18.220
 2378DOPG   C4A50396   0.740  24.800  18.620
 2378DOPG   C1B50397   0.350  25.350  18.570
 2378DOPG   D2B50398   0.770  25.380  18.670
 2378DOPG   C3B50399   1.020  25.140  18.910
 2378DOPG   C4B50400   1.040  24.720  19.160
 2379DOPG   GL050401  21.440  25.310  17.710
 2379DOPG   PO450402  21.410  25.290  18.270
 2379DOPG   GL150403  21.040  25.160  18.050
 2379DOPG   GL250404  20.840  25.390  18.330
 2379DOPG   C1A50405  20.650  24.940  18.160
 2379DOPG   D2A50406  20.240  24.650  18.250
 2379DOPG   C3A50407  19.890  24.570  17.980
 2379DOPG   C4A50408  19.840  24.510  17.510
 2379DOPG   C1B50409  20.450  25.460  18.400
 2379DOPG   D2B50410  20.260  25.830  18.390
 2379DOPG   C3B50411  20.080  25.900  17.930
 2379DOPG   C4B50412  19.810  25.860  17.640
 2380DOPG   GL050413  10.210  17.050  16.470
 2380DOPG   PO450414   9.910  16.790  16.520
 2380DOPG   GL150415   9.690  16.580  16.770
 2380DOPG   GL250416   9.560  16.750  16.940
 2380DOPG   C1A50417   9.380  16.220  16.850
 2380DOPG   D2A50418   9.330  16.070  17.240
 2380DOPG   C3A50419   9.260  15.600  17.280
 2380DOPG   C4A50420   9.040  15.250  17.250
 2380DOPG   C1B50421   9.250  16.620  17.240
 2380DOPG   D2B50422   8.940  16.380  17.500
 2380DOPG   C3B50423   8.600  16.580  17.650
 2380DOPG   C4B50424   8.330  16.960  17.460
 2381DOPG   GL050425   3.140  24.950  23.750
 2381DOPG   PO450426   3.160  25.050  24.180
 2381DOPG   GL150427   3.620  24.930  24.040
 2381DOPG   GL250428   3.760  24.820  24.220
 2381DOPG   C1A50429   3.740  24.770  23.720
 2381DOPG   D2A50430   3.390  24.440  23.640
 2381DOPG   C3A50431   3.430  24.130  24.000
 2381DOPG   C4A50432   3.480  23.670  23.950
 2381DOPG   C1B50433   3.850  24.390  24.110
 2381DOPG   D2B50434   3.830  24.200  23.750
 2381DOPG   C3B50435   4.030  24.180  23.420
 2381DOPG   C4B50436   4.160  24.050  23.030
 2382DOPG   GL050437  10.490  20.650  17.820
 2382DOPG   PO450438  10.480  20.910  18.090
 2382DOPG   GL150439  10.260  20.750  18.370
 2382DOPG   GL250440  10.470  20.680  18.540
 2382DOPG   C1A50441  10.020  20.780  18.730
 2382DOPG   D2A50442   9.670  20.580  18.820
 2382DOPG   C3A50443   9.440  20.370  18.490
 2382DOPG   C4A50444   9.210  20.340  18.150
 2382DOPG   C1B50445  10.530  20.920  18.820
 2382DOPG   D2B50446  10.530  21.360  18.920
 2382DOPG   C3B50447  10.270  21.450  19.220
 2382DOPG   C4B50448  10.050  21.360  19.560
 2383DOPG   GL050449   3.980  11.070   7.450
 2383DOPG   PO450450   4.310  11.090   7.750
 2383DOPG   GL150451   4.410  11.530   8.010
 2383DOPG   GL250452   4.750  11.600   8.010
 2383DOPG   C1A50453   4.160  11.700   8.270
 2383DOPG   D2A50454   4.180  12.030   8.680
 2383DOPG   C3A50455   4.660  12.140   8.690
 2383DOPG   C4A50456   4.990  12.030   8.520
 2383DOPG   C1B50457   4.650  11.890   8.190
 2383DOPG   D2B50458   4.710  12.330   8.190
 2383DOPG   C3B50459   4.940  12.680   8.500
 2383DOPG   C4B50460   5.160  13.040   8.740
 2384DOPG   GL050461  14.460  18.070  13.280
 2384DOPG   PO450462  14.780  17.810  13.570
 2384DOPG   GL150463  15.100  17.580  13.380
 2384DOPG   GL250464  15.380  17.710  13.240
 2384DOPG   C1A50465  15.390  17.210  13.130
 2384DOPG   D2A50466  15.820  17.040  12.980
 2384DOPG   C3A50467  15.710  16.600  12.710
 2384DOPG   C4A50468  15.830  16.330  12.500
 2384DOPG   C1B50469  15.640  17.580  12.990
 2384DOPG   D2B50470  15.910  17.430  12.670
 2384DOPG   C3B50471  16.370  17.460  12.590
 2384DOPG   C4B50472  16.750  17.490  12.930
 2385DOPG   GL050473   6.240  12.580  16.580
 2385DOPG   PO450474   6.140  12.460  16.230
 2385DOPG   GL150475   6.210  12.020  16.210
 2385DOPG   GL250476   6.190  11.860  16.480
 2385DOPG   C1A50477   5.810  11.730  16.180
 2385DOPG   D2A50478   5.440  11.470  16.200
 2385DOPG   C3A50479   5.090  11.420  16.460
 2385DOPG   C4A50480   5.010  11.310  16.940
 2385DOPG   C1B50481   5.820  12.100  16.630
 2385DOPG   D2B50482   5.600  11.950  17.010
 2385DOPG   C3B50483   5.400  11.690  17.210
 2385DOPG   C4B50484   5.380  11.530  17.620
 2386DOPG   GL050485   1.950  26.700   9.800
 2386DOPG   PO450486   2.120  27.190   9.830
 2386DOPG   GL150487   2.210  26.950  10.200
 2386DOPG   GL250488   2.540  27.020  10.130
 2386DOPG   C1A50489   2.350  26.570  10.270
 2386DOPG   D2A50490   2.510  26.380  10.620
 2386DOPG   C3A50491   2.770  26.050  10.520
 2386DOPG   C4A50492   3.060  25.670  10.700
 2386DOPG   C1B50493   2.690  27.000  10.530
 2386DOPG   D2B50494   2.710  26.820  10.900
 2386DOPG   C3B50495   2.940  26.410  10.880
 2386DOPG   C4B50496   3.260  26.090  10.900
 2387DOPG   GL050497   6.890  13.510  11.580
 2387DOPG   PO450498   7.350  13.400  11.710
 2387DOPG   GL150499   7.540  13.700  11.910
 2387DOPG   GL250500   7.480  13.730  12.200
 2387DOPG   C1A50501   7.890  13.920  12.000
 2387DOPG   D2A50502   7.980  14.320  12.260
 2387DOPG   C3A50503   7.860  14.410  12.650
 2387DOPG   C4A50504   7.880  14.090  12.940
 2387DOPG   C1B50505   7.740  13.760  12.550
 2387DOPG   D2B50506   8.160  13.910  12.560
 2387DOPG   C3B50507   8.560  14.080  12.890
 2387DOPG   C4B50508   8.890  14.510  12.930
 2388DOPG   GL050509  14.550  19.380  15.000
 2388DOPG   PO450510  14.640  19.490  15.380
 2388DOPG   GL150511  15.110  19.570  15.670
 2388DOPG   GL250512  15.270  19.220  15.510
 2388DOPG   C1A50513  15.470  19.590  15.840
 2388DOPG   D2A50514  15.860  19.690  15.940
 2388DOPG   C3A50515  16.150  19.280  16.090
 2388DOPG   C4A50516  16.450  19.100  16.550
 2388DOPG   C1B50517  15.730  19.140  15.540
 2388DOPG   D2B50518  15.980  18.810  15.760
 2388DOPG   C3B50519  16.440  18.720  15.570
 2388DOPG   C4B50520  16.720  19.040  15.510
 2389DOPG   GL050521   3.430  28.230  22.350
 2389DOPG   PO450522   3.460  28.020  21.940
 2389DOPG   GL150523   3.640  27.530  21.850
 2389DOPG   GL250524   3.370  27.360  21.610
 2389DOPG   C1A50525   3.950  27.370  21.500
 2389DOPG   D2A50526   4.250  27.130  21.200
 2389DOPG   C3A50527   4.520  26.760  21.380
 2389DOPG   C4A50528   4.860  26.480  21.570
 2389DOPG   C1B50529   3.310  27.060  21.310
 2389DOPG   D2B50530   3.160  26.720  21.280
 2389DOPG   C3B50531   3.640  26.470  21.190
 2389DOPG   C4B50532   3.990  26.150  21.090
 2390DOPG   GL050533  34.490  17.630  15.930
 2390DOPG   PO450534  34.360  17.640  16.380
 2390DOPG   GL150535  34.650  17.970  16.450
 2390DOPG   GL250536  34.840  18.010  16.800
 2390DOPG   C1A50537  35.020  17.850  16.320
 2390DOPG   D2A50538  35.300  17.940  16.080
 2390DOPG   C3A50539  35.430  18.110  15.740
 2390DOPG   C4A50540  35.500  18.220  15.430
 2390DOPG   C1B50541  35.300  17.960  16.810
 2390DOPG   D2B50542  35.620  18.000  16.530
 2390DOPG   C3B50543  35.900  18.330  16.670
 2390DOPG   C4B50544  36.040  18.610  16.430
 2391DOPG   GL050545  12.440  17.270  12.150
 2391DOPG   PO450546  12.450  17.190  11.600
 2391DOPG   GL150547  12.420  17.270  11.160
 2391DOPG   GL250548  12.710  17.110  11.130
 2391DOPG   C1A50549  12.250  17.170  10.910
 2391DOPG   D2A50550  12.280  17.240  10.470
 2391DOPG   C3A50551  11.900  17.340  10.350
 2391DOPG   C4A50552  11.470  17.110  10.440
 2391DOPG   C1B50553  12.780  17.090  10.690
 2391DOPG   D2B50554  12.620  16.850  10.350
 2391DOPG   C3B50555  12.830  16.700  10.060
 2391DOPG   C4B50556  13.010  16.830   9.680
 2392DOPG   GL050557  11.520  20.630  12.480
 2392DOPG   PO450558  11.800  20.960  12.250
 2392DOPG   GL150559  11.790  20.960  11.830
 2392DOPG   GL250560  11.530  20.990  11.740
 2392DOPG   C1A50561  11.940  21.160  11.450
 2392DOPG   D2A50562  11.990  21.340  11.130
 2392DOPG   C3A50563  11.910  21.150  10.790
 2392DOPG   C4A50564  12.030  21.280  10.320
 2392DOPG   C1B50565  11.090  21.190  11.660
 2392DOPG   D2B50566  11.140  21.590  11.490
 2392DOPG   C3B50567  10.950  21.860  11.190
 2392DOPG   C4B50568  10.560  21.870  10.950
 2393DOPG   GL050569  13.130  16.470  12.650
 2393DOPG   PO450570  13.420  16.360  12.850
 2393DOPG   GL150571  13.330  15.930  12.610
 2393DOPG   GL250572  12.990  15.960  12.570
 2393DOPG   C1A50573  13.530  15.720  12.520
 2393DOPG   D2A50574  13.570  15.620  12.080
 2393DOPG   C3A50575  14.010  15.650  11.930
 2393DOPG   C4A50576  14.350  15.850  12.180
 2393DOPG   C1B50577  13.010  15.590  12.400
 2393DOPG   D2B50578  12.980  15.140  12.190
 2393DOPG   C3B50579  13.220  15.020  11.870
 2393DOPG   C4B50580  13.750  15.080  11.780
 2394DOPG   GL050581  16.230  21.030   3.570
 2394DOPG   PO450582  16.160  21.410   3.440
 2394DOPG   GL150583  16.010  21.350   3.880
 2394DOPG   GL250584  16.240  21.490   4.100
 2394DOPG   C1A50585  15.720  21.110   4.180
 2394DOPG   D2A50586  15.550  21.050   4.660
 2394DOPG   C3A50587  15.180  21.180   5.010
 2394DOPG   C4A50588  15.260  21.540   5.190
 2394DOPG   C1B50589  16.350  21.560   4.540
 2394DOPG   D2B50590  16.410  21.960   4.880
 2394DOPG   C3B50591  16.000  22.140   4.940
 2394DOPG   C4B50592  15.720  22.190   5.240
 2395DOPG   GL050593  14.090  21.830  14.130
 2395DOPG   PO450594  14.210  21.680  14.510
 2395DOPG   GL150595  14.580  21.910  14.620
 2395DOPG   GL250596  14.780  21.990  15.020
 2395DOPG   C1A50597  14.710  22.330  14.510
 2395DOPG   D2A50598  15.040  22.590  14.590
 2395DOPG   C3A50599  14.990  22.850  14.870
 2395DOPG   C4A50600  14.740  22.820  15.240
 2395DOPG   C1B50601  14.970  22.310  15.220
 2395DOPG   D2B50602  15.290  22.470  15.340
 2395DOPG   C3B50603  15.670  22.330  15.190
 2395DOPG   C4B50604  16.010  22.520  15.010
 2396DOPG   GL050605  10.950  15.490  15.690
 2396DOPG   PO450606  11.090  15.170  15.560
 2396DOPG   GL150607  11.070  14.760  15.450
 2396DOPG   GL250608  10.720  14.790  15.480
 2396DOPG   C1A50609  11.170  14.340  15.700
 2396DOPG   D2A50610  10.800  14.010  15.750
 2396DOPG   C3A50611  10.450  14.000  15.410
 2396DOPG   C4A50612  10.020  13.910  15.300
 2396DOPG   C1B50613  10.640  14.470  15.850
 2396DOPG   D2B50614  10.720  14.320  16.260
 2396DOPG   C3B50615  11.060  13.930  16.290
 2396DOPG   C4B50616  11.090  13.780  16.710
 2397DOPG   GL050617   9.920  16.240  13.800
 2397DOPG   PO450618   9.770  16.110  13.480
 2397DOPG   GL150619   9.410  15.830  13.210
 2397DOPG   GL250620   9.220  15.570  13.360
 2397DOPG   C1A50621   9.260  15.630  12.780
 2397DOPG   D2A50622   8.900  15.530  12.510
 2397DOPG   C3A50623   9.040  15.430  12.150
 2397DOPG   C4A50624   9.300  15.180  11.860
 2397DOPG   C1B50625   9.020  15.320  13.150
 2397DOPG   D2B50626   9.000  15.100  12.720
 2397DOPG   C3B50627   8.690  14.810  12.620
 2397DOPG   C4B50628   8.270  14.620  12.600
 2398DOPG   GL050629  10.200  21.950  16.310
 2398DOPG   PO450630  10.180  22.290  16.480
 2398DOPG   GL150631   9.990  22.530  16.730
 2398DOPG   GL250632   9.780  22.300  16.840
 2398DOPG   C1A50633   9.860  22.900  16.880
 2398DOPG   D2A50634   9.750  23.290  17.020
 2398DOPG   C3A50635   9.380  23.400  16.860
 2398DOPG   C4A50636   9.220  23.360  16.440
 2398DOPG   C1B50637   9.590  22.400  17.220
 2398DOPG   D2B50638   9.340  22.640  17.560
 2398DOPG   C3B50639   8.910  22.790  17.370
 2398DOPG   C4B50640   8.480  22.800  17.180
 2399DOPG   GL050641   7.470  12.030  13.580
 2399DOPG   PO450642   7.110  11.840  13.490
 2399DOPG   GL150643   6.920  11.370  13.260
 2399DOPG   GL250644   6.970  11.310  12.900
 2399DOPG   C1A50645   6.870  10.940  13.220
 2399DOPG   D2A50646   6.690  10.520  13.330
 2399DOPG   C3A50647   6.280  10.410  13.460
 2399DOPG   C4A50648   5.870  10.280  13.530
 2399DOPG   C1B50649   6.680  10.960  12.700
 2399DOPG   D2B50650   6.450  10.630  12.410
 2399DOPG   C3B50651   6.540  10.330  12.430
 2399DOPG   C4B50652   6.810   9.960  12.630
 2400DOPG   GL050653  11.990  22.970  26.490
 2400DOPG   PO450654  12.000  22.640  26.590
 2400DOPG   GL150655  12.210  22.540  26.220
 2400DOPG   GL250656  12.270  22.750  26.040
 2400DOPG   C1A50657  12.390  22.160  26.140
 2400DOPG   D2A50658  12.460  21.690  26.210
 2400DOPG   C3A50659  12.590  21.530  25.740
 2400DOPG   C4A50660  12.840  21.490  25.470
 2400DOPG   C1B50661  12.130  22.980  25.580
 2400DOPG   D2B50662  11.980  23.080  25.150
 2400DOPG   C3B50663  11.950  22.950  24.730
 2400DOPG   C4B50664  12.000  22.630  24.440
 2401DOPG   GL050665  11.200  18.140  17.160
 2401DOPG   PO450666  11.480  18.340  17.490
 2401DOPG   GL150667  11.550  18.150  17.920
 2401DOPG   GL250668  11.500  18.140  18.260
 2401DOPG   C1A50669  11.410  17.620  18.110
 2401DOPG   D2A50670  11.380  17.190  18.060
 2401DOPG   C3A50671  11.800  16.940  18.120
 2401DOPG   C4A50672  12.110  16.920  18.290
 2401DOPG   C1B50673  11.620  18.140  18.700
 2401DOPG   D2B50674  11.490  17.870  19.030
 2401DOPG   C3B50675  11.460  18.150  19.420
 2401DOPG   C4B50676  11.250  18.520  19.470
 2402DOPG   GL050677   7.280  24.390  13.030
 2402DOPG   PO450678   7.740  24.430  12.830
 2402DOPG   GL150679   8.100  24.170  12.850
 2402DOPG   GL250680   8.200  24.210  13.150
 2402DOPG   C1A50681   8.490  23.990  12.780
 2402DOPG   D2A50682   8.750  23.660  12.830
 2402DOPG   C3A50683   8.840  23.200  12.690
 2402DOPG   C4A50684   8.780  22.960  12.370
 2402DOPG   C1B50685   8.270  23.740  13.180
 2402DOPG   D2B50686   8.460  23.540  13.640
 2402DOPG   C3B50687   8.450  23.180  13.630
 2402DOPG   C4B50688   8.610  22.800  13.820
 2403DOPG   GL050689   8.700  19.410  15.020
 2403DOPG   PO450690   9.010  19.740  15.140
 2403DOPG   GL150691   8.600  19.940  15.230
 2403DOPG   GL250692   8.470  19.970  15.500
 2403DOPG   C1A50693   8.350  20.150  15.050
 2403DOPG   D2A50694   8.030  20.420  14.990
 2403DOPG   C3A50695   8.210  20.700  15.070
 2403DOPG   C4A50696   8.490  20.930  15.030
 2403DOPG   C1B50697   7.970  19.890  15.550
 2403DOPG   D2B50698   7.670  19.570  15.400
 2403DOPG   C3B50699   7.610  19.530  14.940
 2403DOPG   C4B50700   7.390  19.270  14.770
 2404DOPG   GL050701  13.240  19.360  11.880
 2404DOPG   PO450702  13.660  19.060  11.760
 2404DOPG   GL150703  13.510  19.330  11.440
 2404DOPG   GL250704  13.170  19.370  11.250
 2404DOPG   C1A50705  13.800  19.410  11.110
 2404DOPG   D2A50706  14.050  19.760  11.100
 2404DOPG   C3A50707  14.410  20.030  11.240
 2404DOPG   C4A50708  14.830  20.180  11.230
 2404DOPG   C1B50709  13.270  19.540  10.890
 2404DOPG   D2B50710  13.570  19.460  10.550
 2404DOPG   C3B50711  13.940  19.490  10.630
 2404DOPG   C4B50712  14.370  19.270  11.000
 2405DOPG   GL050713  13.560  21.510  15.460
 2405DOPG   PO450714  13.680  21.750  15.190
 2405DOPG   GL150715  13.750  22.100  15.340
 2405DOPG   GL250716  14.060  22.160  15.550
 2405DOPG   C1A50717  14.020  22.500  15.180
 2405DOPG   D2A50718  13.900  22.840  14.910
 2405DOPG   C3A50719  14.100  22.910  14.500
 2405DOPG   C4A50720  14.590  22.810  14.450
 2405DOPG   C1B50721  14.490  22.090  15.710
 2405DOPG   D2B50722  14.860  22.390  15.710
 2405DOPG   C3B50723  14.980  22.660  16.150
 2405DOPG   C4B50724  15.090  22.820  16.610
 2406DOPG   GL050725  14.060  13.890   8.530
 2406DOPG   PO450726  14.030  13.940   8.050
 2406DOPG   GL150727  14.120  13.630   7.790
 2406DOPG   GL250728  14.170  13.820   7.470
 2406DOPG   C1A50729  14.540  13.470   7.650
 2406DOPG   D2A50730  14.990  13.350   7.450
 2406DOPG   C3A50731  15.110  13.230   7.090
 2406DOPG   C4A50732  15.280  13.260   6.720
 2406DOPG   C1B50733  14.610  13.770   7.260
 2406DOPG   D2B50734  14.810  13.550   6.910
 2406DOPG   C3B50735  14.530  13.250   6.700
 2406DOPG   C4B50736  14.240  13.430   6.490
 2407DOPG   GL050737  10.370  15.420  15.300
 2407DOPG   PO450738  10.380  15.570  15.730
 2407DOPG   GL150739  10.540  15.180  15.730
 2407DOPG   GL250740  10.800  15.020  15.910
 2407DOPG   C1A50741  10.300  14.880  15.660
 2407DOPG   D2A50742  10.120  14.550  15.810
 2407DOPG   C3A50743   9.800  14.730  16.110
 2407DOPG   C4A50744   9.830  14.980  16.470
 2407DOPG   C1B50745  10.740  14.880  16.240
 2407DOPG   D2B50746  10.870  14.750  16.650
 2407DOPG   C3B50747  10.540  14.430  16.790
 2407DOPG   C4B50748  10.480  13.970  16.590
 2408DOPG   GL050749  10.600  27.680   6.620
 2408DOPG   PO450750  10.090  27.660   6.850
 2408DOPG   GL150751  10.140  27.390   7.180
 2408DOPG   GL250752  10.410  27.350   7.410
 2408DOPG   C1A50753  10.200  26.920   7.180
 2408DOPG   D2A50754  10.150  26.560   7.260
 2408DOPG   C3A50755  10.250  26.220   7.520
 2408DOPG   C4A50756  10.560  26.220   7.930
 2408DOPG   C1B50757  10.410  27.130   7.780
 2408DOPG   D2B50758  10.770  26.920   8.090
 2408DOPG   C3B50759  11.100  27.150   8.090
 2408DOPG   C4B50760  11.300  27.500   7.950
 2409DOPG   GL050761   1.620  21.660  13.950
 2409DOPG   PO450762   1.560  21.450  13.640
 2409DOPG   GL150763   1.160  21.500  13.730
 2409DOPG   GL250764   1.230  21.800  13.440
 2409DOPG   C1A50765   0.780  21.500  13.490
 2409DOPG   D2A50766   0.370  21.750  13.550
 2409DOPG   C3A50767  36.330  22.150  13.590
 2409DOPG   C4A50768  35.810  22.050  13.600
 2409DOPG   C1B50769   0.830  21.940  13.280
 2409DOPG   D2B50770   0.700  21.970  12.920
 2409DOPG   C3B50771   0.260  21.850  13.010
 2409DOPG   C4B50772  36.250  21.690  12.810
 2410DOPG   GL050773  35.340  14.440  16.330
 2410DOPG   PO450774  35.550  14.130  16.170
 2410DOPG   GL150775  35.920  14.130  15.920
 2410DOPG   GL250776  35.740  14.230  15.660
 2410DOPG   C1A50777  36.180  14.110  15.530
 2410DOPG   D2A50778  36.340  13.860  15.160
 2410DOPG   C3A50779  36.210  13.960  14.740
 2410DOPG   C4A50780  36.030  13.950  14.290
 2410DOPG   C1B50781  36.140  14.560  15.740
 2410DOPG   D2B50782   0.220  14.390  15.720
 2410DOPG   C3B50783   0.620  14.720  15.760
 2410DOPG   C4B50784   1.040  14.810  15.680
 2411DOPG   GL050785  19.900  26.260  19.770
 2411DOPG   PO450786  20.050  25.910  20.090
 2411DOPG   GL150787  19.870  25.730  19.770
 2411DOPG   GL250788  19.960  25.880  19.440
 2411DOPG   C1A50789  19.560  25.440  19.540
 2411DOPG   D2A50790  19.210  25.520  19.390
 2411DOPG   C3A50791  19.030  25.960  19.110
 2411DOPG   C4A50792  19.110  26.320  19.030
 2411DOPG   C1B50793  19.950  25.520  19.210
 2411DOPG   D2B50794  20.030  25.460  18.680
 2411DOPG   C3B50795  19.660  25.420  18.360
 2411DOPG   C4B50796  19.520  25.010  18.210
 2412DOPG   GL050797  10.850  15.690  15.210
 2412DOPG   PO450798  10.730  15.460  14.940
 2412DOPG   GL150799  10.660  15.070  14.960
 2412DOPG   GL250800  10.300  14.950  15.160
 2412DOPG   C1A50801  10.780  14.570  14.980
 2412DOPG   D2A50802  10.900  14.240  15.250
 2412DOPG   C3A50803  11.280  14.040  15.300
 2412DOPG   C4A50804  11.610  14.100  15.460
 2412DOPG   C1B50805  10.360  14.530  15.250
 2412DOPG   D2B50806  10.270  14.240  14.950
 2412DOPG   C3B50807  10.430  13.770  14.900
 2412DOPG   C4B50808  10.810  13.550  14.830
 2413DOPG   GL050809  19.010  28.980  16.240
 2413DOPG   PO450810  18.810  29.170  16.520
 2413DOPG   GL150811  18.550  28.920  16.290
 2413DOPG   GL250812  18.580  28.960  15.880
 2413DOPG   C1A50813  18.360  28.670  16.420
 2413DOPG   D2A50814  18.150  28.330  16.400
 2413DOPG   C3A50815  18.120  28.220  16.880
 2413DOPG   C4A50816  18.200  27.890  16.990
 2413DOPG   C1B50817  18.200  28.720  15.950
 2413DOPG   D2B50818  17.790  28.720  16.040
 2413DOPG   C3B50819  17.420  28.390  15.940
 2413DOPG   C4B50820  17.110  28.140  15.920
 2414DOPG   GL050821   4.280  29.050  11.600
 2414DOPG   PO450822   4.250  29.350  11.930
 2414DOPG   GL150823   4.410  29.320  12.310
 2414DOPG   GL250824   4.580  29.530  12.500
 2414DOPG   C1A50825   4.600  29.000  12.660
 2414DOPG   D2A50826   5.040  28.960  12.780
 2414DOPG   C3A50827   5.230  28.760  12.440
 2414DOPG   C4A50828   5.310  28.510  12.200
 2414DOPG   C1B50829   4.920  29.460  12.800
 2414DOPG   D2B50830   5.310  29.330  12.970
 2414DOPG   C3B50831   5.620  29.020  12.790
 2414DOPG   C4B50832   5.770  28.690  12.690
 2415DOPG   GL050833  10.200  19.360  13.080
 2415DOPG   PO450834  10.040  19.250  12.720
 2415DOPG   GL150835   9.720  19.500  12.450
 2415DOPG   GL250836   9.780  19.830  12.310
 2415DOPG   C1A50837   9.390  19.550  12.110
 2415DOPG   D2A50838   9.080  19.620  11.800
 2415DOPG   C3A50839   8.950  19.690  11.380
 2415DOPG   C4A50840   8.940  20.040  11.400
 2415DOPG   C1B50841   9.450  20.060  12.150
 2415DOPG   D2B50842   9.330  20.390  11.870
 2415DOPG   C3B50843   9.600  20.590  11.640
 2415DOPG   C4B50844   9.770  20.530  11.300
 2416DOPG   GL050845   9.360  17.540  14.340
 2416DOPG   PO450846   9.100  17.830  14.140
 2416DOPG   GL150847   8.840  18.080  13.920
 2416DOPG   GL250848   8.880  18.370  13.870
 2416DOPG   C1A50849   8.460  18.160  13.540
 2416DOPG   D2A50850   8.090  17.940  13.320
 2416DOPG   C3A50851   7.910  18.090  12.920
 2416DOPG   C4A50852   7.940  17.980  12.450
 2416DOPG   C1B50853   8.540  18.780  13.950
 2416DOPG   D2B50854   8.600  19.160  13.760
 2416DOPG   C3B50855   8.580  19.540  13.970
 2416DOPG   C4B50856   8.250  19.790  14.190
 2417DOPG   GL050857   6.660  29.790   9.340
 2417DOPG   PO450858   6.860  29.920   9.750
 2417DOPG   GL150859   6.980  29.900  10.070
 2417DOPG   GL250860   7.260  29.700  10.110
 2417DOPG   C1A50861   6.850  29.810  10.380
 2417DOPG   D2A50862   6.650  29.610  10.670
 2417DOPG   C3A50863   6.940  29.420  10.920
 2417DOPG   C4A50864   7.130  29.160  11.050
 2417DOPG   C1B50865   7.130  29.390  10.430
 2417DOPG   D2B50866   7.210  28.980  10.620
 2417DOPG   C3B50867   7.560  28.690  10.490
 2417DOPG   C4B50868   7.880  28.470  10.300
 2418DOPG   GL050869   0.410  17.840   8.720
 2418DOPG   PO450870  36.240  17.920   8.750
 2418DOPG   GL150871   0.100  18.090   9.070
 2418DOPG   GL250872   0.170  17.750   9.200
 2418DOPG   C1A50873   0.420  18.180   9.440
 2418DOPG   D2A50874   0.760  17.920   9.410
 2418DOPG   C3A50875   1.070  18.120   9.190
 2418DOPG   C4A50876   1.340  18.020   8.960
 2418DOPG   C1B50877   0.120  17.200   9.200
 2418DOPG   D2B50878   0.360  16.750   9.080
 2418DOPG   C3B50879   0.780  16.760   9.200
 2418DOPG   C4B50880   1.110  17.080   9.350
 2419DOPG   GL050881  35.020  22.910  11.850
 2419DOPG   PO450882  34.820  23.010  11.510
 2419DOPG   GL150883  35.150  23.180  11.420
 2419DOPG   GL250884  35.400  22.960  11.480
 2419DOPG   C1A50885  35.690  23.400  11.420
 2419DOPG   D2A50886  36.050  23.540  11.490
 2419DOPG   C3A50887   0.100  23.360  11.590
 2419DOPG   C4A50888   0.460  23.140  11.420
 2419DOPG   C1B50889  35.700  22.880  11.850
 2419DOPG   D2B50890  36.010  22.670  11.960
 2419DOPG   C3B50891  36.150  22.790  12.260
 2419DOPG   C4B50892   0.350  22.910  12.280
 2420DOPG   GL050893   8.100  31.230  15.970
 2420DOPG   PO450894   7.790  31.150  16.110
 2420DOPG   GL150895   7.750  30.760  15.840
 2420DOPG   GL250896   7.670  30.940  15.590
 2420DOPG   C1A50897   7.680  30.320  15.770
 2420DOPG   D2A50898   7.790  29.890  15.730
 2420DOPG   C3A50899   7.800  29.730  15.310
 2420DOPG   C4A50900   7.570  29.410  15.110
 2420DOPG   C1B50901   7.290  30.770  15.410
 2420DOPG   D2B50902   7.020  30.500  15.170
 2420DOPG   C3B50903   6.570  30.570  15.170
 2420DOPG   C4B50904   6.210  30.340  14.900
 2421DOPG   GL050905  33.540  23.300  17.680
 2421DOPG   PO450906  34.060  23.300  17.580
 2421DOPG   GL150907  34.480  23.300  17.500
 2421DOPG   GL250908  34.420  23.030  17.340
 2421DOPG   C1A50909  34.950  23.090  17.570
 2421DOPG   D2A50910  35.280  23.110  17.510
 2421DOPG   C3A50911  35.650  22.770  17.580
 2421DOPG   C4A50912  36.000  22.730  17.520
 2421DOPG   C1B50913  34.760  23.020  17.020
 2421DOPG   D2B50914  34.920  23.120  16.570
 2421DOPG   C3B50915  34.820  23.520  16.600
 2421DOPG   C4B50916  34.690  23.830  16.360
 2422DOPG   GL050917  10.150  15.220  13.960
 2422DOPG   PO450918   9.650  15.320  14.010
 2422DOPG   GL150919   9.530  14.880  13.980
 2422DOPG   GL250920   9.790  14.730  13.820
 2422DOPG   C1A50921   9.230  14.660  13.920
 2422DOPG   D2A50922   8.960  14.410  13.750
 2422DOPG   C3A50923   8.790  14.240  13.370
 2422DOPG   C4A50924   8.750  13.770  13.300
 2422DOPG   C1B50925   9.640  14.370  13.860
 2422DOPG   D2B50926   9.840  14.040  14.070
 2422DOPG   C3B50927   9.640  13.740  14.390
 2422DOPG   C4B50928   9.810  13.280  14.560
 2423DOPG   GL050929   7.730  28.100  23.380
 2423DOPG   PO450930   7.850  28.250  23.730
 2423DOPG   GL150931   8.150  27.950  23.560
 2423DOPG   GL250932   8.000  27.670  23.330
 2423DOPG   C1A50933   8.410  27.920  23.160
 2423DOPG   D2A50934   8.280  27.920  22.760
 2423DOPG   C3A50935   8.340  27.510  22.480
 2423DOPG   C4A50936   8.600  27.320  22.160
 2423DOPG   C1B50937   8.090  27.450  22.970
 2423DOPG   D2B50938   8.070  27.100  22.670
 2423DOPG   C3B50939   8.090  27.180  22.230
 2423DOPG   C4B50940   8.140  27.460  21.840
 2424DOPG   GL050941   9.930   8.590   7.850
 2424DOPG   PO450942  10.120   8.440   8.140
 2424DOPG   GL150943  10.230   8.780   8.380
 2424DOPG   GL250944   9.950   8.970   8.340
 2424DOPG   C1A50945  10.410   8.900   8.730
 2424DOPG   D2A50946  10.540   9.010   9.210
 2424DOPG   C3A50947  10.410   9.340   9.350
 2424DOPG   C4A50948  10.120   9.510   9.600
 2424DOPG   C1B50949  10.250   9.330   8.440
 2424DOPG   D2B50950  10.240   9.790   8.580
 2424DOPG   C3B50951   9.980   9.990   8.880
 2424DOPG   C4B50952   9.670  10.370   9.070
 2425DOPG   GL050953   2.060  18.800  13.130
 2425DOPG   PO450954   1.650  18.570  13.250
 2425DOPG   GL150955   1.470  18.250  13.130
 2425DOPG   GL250956   1.390  18.300  12.850
 2425DOPG   C1A50957   1.120  17.870  13.210
 2425DOPG   D2A50958   0.730  17.920  13.460
 2425DOPG   C3A50959   0.370  17.690  13.120
 2425DOPG   C4A50960   0.330  17.210  13.210
 2425DOPG   C1B50961   0.970  18.180  12.690
 2425DOPG   D2B50962   0.590  18.150  12.910
 2425DOPG   C3B50963   0.140  18.240  12.850
 2425DOPG   C4B50964  36.040  17.970  12.900
 2426DOPG   GL050965  34.560  21.120  12.760
 2426DOPG   PO450966  34.440  20.700  12.920
 2426DOPG   GL150967  34.820  20.380  12.990
 2426DOPG   GL250968  34.930  20.270  13.320
 2426DOPG   C1A50969  35.220  20.400  12.780
 2426DOPG   D2A50970  35.610  20.190  12.550
 2426DOPG   C3A50971  35.610  20.140  12.150
 2426DOPG   C4A50972  35.720  19.780  11.960
 2426DOPG   C1B50973  35.430  20.250  13.290
 2426DOPG   D2B50974  35.770  20.140  12.970
 2426DOPG   C3B50975  36.060  19.900  13.220
 2426DOPG   C4B50976  36.170  19.750  13.570
 2427DOPG   GL050977  36.240  21.190   7.480
 2427DOPG   PO450978  36.080  20.840   7.800
 2427DOPG   GL150979   0.130  20.520   7.970
 2427DOPG   GL250980   0.140  20.650   8.270
 2427DOPG   C1A50981   0.590  20.430   7.950
 2427DOPG   D2A50982   0.890  20.180   7.900
 2427DOPG   C3A50983   1.180  19.890   8.100
 2427DOPG   C4A50984   1.420  19.530   8.110
 2427DOPG   C1B50985   0.230  20.800   8.620
 2427DOPG   D2B50986   0.180  20.550   9.020
 2427DOPG   C3B50987   0.300  20.410   9.350
 2427DOPG   C4B50988   0.190  20.080   9.720
 2428DOPG   GL050989   2.800  15.440   5.700
 2428DOPG   PO450990   2.730  15.790   5.910
 2428DOPG   GL150991   2.880  15.930   6.300
 2428DOPG   GL250992   3.210  16.230   6.300
 2428DOPG   C1A50993   3.250  15.790   6.550
 2428DOPG   D2A50994   3.680  15.940   6.570
 2428DOPG   C3A50995   3.940  15.980   6.960
 2428DOPG   C4A50996   4.190  16.370   7.110
 2428DOPG   C1B50997   3.000  16.400   6.730
 2428DOPG   D2B50998   3.150  16.330   7.170
 2428DOPG   C3B50999   3.630  16.400   7.310
 2428DOPG   C4B51000   3.830  16.460   7.830
 2429DOPG   GL051001  12.260  24.960  19.700
 2429DOPG   PO451002  12.000  24.820  19.370
 2429DOPG   GL151003  11.900  24.490  19.230
 2429DOPG   GL251004  12.180  24.540  19.010
 2429DOPG   C1A51005  11.510  24.310  18.990
 2429DOPG   D2A51006  11.490  23.880  18.790
 2429DOPG   C3A51007  11.430  23.770  18.480
 2429DOPG   C4A51008  11.320  23.350  18.200
 2429DOPG   C1B51009  11.940  24.400  18.730
 2429DOPG   D2B51010  11.930  24.060  18.520
 2429DOPG   C3B51011  12.170  24.180  18.180
 2429DOPG   C4B51012  12.040  24.350  17.780
 2430DOPG   GL051013   9.920  21.700  16.710
 2430DOPG   PO451014   9.810  21.550  17.030
 2430DOPG   GL151015   9.650  21.850  17.140
 2430DOPG   GL251016   9.840  21.960  17.450
 2430DOPG   C1A51017   9.350  22.030  17.490
 2430DOPG   D2A51018   9.410  22.220  17.870
 2430DOPG   C3A51019   9.110  22.320  18.100
 2430DOPG   C4A51020   8.880  22.590  18.450
 2430DOPG   C1B51021   9.910  21.950  17.940
 2430DOPG   D2B51022  10.370  21.980  18.120
 2430DOPG   C3B51023  10.590  22.420  18.170
 2430DOPG   C4B51024  10.520  22.790  17.920
 2431DOPG   GL051025   9.620  23.280  10.570
 2431DOPG   PO451026   9.990  23.490  10.530
 2431DOPG   GL151027  10.320  23.290  10.700
 2431DOPG   GL251028  10.440  23.610  10.810
 2431DOPG   C1A51029  10.400  23.090  11.070
 2431DOPG   D2A51030  10.500  22.850  11.420
 2431DOPG   C3A51031  10.260  22.530  11.480
 2431DOPG   C4A51032  10.010  22.320  11.930
 2431DOPG   C1B51033  10.670  23.510  11.210
 2431DOPG   D2B51034  10.830  23.250  11.520
 2431DOPG   C3B51035  11.220  22.910  11.360
 2431DOPG   C4B51036  11.670  22.810  11.510
 2432DOPG   GL051037  13.610  17.420   7.730
 2432DOPG   PO451038  13.290  17.170   7.640
 2432DOPG   GL151039  13.020  17.460   7.930
 2432DOPG   GL251040  12.740  17.700   7.920
 2432DOPG   C1A51041  12.890  17.470   8.400
 2432DOPG   D2A51042  12.950  17.320   8.900
 2432DOPG   C3A51043  13.060  17.000   8.860
 2432DOPG   C4A51044  13.050  16.780   8.500
 2432DOPG   C1B51045  12.360  17.610   8.170
 2432DOPG   D2B51046  12.040  17.600   8.500
 2432DOPG   C3B51047  11.520  17.840   8.490
 2432DOPG   C4B51048  11.090  18.000   8.540
 2433DOPG   GL051049  16.600  10.390  21.000
 2433DOPG   PO451050  16.530   9.960  20.790
 2433DOPG   GL151051  16.090   9.890  20.620
 2433DOPG   GL251052  15.740   9.770  20.810
 2433DOPG   C1A51053  15.730  10.200  20.590
 2433DOPG   D2A51054  15.380  10.230  20.610
 2433DOPG   C3A51055  15.220  10.360  20.290
 2433DOPG   C4A51056  14.980  10.640  19.990
 2433DOPG   C1B51057  15.640   9.840  20.320
 2433DOPG   D2B51058  15.620  10.250  20.060
 2433DOPG   C3B51059  15.660  10.060  19.680
 2433DOPG   C4B51060  15.740   9.630  19.820
 2434DOPG   GL051061  11.230  19.590  12.020
 2434DOPG   PO451062  11.510  19.690  11.800
 2434DOPG   GL151063  11.110  19.800  11.540
 2434DOPG   GL251064  10.780  19.720  11.620
 2434DOPG   C1A51065  11.060  19.960  11.140
 2434DOPG   D2A51066  10.970  19.820  10.710
 2434DOPG   C3A51067  11.300  19.650  10.360
 2434DOPG   C4A51068  11.490  19.400  10.000
 2434DOPG   C1B51069  10.630  19.740  11.180
 2434DOPG   D2B51070  10.450  19.830  10.760
 2434DOPG   C3B51071  10.640  19.700  10.360
 2434DOPG   C4B51072  10.740  19.830   9.950
 2435DOPG   GL051073  13.810  22.570  16.430
 2435DOPG   PO451074  13.440  22.380  16.440
 2435DOPG   GL151075  13.570  22.450  16.880
 2435DOPG   GL251076  13.800  22.470  16.990
 2435DOPG   C1A51077  13.570  22.880  17.140
 2435DOPG   D2A51078  13.800  23.160  17.430
 2435DOPG   C3A51079  13.870  23.070  17.820
 2435DOPG   C4A51080  13.650  23.040  18.250
 2435DOPG   C1B51081  13.550  22.370  17.430
 2435DOPG   D2B51082  13.440  22.460  17.750
 2435DOPG   C3B51083  13.890  22.610  17.980
 2435DOPG   C4B51084  14.380  22.700  18.010
 2436DOPG   GL051085  12.160  12.070   4.370
 2436DOPG   PO451086  12.570  12.230   4.270
 2436DOPG   GL151087  12.520  12.390   4.620
 2436DOPG   GL251088  12.320  12.220   4.860
 2436DOPG   C1A51089  12.740  12.600   4.890
 2436DOPG   D2A51090  12.630  12.790   5.370
 2436DOPG   C3A51091  12.510  13.020   5.610
 2436DOPG   C4A51092  12.590  13.130   6.020
 2436DOPG   C1B51093  12.350  12.390   5.260
 2436DOPG   D2B51094  12.110  12.640   5.600
 2436DOPG   C3B51095  12.330  12.750   5.950
 2436DOPG   C4B51096  12.680  12.710   6.270
 2437DOPG   GL051097   9.310  21.030   7.590
 2437DOPG   PO451098   9.760  21.020   7.500
 2437DOPG   GL151099   9.590  21.030   7.100
 2437DOPG   GL251100   9.800  21.410   7.010
 2437DOPG   C1A51101   9.430  20.980   6.800
 2437DOPG   D2A51102   9.110  21.150   6.510
 2437DOPG   C3A51103   9.340  21.320   6.110
 2437DOPG   C4A51104   9.210  21.150   5.720
 2437DOPG   C1B51105   9.670  21.410   6.580
 2437DOPG   D2B51106   9.740  21.710   6.280
 2437DOPG   C3B51107   9.750  21.570   5.870
 2437DOPG   C4B51108   9.850  21.560   5.390
 2438DOPG   GL051109   1.930  20.280  24.530
 2438DOPG   PO451110   1.860  20.320  24.140
 2438DOPG   GL151111   1.890  20.190  23.750
 2438DOPG   GL251112   1.740  20.290  23.530
 2438DOPG   C1A51113   2.180  20.040  23.570
 2438DOPG   D2A51114   2.430  19.730  23.410
 2438DOPG   C3A51115   2.130  19.790  23.070
 2438DOPG   C4A51116   1.850  19.500  22.990
 2438DOPG   C1B51117   2.090  20.420  23.280
 2438DOPG   D2B51118   2.440  20.250  23.210
 2438DOPG   C3B51119   2.470  20.380  22.750
 2438DOPG   C4B51120   2.500  20.700  22.420
 2439DOPG   GL051121  10.720  21.260  17.170
 2439DOPG   PO451122  10.530  21.590  17.330
 2439DOPG   GL151123  10.370  21.970  17.540
 2439DOPG   GL251124  10.630  22.170  17.760
 2439DOPG   C1A51125  10.220  22.400  17.800
 2439DOPG   D2A51126  10.000  22.440  18.160
 2439DOPG   C3A51127   9.650  22.640  18.110
 2439DOPG   C4A51128   9.250  22.800  18.190
 2439DOPG   C1B51129  10.930  22.490  17.790
 2439DOPG   D2B51130  11.050  22.570  18.270
 2439DOPG   C3B51131  10.820  22.670  18.560
 2439DOPG   C4B51132  10.740  22.870  18.910
 2440DOPG   GL051133  21.300  26.340  16.480
 2440DOPG   PO451134  21.520  26.260  16.770
 2440DOPG   GL151135  21.050  25.920  16.670
 2440DOPG   GL251136  20.920  26.010  16.340
 2440DOPG   C1A51137  20.610  25.640  16.550
 2440DOPG   D2A51138  20.370  25.420  16.260
 2440DOPG   C3A51139  19.930  25.190  16.270
 2440DOPG   C4A51140  19.500  25.140  16.460
 2440DOPG   C1B51141  20.490  25.950  16.120
 2440DOPG   D2B51142  20.090  25.820  15.940
 2440DOPG   C3B51143  20.070  25.390  15.640
 2440DOPG   C4B51144  19.720  25.320  15.440
 2441DOPG   GL051145   5.370  17.310  12.470
 2441DOPG   PO451146   5.840  17.500  12.250
 2441DOPG   GL151147   6.240  17.270  12.300
 2441DOPG   GL251148   6.060  16.950  12.570
 2441DOPG   C1A51149   6.690  17.410  12.370
 2441DOPG   D2A51150   7.000  17.680  12.640
 2441DOPG   C3A51151   7.360  17.460  12.790
 2441DOPG   C4A51152   7.630  17.280  13.100
 2441DOPG   C1B51153   6.560  16.830  12.650
 2441DOPG   D2B51154   6.980  16.710  12.950
 2441DOPG   C3B51155   7.390  16.970  12.760
 2441DOPG   C4B51156   7.840  17.160  12.630
 2442DOPG   GL051157  10.960  22.650  14.470
 2442DOPG   PO451158  11.140  22.680  14.860
 2442DOPG   GL151159  11.060  23.220  14.990
 2442DOPG   GL251160  11.260  23.510  14.820
 2442DOPG   C1A51161  10.950  23.590  15.300
 2442DOPG   D2A51162  10.840  23.900  15.590
 2442DOPG   C3A51163  10.620  23.880  16.050
 2442DOPG   C4A51164  10.480  23.510  16.200
 2442DOPG   C1B51165  10.940  23.720  14.690
 2442DOPG   D2B51166  10.740  24.230  14.690
 2442DOPG   C3B51167  10.330  24.210  14.710
 2442DOPG   C4B51168   9.940  24.140  14.820
 2443DOPG   GL051169  12.840  25.010   3.970
 2443DOPG   PO451170  12.470  24.880   4.170
 2443DOPG   GL151171  12.490  24.570   4.470
 2443DOPG   GL251172  12.600  24.220   4.340
 2443DOPG   C1A51173  12.540  24.590   4.880
 2443DOPG   D2A51174  12.550  24.550   5.230
 2443DOPG   C3A51175  12.700  24.290   5.490
 2443DOPG   C4A51176  12.830  24.080   5.860
 2443DOPG   C1B51177  12.490  23.720   4.400
 2443DOPG   D2B51178  12.280  23.520   4.770
 2443DOPG   C3B51179  12.410  23.220   5.040
 2443DOPG   C4B51180  12.440  23.260   5.440
 2444DOPG   GL051181  17.930  29.320  17.750
 2444DOPG   PO451182  17.870  29.590  18.030
 2444DOPG   GL151183  17.540  29.310  18.090
 2444DOPG   GL251184  17.210  29.330  17.890
 2444DOPG   C1A51185  17.520  28.890  18.120
 2444DOPG   D2A51186  17.810  28.590  17.960
 2444DOPG   C3A51187  17.650  28.220  17.660
 2444DOPG   C4A51188  17.290  28.020  17.400
 2444DOPG   C1B51189  17.110  28.930  17.700
 2444DOPG   D2B51190  17.160  28.400  17.740
 2444DOPG   C3B51191  17.010  28.120  17.980
 2444DOPG   C4B51192  17.220  27.870  18.370
 2445DOPG   GL051193   6.140  15.900  20.240
 2445DOPG   PO451194   6.160  15.640  19.800
 2445DOPG   GL151195   6.080  15.280  20.080
 2445DOPG   GL251196   5.840  15.140  19.940
 2445DOPG   C1A51197   5.820  15.430  20.380
 2445DOPG   D2A51198   5.720  15.350  20.790
 2445DOPG   C3A51199   5.420  15.150  21.010
 2445DOPG   C4A51200   5.070  15.010  21.190
 2445DOPG   C1B51201   5.650  14.910  20.140
 2445DOPG   D2B51202   5.510  14.460  20.280
 2445DOPG   C3B51203   5.300  14.030  20.240
 2445DOPG   C4B51204   5.360  13.660  20.430
 2446DOPG   GL051205  33.550  22.080  15.220
 2446DOPG   PO451206  33.900  22.250  15.510
 2446DOPG   GL151207  34.300  22.150  15.480
 2446DOPG   GL251208  34.320  21.960  15.730
 2446DOPG   C1A51209  34.820  22.110  15.280
 2446DOPG   D2A51210  35.230  21.890  15.130
 2446DOPG   C3A51211  35.510  21.940  14.730
 2446DOPG   C4A51212  35.750  21.710  14.380
 2446DOPG   C1B51213  34.740  21.910  15.880
 2446DOPG   D2B51214  35.020  21.970  16.210
 2446DOPG   C3B51215  35.250  22.120  15.960
 2446DOPG   C4B51216  35.650  22.300  15.810
 2447DOPG   GL051217  13.780  21.100  16.850
 2447DOPG   PO451218  13.820  21.470  17.080
 2447DOPG   GL151219  13.830  21.710  17.430
 2447DOPG   GL251220  13.610  21.690  17.710
 2447DOPG   C1A51221  13.850  22.150  17.750
 2447DOPG   D2A51222  14.170  22.180  18.080
 2447DOPG   C3A51223  14.440  22.200  18.280
 2447DOPG   C4A51224  14.770  21.980  18.540
 2447DOPG   C1B51225  13.850  21.720  18.130
 2447DOPG   D2B51226  14.310  21.630  18.130
 2447DOPG   C3B51227  14.670  21.930  17.960
 2447DOPG   C4B51228  14.790  22.240  17.720
 2448DOPG   GL051229  10.780  21.360  13.780
 2448DOPG   PO451230  10.440  21.220  13.530
 2448DOPG   GL151231  10.090  21.510  13.260
 2448DOPG   GL251232  10.280  21.570  13.020
 2448DOPG   C1A51233   9.660  21.420  12.960
 2448DOPG   D2A51234   9.240  21.170  12.900
 2448DOPG   C3A51235   9.110  21.440  12.550
 2448DOPG   C4A51236   8.890  21.790  12.430
 2448DOPG   C1B51237  10.110  21.890  12.830
 2448DOPG   D2B51238  10.170  21.930  12.410
 2448DOPG   C3B51239   9.720  22.070  12.260
 2448DOPG   C4B51240   9.310  21.980  12.180
 2449DOPG   GL051241  13.110  21.830  16.010
 2449DOPG   PO451242  13.430  21.860  16.270
 2449DOPG   GL151243  13.710  22.190  16.140
 2449DOPG   GL251244  13.650  22.400  15.810
 2449DOPG   C1A51245  14.170  22.310  16.090
 2449DOPG   D2A51246  14.410  22.670  16.270
 2449DOPG   C3A51247  14.180  22.940  16.320
 2449DOPG   C4A51248  13.980  23.310  16.490
 2449DOPG   C1B51249  13.910  22.680  15.980
 2449DOPG   D2B51250  13.920  23.140  15.970
 2449DOPG   C3B51251  14.190  23.360  15.740
 2449DOPG   C4B51252  14.520  23.190  15.500
 2450DOPG   GL051253   8.400  31.760  13.940
 2450DOPG   PO451254   8.810  31.810  13.760
 2450DOPG   GL151255   9.130  31.490  13.850
 2450DOPG   GL251256   9.380  31.270  13.880
 2450DOPG   C1A51257   8.990  31.040  13.970
 2450DOPG   D2A51258   9.070  30.550  13.930
 2450DOPG   C3A51259   9.110  30.070  14.010
 2450DOPG   C4A51260   9.350  29.720  14.230
 2450DOPG   C1B51261   9.820  31.130  14.080
 2450DOPG   D2B51262  10.270  31.170  14.320
 2450DOPG   C3B51263  10.370  30.910  14.640
 2450DOPG   C4B51264  10.420  30.530  14.540
 2451DOPG   GL051265  36.280  27.060  19.050
 2451DOPG   PO451266   0.290  27.190  19.140
 2451DOPG   GL151267   0.590  27.000  18.910
 2451DOPG   GL251268   0.380  26.860  18.640
 2451DOPG   C1A51269   0.860  26.680  18.950
 2451DOPG   D2A51270   0.810  26.300  19.140
 2451DOPG   C3A51271   0.850  26.210  19.580
 2451DOPG   C4A51272   1.030  26.360  19.970
 2451DOPG   C1B51273   0.640  26.670  18.510
 2451DOPG   D2B51274   0.960  26.340  18.530
 2451DOPG   C3B51275   1.240  26.270  18.840
 2451DOPG   C4B51276   1.230  25.990  19.290
 2452DOPG   GL051277  15.140  19.530  13.300
 2452DOPG   PO451278  15.460  19.550  13.410
 2452DOPG   GL151279  15.680  19.530  13.100
 2452DOPG   GL251280  15.940  19.670  13.390
 2452DOPG   C1A51281  16.040  19.570  12.850
 2452DOPG   D2A51282  16.360  19.790  12.870
 2452DOPG   C3A51283  16.610  19.540  13.240
 2452DOPG   C4A51284  16.900  19.090  13.230
 2452DOPG   C1B51285  16.020  20.130  13.410
 2452DOPG   D2B51286  16.310  20.420  13.610
 2452DOPG   C3B51287  16.750  20.420  13.660
 2452DOPG   C4B51288  17.140  20.630  14.020
 2453DOPG   GL051289  10.760  23.130  26.520
 2453DOPG   PO451290  10.440  23.370  26.420
 2453DOPG   GL151291  10.230  23.070  26.100
 2453DOPG   GL251292  10.320  22.800  26.150
 2453DOPG   C1A51293   9.870  22.800  25.980
 2453DOPG   D2A51294   9.780  22.630  25.630
 2453DOPG   C3A51295   9.880  22.860  25.280
 2453DOPG   C4A51296  10.050  22.880  24.760
 2453DOPG   C1B51297  10.270  22.600  25.770
 2453DOPG   D2B51298  10.260  22.530  25.350
 2453DOPG   C3B51299  10.700  22.370  25.030
 2453DOPG   C4B51300  10.800  22.250  24.590
 2454DOPG   GL051301  10.280  18.180  17.160
 2454DOPG   PO451302  10.300  17.760  17.370
 2454DOPG   GL151303  10.120  17.550  17.660
 2454DOPG   GL251304   9.990  17.290  17.390
 2454DOPG   C1A51305   9.950  17.810  18.100
 2454DOPG   D2A51306  10.190  18.010  18.350
 2454DOPG   C3A51307  10.020  17.740  18.690
 2454DOPG   C4A51308  10.240  17.680  19.070
 2454DOPG   C1B51309  10.170  17.040  17.780
 2454DOPG   D2B51310  10.400  16.610  18.030
 2454DOPG   C3B51311  10.800  16.490  17.800
 2454DOPG   C4B51312  11.180  16.140  17.850
 2455DOPG   GL051313  14.690  19.470  15.940
 2455DOPG   PO451314  14.470  19.590  16.320
 2455DOPG   GL151315  14.840  19.630  16.420
 2455DOPG   GL251316  15.170  19.670  16.240
 2455DOPG   C1A51317  15.250  19.680  16.710
 2455DOPG   D2A51318  15.200  19.810  17.080
 2455DOPG   C3A51319  15.510  19.730  17.400
 2455DOPG   C4A51320  15.640  19.580  17.790
 2455DOPG   C1B51321  15.530  19.630  16.300
 2455DOPG   D2B51322  15.950  19.860  16.460
 2455DOPG   C3B51323  16.140  19.820  16.890
 2455DOPG   C4B51324  16.500  19.560  17.200
 2456DOPG   GL051325   9.730  17.610   8.030
 2456DOPG   PO451326   9.650  17.920   7.770
 2456DOPG   GL151327   9.420  18.060   8.140
 2456DOPG   GL251328   9.130  18.160   8.330
 2456DOPG   C1A51329   9.450  17.960   8.590
 2456DOPG   D2A51330   9.830  17.990   8.940
 2456DOPG   C3A51331   9.970  18.250   9.270
 2456DOPG   C4A51332  10.260  18.260   9.700
 2456DOPG   C1B51333   9.070  18.560   8.500
 2456DOPG   D2B51334   9.050  18.800   8.950
 2456DOPG   C3B51335   8.720  18.930   8.980
 2456DOPG   C4B51336   8.840  19.220   9.270
 2457DOPG   GL051337   5.480  20.290  13.910
 2457DOPG   PO451338   5.690  20.710  14.180
 2457DOPG   GL151339   5.930  20.670  14.510
 2457DOPG   GL251340   6.010  20.940  14.850
 2457DOPG   C1A51341   6.290  20.420  14.520
 2457DOPG   D2A51342   6.580  20.080  14.410
 2457DOPG   C3A51343   6.950  19.840  14.730
 2457DOPG   C4A51344   7.250  19.800  15.090
 2457DOPG   C1B51345   6.460  20.830  14.770
 2457DOPG   D2B51346   6.910  20.580  14.920
 2457DOPG   C3B51347   7.310  20.850  14.860
 2457DOPG   C4B51348   7.340  21.240  14.750
 2458DOPG   GL051349  13.290  18.800  11.620
 2458DOPG   PO451350  13.380  18.380  11.540
 2458DOPG   GL151351  13.180  18.250  11.120
 2458DOPG   GL251352  13.240  17.950  11.160
 2458DOPG   C1A51353  13.150  18.520  10.710
 2458DOPG   D2A51354  13.200  18.360  10.420
 2458DOPG   C3A51355  12.800  18.250  10.250
 2458DOPG   C4A51356  12.500  18.450   9.830
 2458DOPG   C1B51357  13.390  17.680  10.880
 2458DOPG   D2B51358  13.740  17.710  10.570
 2458DOPG   C3B51359  14.140  17.550  10.700
 2458DOPG   C4B51360  14.380  17.490  11.050
 2459DOPG   GL051361   3.380  29.580  11.300
 2459DOPG   PO451362   3.700  29.460  11.630
 2459DOPG   GL151363   3.840  29.040  11.730
 2459DOPG   GL251364   4.060  28.880  12.110
 2459DOPG   C1A51365   4.000  28.570  11.750
 2459DOPG   D2A51366   4.430  28.500  11.550
 2459DOPG   C3A51367   4.760  28.820  11.750
 2459DOPG   C4A51368   5.210  28.900  11.900
 2459DOPG   C1B51369   4.430  28.600  12.080
 2459DOPG   D2B51370   4.370  28.180  11.990
 2459DOPG   C3B51371   4.090  28.010  11.890
 2459DOPG   C4B51372   3.860  27.730  11.870
 2460DOPG   GL051373   1.750  21.450  14.380
 2460DOPG   PO451374   1.890  21.530  14.830
 2460DOPG   GL151375   1.370  21.480  14.700
 2460DOPG   GL251376   1.040  21.280  14.780
 2460DOPG   C1A51377   1.090  21.820  14.710
 2460DOPG   D2A51378   0.680  21.920  14.710
 2460DOPG   C3A51379   0.490  21.530  14.750
 2460DOPG   C4A51380   0.050  21.470  14.930
 2460DOPG   C1B51381   0.750  21.220  14.450
 2460DOPG   D2B51382   0.420  21.300  14.320
 2460DOPG   C3B51383   0.280  21.280  13.940
 2460DOPG   C4B51384   0.070  21.390  13.760
 2461DOPG   GL051385  36.050  22.740  20.970
 2461DOPG   PO451386  35.890  23.140  20.890
 2461DOPG   GL151387  36.290  23.240  20.600
 2461DOPG   GL251388  36.280  22.930  20.460
 2461DOPG   C1A51389   0.260  23.390  20.500
 2461DOPG   D2A51390   0.600  23.350  20.510
 2461DOPG   C3A51391   1.050  23.400  20.390
 2461DOPG   C4A51392   1.370  23.390  20.050
 2461DOPG   C1B51393   0.150  22.570  20.580
 2461DOPG   D2B51394   0.190  22.430  21.040
 2461DOPG   C3B51395   0.650  22.540  21.210
 2461DOPG   C4B51396   1.030  22.520  20.990
 2462DOPG   GL051397  10.930  20.830  12.050
 2462DOPG   PO451398  10.840  21.010  12.520
 2462DOPG   GL151399  10.460  21.150  12.380
 2462DOPG   GL251400  10.230  21.310  12.600
 2462DOPG   C1A51401  10.340  21.490  12.050
 2462DOPG   D2A51402  10.120  21.770  11.660
 2462DOPG   C3A51403  10.370  22.010  11.530
 2462DOPG   C4A51404  10.690  22.320  11.360
 2462DOPG   C1B51405   9.830  21.510  12.440
 2462DOPG   D2B51406   9.510  21.790  12.610
 2462DOPG   C3B51407   9.630  21.980  13.010
 2462DOPG   C4B51408   9.590  21.760  13.410
 2463DOPG   GL051409  13.460  16.640  12.320
 2463DOPG   PO451410  13.180  16.290  12.210
 2463DOPG   GL151411  13.270  16.680  11.850
 2463DOPG   GL251412  13.490  16.610  11.830
 2463DOPG   C1A51413  13.100  16.770  11.380
 2463DOPG   D2A51414  12.980  16.700  10.950
 2463DOPG   C3A51415  13.090  16.290  11.020
 2463DOPG   C4A51416  13.410  16.040  11.260
 2463DOPG   C1B51417  13.500  16.480  11.420
 2463DOPG   D2B51418  13.640  16.400  10.950
 2463DOPG   C3B51419  13.420  16.370  10.590
 2463DOPG   C4B51420  13.070  16.630  10.460
 2464DOPG   GL051421   9.040  26.580  24.330
 2464DOPG   PO451422   8.720  26.620  24.740
 2464DOPG   GL151423   8.480  26.500  24.400
 2464DOPG   GL251424   8.580  26.150  24.310
 2464DOPG   C1A51425   8.180  26.480  24.040
 2464DOPG   D2A51426   8.000  26.310  23.640
 2464DOPG   C3A51427   8.110  26.000  23.540
 2464DOPG   C4A51428   8.550  25.760  23.560
 2464DOPG   C1B51429   8.930  26.150  24.070
 2464DOPG   D2B51430   9.250  25.790  24.060
 2464DOPG   C3B51431   9.620  25.750  23.700
 2464DOPG   C4B51432   9.560  25.860  23.270
 2465DOPG   GL051433   3.350   9.120  11.160
 2465DOPG   PO451434   3.830   9.250  11.080
 2465DOPG   GL151435   4.050   9.550  11.300
 2465DOPG   GL251436   4.060   9.390  11.630
 2465DOPG   C1A51437   4.470   9.830  11.290
 2465DOPG   D2A51438   4.840  10.250  11.160
 2465DOPG   C3A51439   5.230  10.360  11.100
 2465DOPG   C4A51440   5.540  10.700  10.770
 2465DOPG   C1B51441   4.370   9.820  11.740
 2465DOPG   D2B51442   4.610  10.160  11.650
 2465DOPG   C3B51443   4.980  10.490  11.730
 2465DOPG   C4B51444   5.220  10.770  11.600
 2466DOPG   GL051445  12.950  16.790  12.270
 2466DOPG   PO451446  12.610  16.740  12.330
 2466DOPG   GL151447  12.790  16.530  11.870
 2466DOPG   GL251448  12.580  16.320  11.760
 2466DOPG   C1A51449  13.060  16.270  11.580
 2466DOPG   D2A51450  13.280  16.090  11.780
 2466DOPG   C3A51451  13.720  16.070  11.760
 2466DOPG   C4A51452  14.170  16.140  11.780
 2466DOPG   C1B51453  12.670  15.950  11.740
 2466DOPG   D2B51454  12.910  15.750  11.420
 2466DOPG   C3B51455  12.980  15.340  11.390
 2466DOPG   C4B51456  12.830  14.940  11.680
 2467DOPG   GL051457   8.560   7.990  19.250
 2467DOPG   PO451458   8.660   7.860  18.790
 2467DOPG   GL151459   8.600   8.190  18.500
 2467DOPG   GL251460   8.730   8.160  18.200
 2467DOPG   C1A51461   8.410   8.600  18.290
 2467DOPG   D2A51462   8.560   9.030  18.050
 2467DOPG   C3A51463   8.340   9.330  18.260
 2467DOPG   C4A51464   8.300   9.760  18.520
 2467DOPG   C1B51465   8.700   8.500  17.870
 2467DOPG   D2B51466   8.670   8.850  17.560
 2467DOPG   C3B51467   8.820   9.260  17.350
 2467DOPG   C4B51468   9.100   9.370  16.990
 2468DOPG   GL051469   2.320  28.940  19.110
 2468DOPG   PO451470   2.390  28.610  19.460
 2468DOPG   GL151471   2.750  28.360  19.630
 2468DOPG   GL251472   2.650  28.070  19.860
 2468DOPG   C1A51473   3.150  28.470  19.610
 2468DOPG   D2A51474   3.570  28.410  19.420
 2468DOPG   C3A51475   3.880  28.150  19.210
 2468DOPG   C4A51476   4.140  27.930  18.890
 2468DOPG   C1B51477   2.660  27.520  19.750
 2468DOPG   D2B51478   2.890  27.140  19.500
 2468DOPG   C3B51479   3.210  26.950  19.720
 2468DOPG   C4B51480   3.310  27.080  20.140
 2469DOPG   GL051481  10.650  16.140  13.110
 2469DOPG   PO451482  10.650  15.710  13.260
 2469DOPG   GL151483  10.510  15.290  13.020
 2469DOPG   GL251484  10.230  15.340  13.150
 2469DOPG   C1A51485  10.710  15.040  12.700
 2469DOPG   D2A51486  10.420  14.850  12.300
 2469DOPG   C3A51487  10.040  14.920  12.520
 2469DOPG   C4A51488   9.690  14.780  12.570
 2469DOPG   C1B51489  10.230  14.910  12.990
 2469DOPG   D2B51490  10.230  14.440  12.760
 2469DOPG   C3B51491  10.670  14.450  12.590
 2469DOPG   C4B51492  11.050  14.690  12.690
 2470DOPG   GL051493   3.310  26.880  22.570
 2470DOPG   PO451494   3.520  27.260  22.650
 2470DOPG   GL151495   3.640  27.110  22.250
 2470DOPG   GL251496   3.300  27.060  21.990
 2470DOPG   C1A51497   3.880  27.030  21.880
 2470DOPG   D2A51498   3.940  26.800  21.450
 2470DOPG   C3A51499   4.250  26.340  21.480
 2470DOPG   C4A51500   4.530  26.010  21.710
 2470DOPG   C1B51501   3.440  26.710  21.760
 2470DOPG   D2B51502   3.780  26.310  21.630
 2470DOPG   C3B51503   4.130  26.180  21.980
 2470DOPG   C4B51504   4.110  26.250  22.530
 2471DOPG   GL051505  13.370  21.990  13.270
 2471DOPG   PO451506  13.770  21.720  13.400
 2471DOPG   GL151507  13.910  21.900  12.990
 2471DOPG   GL251508  13.830  22.190  13.000
 2471DOPG   C1A51509  14.320  22.040  12.790
 2471DOPG   D2A51510  14.520  22.410  12.650
 2471DOPG   C3A51511  14.630  22.480  12.310
 2471DOPG   C4A51512  14.860  22.270  11.920
 2471DOPG   C1B51513  14.090  22.560  13.010
 2471DOPG   D2B51514  14.150  22.980  13.200
 2471DOPG   C3B51515  14.100  23.430  12.910
 2471DOPG   C4B51516  14.360  23.390  12.530
 2472DOPG   GL051517   8.470  30.810  18.070
 2472DOPG   PO451518   8.530  31.040  17.710
 2472DOPG   GL151519   8.600  30.690  17.550
 2472DOPG   GL251520   8.540  30.410  17.780
 2472DOPG   C1A51521   8.580  30.500  17.200
 2472DOPG   D2A51522   8.600  30.060  17.130
 2472DOPG   C3A51523   8.850  29.740  17.320
 2472DOPG   C4A51524   8.960  29.300  17.290
 2472DOPG   C1B51525   8.490  29.980  17.680
 2472DOPG   D2B51526   8.380  29.610  17.380
 2472DOPG   C3B51527   8.070  29.410  17.390
 2472DOPG   C4B51528   7.850  29.070  17.350
 2473DOPG   GL051529  11.650  27.630  17.130
 2473DOPG   PO451530  12.080  27.650  17.080
 2473DOPG   GL151531  11.910  27.960  16.950
 2473DOPG   GL251532  11.560  28.080  16.980
 2473DOPG   C1A51533  11.880  28.230  16.600
 2473DOPG   D2A51534  12.020  28.530  16.400
 2473DOPG   C3A51535  12.000  28.930  16.570
 2473DOPG   C4A51536  11.890  29.360  16.720
 2473DOPG   C1B51537  11.660  28.510  16.910
 2473DOPG   D2B51538  11.550  28.980  17.070
 2473DOPG   C3B51539  11.900  29.170  17.400
 2473DOPG   C4B51540  11.990  29.110  17.790
 2474DOPG   GL051541   4.950  24.390  19.590
 2474DOPG   PO451542   4.640  24.650  19.400
 2474DOPG   GL151543   4.230  24.730  19.570
 2474DOPG   GL251544   3.960  24.890  19.420
 2474DOPG   C1A51545   4.000  24.790  19.890
 2474DOPG   D2A51546   3.790  25.210  20.100
 2474DOPG   C3A51547   3.850  25.600  20.280
 2474DOPG   C4A51548   3.890  25.880  20.540
 2474DOPG   C1B51549   3.590  25.020  19.670
 2474DOPG   D2B51550   3.460  25.330  19.770
 2474DOPG   C3B51551   3.380  25.520  20.250
 2474DOPG   C4B51552   3.520  25.530  20.670
 2475DOPG   GL051553  16.210  14.460  16.070
 2475DOPG   PO451554  16.340  14.120  16.020
 2475DOPG   GL151555  15.880  14.140  15.790
 2475DOPG   GL251556  15.670  13.920  15.870
 2475DOPG   C1A51557  15.580  14.420  15.580
 2475DOPG   D2A51558  15.280  14.580  15.200
 2475DOPG   C3A51559  14.750  14.720  15.160
 2475DOPG   C4A51560  14.420  14.940  15.110
 2475DOPG   C1B51561  15.370  14.140  15.900
 2475DOPG   D2B51562  15.000  14.080  15.990
 2475DOPG   C3B51563  14.700  14.430  16.040
 2475DOPG   C4B51564  14.550  14.860  16.240
 2476DOPG   GL051565  10.470  23.110  15.970
 2476DOPG   PO451566  10.820  22.920  16.180
 2476DOPG   GL151567  10.850  23.150  16.500
 2476DOPG   GL251568  11.120  23.200  16.790
 2476DOPG   C1A51569  10.750  23.490  16.650
 2476DOPG   D2A51570  10.370  23.820  16.580
 2476DOPG   C3A51571  10.130  23.810  16.180
 2476DOPG   C4A51572   9.700  23.920  16.110
 2476DOPG   C1B51573  11.180  23.640  16.870
 2476DOPG   D2B51574  11.310  23.720  17.320
 2476DOPG   C3B51575  11.700  23.510  17.400
 2476DOPG   C4B51576  11.740  23.220  17.850
 2477DOPG   GL051577  34.150  16.980  15.240
 2477DOPG   PO451578  34.240  17.210  15.600
 2477DOPG   GL151579  34.620  17.200  15.750
 2477DOPG   GL251580  34.750  16.980  15.850
 2477DOPG   C1A51581  34.910  17.220  15.460
 2477DOPG   D2A51582  35.370  17.350  15.520
 2477DOPG   C3A51583  35.510  17.590  15.820
 2477DOPG   C4A51584  35.830  17.750  16.030
 2477DOPG   C1B51585  34.700  16.610  15.680
 2477DOPG   D2B51586  35.090  16.490  15.570
 2477DOPG   C3B51587  35.390  16.330  15.840
 2477DOPG   C4B51588  35.760  16.280  16.220
 2478DOPG   GL051589  22.860  24.430  14.260
 2478DOPG   PO451590  22.720  24.070  14.520
 2478DOPG   GL151591  22.290  24.070  14.370
 2478DOPG   GL251592  22.010  24.040  14.600
 2478DOPG   C1A51593  21.900  24.250  14.110
 2478DOPG   D2A51594  21.690  24.050  13.870
 2478DOPG   C3A51595  21.700  23.690  13.710
 2478DOPG   C4A51596  21.510  23.280  13.560
 2478DOPG   C1B51597  21.750  23.890  14.980
 2478DOPG   D2B51598  21.420  23.690  15.210
 2478DOPG   C3B51599  21.010  23.640  15.200
 2478DOPG   C4B51600  20.590  23.680  14.960
 2479DOPG   GL051601  11.190  17.020  16.550
 2479DOPG   PO451602  11.350  17.020  16.990
 2479DOPG   GL151603  11.690  16.910  17.220
 2479DOPG   GL251604  11.930  16.700  17.200
 2479DOPG   C1A51605  11.590  16.770  17.640
 2479DOPG   D2A51606  11.240  16.690  17.900
 2479DOPG   C3A51607  11.280  16.820  18.430
 2479DOPG   C4A51608  11.330  17.130  18.660
 2479DOPG   C1B51609  12.100  16.280  17.280
 2479DOPG   D2B51610  12.260  15.940  17.570
 2479DOPG   C3B51611  12.290  16.100  17.980
 2479DOPG   C4B51612  12.100  16.420  18.190
 2480DOPG   GL051613   8.970  17.670  17.000
 2480DOPG   PO451614   9.260  17.790  17.170
 2480DOPG   GL151615   9.060  17.620  17.510
 2480DOPG   GL251616   8.750  17.660  17.440
 2480DOPG   C1A51617   8.750  17.230  17.660
 2480DOPG   D2A51618   8.600  16.930  17.990
 2480DOPG   C3A51619   8.340  17.190  18.140
 2480DOPG   C4A51620   8.190  17.470  18.460
 2480DOPG   C1B51621   8.590  17.800  17.690
 2480DOPG   D2B51622   8.260  17.670  17.990
 2480DOPG   C3B51623   7.820  17.520  17.820
 2480DOPG   C4B51624   7.340  17.540  17.820
 2481DOPG   GL051625  11.180  15.000  15.010
 2481DOPG   PO451626  11.530  15.030  15.430
 2481DOPG   GL151627  11.500  14.770  15.710
 2481DOPG   GL251628  11.300  14.840  15.930
 2481DOPG   C1A51629  11.740  14.470  15.840
 2481DOPG   D2A51630  11.740  14.120  16.200
 2481DOPG   C3A51631  12.140  13.900  16.280
 2481DOPG   C4A51632  12.490  13.670  16.560
 2481DOPG   C1B51633  11.190  14.510  16.250
 2481DOPG   D2B51634  11.390  14.210  16.530
 2481DOPG   C3B51635  11.720  14.270  16.730
 2481DOPG   C4B51636  12.080  14.100  16.760
 2482DOPG   GL051637  23.750  19.370  16.130
 2482DOPG   PO451638  23.680  19.680  15.840
 2482DOPG   GL151639  23.420  19.280  15.760
 2482DOPG   GL251640  23.290  19.240  16.000
 2482DOPG   C1A51641  23.050  19.220  15.450
 2482DOPG   D2A51642  22.900  19.530  15.150
 2482DOPG   C3A51643  22.580  19.850  15.220
 2482DOPG   C4A51644  22.200  20.050  15.140
 2482DOPG   C1B51645  22.890  19.530  16.080
 2482DOPG   D2B51646  22.580  19.840  16.010
 2482DOPG   C3B51647  22.170  19.960  16.170
 2482DOPG   C4B51648  21.860  19.970  16.140
 2483DOPG   GL051649  16.240  22.850  10.040
 2483DOPG   PO451650  15.830  22.970  10.010
 2483DOPG   GL151651  15.600  22.730  10.270
 2483DOPG   GL251652  15.640  23.020  10.520
 2483DOPG   C1A51653  15.420  22.280  10.390
 2483DOPG   D2A51654  15.500  21.950  10.600
 2483DOPG   C3A51655  15.420  21.600  10.440
 2483DOPG   C4A51656  15.300  21.230  10.620
 2483DOPG   C1B51657  15.650  22.840  10.940
 2483DOPG   D2B51658  15.240  22.810  11.240
 2483DOPG   C3B51659  15.070  22.590  11.550
 2483DOPG   C4B51660  15.370  22.380  11.890
 2484DOPG   GL051661  13.170  26.720   5.250
 2484DOPG   PO451662  13.290  26.430   5.410
 2484DOPG   GL151663  13.080  26.010   5.520
 2484DOPG   GL251664  12.920  26.080   5.760
 2484DOPG   C1A51665  12.760  25.650   5.520
 2484DOPG   D2A51666  12.790  25.270   5.600
 2484DOPG   C3A51667  12.940  24.910   5.410
 2484DOPG   C4A51668  13.050  24.530   5.240
 2484DOPG   C1B51669  13.070  26.040   6.180
 2484DOPG   D2B51670  12.990  25.860   6.550
 2484DOPG   C3B51671  13.100  25.470   6.650
 2484DOPG   C4B51672  13.100  25.260   7.040
 2485DOPG   GL051673  14.150  26.890  14.350
 2485DOPG   PO451674  14.200  27.140  14.750
 2485DOPG   GL151675  14.470  27.490  14.690
 2485DOPG   GL251676  14.760  27.560  14.340
 2485DOPG   C1A51677  14.620  27.910  14.670
 2485DOPG   D2A51678  14.890  28.190  14.680
 2485DOPG   C3A51679  14.850  28.600  14.780
 2485DOPG   C4A51680  14.980  29.020  14.760
 2485DOPG   C1B51681  14.740  27.800  13.930
 2485DOPG   D2B51682  14.830  27.760  13.450
 2485DOPG   C3B51683  15.070  28.020  13.230
 2485DOPG   C4B51684  15.530  28.140  13.140
 2486DOPG   GL051685   8.220  31.170  11.270
 2486DOPG   PO451686   8.310  30.740  11.360
 2486DOPG   GL151687   8.430  30.390  11.480
 2486DOPG   GL251688   8.550  30.440  11.860
 2486DOPG   C1A51689   8.150  29.960  11.650
 2486DOPG   D2A51690   8.050  29.790  12.090
 2486DOPG   C3A51691   8.320  29.530  12.170
 2486DOPG   C4A51692   8.510  29.220  12.370
 2486DOPG   C1B51693   8.560  29.910  11.910
 2486DOPG   D2B51694   8.850  29.550  11.910
 2486DOPG   C3B51695   8.880  29.140  12.060
 2486DOPG   C4B51696   8.620  28.780  12.090
 2487DOPG   GL051697  12.310  18.380  11.930
 2487DOPG   PO451698  12.110  18.110  11.590
 2487DOPG   GL151699  12.110  18.030  11.150
 2487DOPG   GL251700  12.100  17.730  11.110
 2487DOPG   C1A51701  11.990  18.150  10.900
 2487DOPG   D2A51702  12.000  18.560  10.710
 2487DOPG   C3A51703  12.150  19.000  10.660
 2487DOPG   C4A51704  12.130  19.270  10.540
 2487DOPG   C1B51705  12.200  17.760  10.710
 2487DOPG   D2B51706  12.390  17.780  10.290
 2487DOPG   C3B51707  12.410  17.450  10.010
 2487DOPG   C4B51708  12.440  16.980   9.870
 2488DOPG   GL051709   0.690  18.600   7.520
 2488DOPG   PO451710   0.930  18.520   7.150
 2488DOPG   GL151711   1.290  18.800   7.300
 2488DOPG   GL251712   1.270  19.060   7.050
 2488DOPG   C1A51713   1.580  18.710   7.550
 2488DOPG   D2A51714   1.910  18.600   7.750
 2488DOPG   C3A51715   2.170  18.790   7.970
 2488DOPG   C4A51716   2.360  19.280   8.090
 2488DOPG   C1B51717   1.690  19.090   6.940
 2488DOPG   D2B51718   1.970  19.000   6.630
 2488DOPG   C3B51719   2.180  18.730   6.830
 2488DOPG   C4B51720   2.550  18.810   7.110
 2489DOPG   GL051721  14.180  16.340  12.450
 2489DOPG   PO451722  14.190  16.320  12.920
 2489DOPG   GL151723  14.590  16.220  12.680
 2489DOPG   GL251724  14.780  16.370  12.820
 2489DOPG   C1A51725  14.690  16.210  12.220
 2489DOPG   D2A51726  14.970  15.970  11.910
 2489DOPG   C3A51727  14.610  15.670  11.690
 2489DOPG   C4A51728  14.530  15.350  11.470
 2489DOPG   C1B51729  14.980  16.010  12.700
 2489DOPG   D2B51730  14.930  15.580  12.440
 2489DOPG   C3B51731  14.500  15.400  12.190
 2489DOPG   C4B51732  14.270  15.180  11.860
 2490DOPG   GL051733  15.410  19.060  14.960
 2490DOPG   PO451734  15.110  18.730  14.830
 2490DOPG   GL151735  15.410  18.530  14.860
 2490DOPG   GL251736  15.310  18.240  14.820
 2490DOPG   C1A51737  15.830  18.480  14.790
 2490DOPG   D2A51738  16.290  18.440  14.810
 2490DOPG   C3A51739  16.680  18.410  14.530
 2490DOPG   C4A51740  16.770  18.060  14.220
 2490DOPG   C1B51741  15.640  18.120  15.060
 2490DOPG   D2B51742  16.010  17.990  14.980
 2490DOPG   C3B51743  16.310  18.050  15.220
 2490DOPG   C4B51744  16.610  17.820  15.200
 2491DOPG   GL051745  11.100  15.260  14.580
 2491DOPG   PO451746  11.450  14.970  14.540
 2491DOPG   GL151747  11.290  14.850  14.140
 2491DOPG   GL251748  11.450  14.820  13.900
 2491DOPG   C1A51749  10.970  14.620  14.130
 2491DOPG   D2A51750  10.880  14.270  13.850
 2491DOPG   C3A51751  10.710  13.940  13.920
 2491DOPG   C4A51752  10.760  13.480  13.940
 2491DOPG   C1B51753  11.380  14.310  13.770
 2491DOPG   D2B51754  11.670  14.010  13.540
 2491DOPG   C3B51755  11.410  13.690  13.350
 2491DOPG   C4B51756  11.340  13.710  12.890
 2492DOPG   GL051757  16.450  16.320   9.770
 2492DOPG   PO451758  16.730  16.250  10.020
 2492DOPG   GL151759  16.720  16.540  10.420
 2492DOPG   GL251760  16.490  16.340  10.540
 2492DOPG   C1A51761  16.660  16.870  10.570
 2492DOPG   D2A51762  16.330  17.140  10.490
 2492DOPG   C3A51763  15.920  17.300  10.680
 2492DOPG   C4A51764  15.540  17.410  10.720
 2492DOPG   C1B51765  16.220  16.470  10.350
 2492DOPG   D2B51766  15.760  16.330  10.500
 2492DOPG   C3B51767  15.380  16.490  10.760
 2492DOPG   C4B51768  15.160  16.540  11.080
 2493DOPG   GL051769   9.870  18.030  13.150
 2493DOPG   PO451770   9.650  18.430  13.160
 2493DOPG   GL151771   9.480  18.440  12.810
 2493DOPG   GL251772   9.180  18.380  12.950
 2493DOPG   C1A51773   9.230  18.670  12.510
 2493DOPG   D2A51774   9.140  18.990  12.340
 2493DOPG   C3A51775   8.890  19.310  12.130
 2493DOPG   C4A51776   8.550  19.610  12.080
 2493DOPG   C1B51777   8.730  18.510  13.000
 2493DOPG   D2B51778   8.250  18.420  13.110
 2493DOPG   C3B51779   8.010  18.470  13.420
 2493DOPG   C4B51780   7.590  18.570  13.670
 2494DOPG   GL051781   9.760  17.210  13.510
 2494DOPG   PO451782   9.440  16.940  13.360
 2494DOPG   GL151783   9.010  17.040  13.210
 2494DOPG   GL251784   8.740  17.220  13.520
 2494DOPG   C1A51785   8.840  16.840  12.850
 2494DOPG   D2A51786   8.560  16.710  12.560
 2494DOPG   C3A51787   8.230  16.390  12.360
 2494DOPG   C4A51788   8.170  16.440  11.980
 2494DOPG   C1B51789   8.550  17.190  13.120
 2494DOPG   D2B51790   8.260  16.930  12.970
 2494DOPG   C3B51791   8.320  16.430  12.870
 2494DOPG   C4B51792   8.340  15.910  13.040
 2495DOPG   GL051793  13.130  11.620  13.290
 2495DOPG   PO451794  13.290  12.090  13.440
 2495DOPG   GL151795  13.220  12.510  13.450
 2495DOPG   GL251796  13.180  12.720  13.240
 2495DOPG   C1A51797  13.410  12.500  13.940
 2495DOPG   D2A51798  13.370  12.720  14.250
 2495DOPG   C3A51799  13.720  13.090  14.090
 2495DOPG   C4A51800  13.590  13.470  13.860
 2495DOPG   C1B51801  12.890  13.120  13.440
 2495DOPG   D2B51802  12.550  13.290  13.340
 2495DOPG   C3B51803  12.230  13.530  13.430
 2495DOPG   C4B51804  11.890  13.590  13.640
 2496DOPG   GL051805   6.140  18.450  21.640
 2496DOPG   PO451806   5.660  18.570  21.760
 2496DOPG   GL151807   5.250  18.640  21.920
 2496DOPG   GL251808   5.210  18.560  22.230
 2496DOPG   C1A51809   4.780  18.450  22.010
 2496DOPG   D2A51810   4.660  18.260  22.360
 2496DOPG   C3A51811   4.880  18.370  22.790
 2496DOPG   C4A51812   5.120  18.520  23.100
 2496DOPG   C1B51813   5.160  18.120  22.410
 2496DOPG   D2B51814   5.340  17.720  22.490
 2496DOPG   C3B51815   5.290  17.450  22.830
 2496DOPG   C4B51816   5.630  17.090  23.070
 2497DOPG   GL051817  11.650  22.200  17.700
 2497DOPG   PO451818  11.510  22.500  17.270
 2497DOPG   GL151819  11.890  22.870  17.230
 2497DOPG   GL251820  12.130  22.990  16.930
 2497DOPG   C1A51821  12.140  23.140  17.390
 2497DOPG   D2A51822  12.220  23.630  17.380
 2497DOPG   C3A51823  11.980  23.910  17.540
 2497DOPG   C4A51824  11.570  24.060  17.580
 2497DOPG   C1B51825  11.870  23.470  16.940
 2497DOPG   D2B51826  11.740  23.900  16.950
 2497DOPG   C3B51827  12.110  24.010  17.040
 2497DOPG   C4B51828  12.410  23.810  16.980
 2498DOPG   GL051829  12.610  15.840  15.310
 2498DOPG   PO451830  12.910  15.570  15.200
 2498DOPG   GL151831  12.950  15.310  15.590
 2498DOPG   GL251832  13.260  15.370  15.700
 2498DOPG   C1A51833  12.940  15.070  15.970
 2498DOPG   D2A51834  12.970  14.770  16.260
 2498DOPG   C3A51835  12.910  14.350  16.270
 2498DOPG   C4A51836  12.640  13.910  16.170
 2498DOPG   C1B51837  13.370  14.930  15.750
 2498DOPG   D2B51838  13.630  14.530  15.870
 2498DOPG   C3B51839  13.400  14.330  16.150
 2498DOPG   C4B51840  13.310  14.270  16.510
 2499DOPG   GL051841  11.260  17.910  27.030
 2499DOPG   PO451842  11.570  18.240  26.920
 2499DOPG   GL151843  11.600  18.340  26.450
 2499DOPG   GL251844  11.870  18.330  26.370
 2499DOPG   C1A51845  11.440  18.200  26.160
 2499DOPG   D2A51846  11.560  18.280  25.750
 2499DOPG   C3A51847  11.910  18.180  25.600
 2499DOPG   C4A51848  12.270  18.110  25.390
 2499DOPG   C1B51849  12.000  18.430  26.020
 2499DOPG   D2B51850  11.950  18.940  25.890
 2499DOPG   C3B51851  12.280  19.140  26.050
 2499DOPG   C4B51852  12.390  19.570  26.130
 2500DOPG   GL051853  16.140  24.200  11.660
 2500DOPG   PO451854  15.990  23.810  11.750
 2500DOPG   GL151855  15.720  23.530  11.700
 2500DOPG   GL251856  15.430  23.550  11.560
 2500DOPG   C1A51857  15.710  23.180  11.870
 2500DOPG   D2A51858  15.660  22.720  11.800
 2500DOPG   C3A51859  15.600  22.480  11.360
 2500DOPG   C4A51860  15.540  22.060  11.390
 2500DOPG   C1B51861  15.200  23.470  11.940
 2500DOPG   D2B51862  14.850  23.370  12.280
 2500DOPG   C3B51863  14.870  22.950  12.270
 2500DOPG   C4B51864  14.640  22.780  11.920
 2501DOPG   GL051865  11.690  31.910  12.920
 2501DOPG   PO451866  11.530  31.570  12.870
 2501DOPG   GL151867  11.620  31.170  12.910
 2501DOPG   GL251868  11.890  31.070  12.920
 2501DOPG   C1A51869  11.490  30.880  13.280
 2501DOPG   D2A51870  11.320  30.440  13.240
 2501DOPG   C3A51871  11.510  30.050  13.510
 2501DOPG   C4A51872  11.760  29.650  13.550
 2501DOPG   C1B51873  11.750  30.710  12.860
 2501DOPG   D2B51874  11.640  30.280  12.930
 2501DOPG   C3B51875  11.970  30.030  13.230
 2501DOPG   C4B51876  12.270  29.690  13.540
 2502DOPG   GL051877  36.180  24.760  21.450
 2502DOPG   PO451878  36.340  24.580  21.870
 2502DOPG   GL151879   0.410  24.400  21.860
 2502DOPG   GL251880   0.580  24.420  21.490
 2502DOPG   C1A51881   0.800  24.340  21.930
 2502DOPG   D2A51882   1.260  24.180  21.910
 2502DOPG   C3A51883   1.520  24.260  22.180
 2502DOPG   C4A51884   1.670  24.710  22.360
 2502DOPG   C1B51885   0.910  24.510  21.120
 2502DOPG   D2B51886   1.130  24.780  20.910
 2502DOPG   C3B51887   1.380  24.750  20.530
 2502DOPG   C4B51888   1.760  24.660  20.260
 2503DOPG   GL051889   5.940  18.280   3.460
 2503DOPG   PO451890   5.850  18.350   3.910
 2503DOPG   GL151891   5.790  18.670   4.230
 2503DOPG   GL251892   5.440  18.830   4.200
 2503DOPG   C1A51893   5.960  18.840   4.510
 2503DOPG   D2A51894   5.760  19.070   4.840
 2503DOPG   C3A51895   6.030  19.100   5.160
 2503DOPG   C4A51896   6.440  19.170   5.480
 2503DOPG   C1B51897   5.340  19.220   4.470
 2503DOPG   D2B51898   5.210  19.350   4.830
 2503DOPG   C3B51899   5.370  19.610   5.120
 2503DOPG   C4B51900   5.260  19.540   5.580
 2504DOPG   GL051901  36.110  27.150  14.610
 2504DOPG   PO451902  35.830  26.930  14.730
 2504DOPG   GL151903  36.210  26.670  14.540
 2504DOPG   GL251904   0.060  26.870  14.370
 2504DOPG   C1A51905   0.200  26.400  14.430
 2504DOPG   D2A51906   0.450  26.090  14.380
 2504DOPG   C3A51907   0.690  25.870  14.050
 2504DOPG   C4A51908   0.850  25.640  13.710
 2504DOPG   C1B51909   0.430  26.850  14.550
 2504DOPG   D2B51910   0.620  26.740  14.370
 2504DOPG   C3B51911   1.070  26.740  14.190
 2504DOPG   C4B51912   1.490  26.470  14.030
 2505DOPG   GL051913   4.110  30.760  17.100
 2505DOPG   PO451914   4.350  30.520  17.390
 2505DOPG   GL151915   4.570  30.150  17.050
 2505DOPG   GL251916   4.450  30.020  16.700
 2505DOPG   C1A51917   4.770  29.590  16.980
 2505DOPG   D2A51918   4.900  29.320  16.690
 2505DOPG   C3A51919   4.720  29.310  16.250
 2505DOPG   C4A51920   4.480  29.550  15.980
 2505DOPG   C1B51921   4.480  29.610  16.620
 2505DOPG   D2B51922   4.420  29.240  16.600
 2505DOPG   C3B51923   4.520  29.220  17.040
 2505DOPG   C4B51924   4.690  28.910  17.320
 2506DOPG   GL051925  11.730  16.340   7.650
 2506DOPG   PO451926  11.430  16.290   7.920
 2506DOPG   GL151927  11.530  16.420   8.370
 2506DOPG   GL251928  11.580  16.250   8.620
 2506DOPG   C1A51929  11.610  16.770   8.550
 2506DOPG   D2A51930  11.710  17.220   8.740
 2506DOPG   C3A51931  12.080  17.320   8.970
 2506DOPG   C4A51932  12.440  17.490   9.160
 2506DOPG   C1B51933  11.480  16.480   8.910
 2506DOPG   D2B51934  11.750  16.710   9.170
 2506DOPG   C3B51935  11.680  16.910   9.490
 2506DOPG   C4B51936  11.600  17.000   9.940
 2507DOPG   GL051937  17.810  15.790  12.590
 2507DOPG   PO451938  17.830  15.600  13.010
 2507DOPG   GL151939  17.430  15.740  12.930
 2507DOPG   GL251940  17.080  15.650  12.890
 2507DOPG   C1A51941  17.070  16.120  12.830
 2507DOPG   D2A51942  16.740  16.220  12.980
 2507DOPG   C3A51943  16.640  16.620  12.950
 2507DOPG   C4A51944  16.750  16.830  13.300
 2507DOPG   C1B51945  16.730  15.730  12.920
 2507DOPG   D2B51946  16.510  15.850  12.660
 2507DOPG   C3B51947  16.620  15.500  12.320
 2507DOPG   C4B51948  16.300  15.340  12.090
 2508DOPG   GL051949  10.910   6.970  10.070
 2508DOPG   PO451950  10.460   7.210  10.180
 2508DOPG   GL151951  10.440   7.580  10.510
 2508DOPG   GL251952  10.080   7.850  10.470
 2508DOPG   C1A51953  10.440   8.020  10.740
 2508DOPG   D2A51954  10.550   8.280  11.060
 2508DOPG   C3A51955  10.710   8.750  10.930
 2508DOPG   C4A51956  10.670   9.060  10.670
 2508DOPG   C1B51957   9.820   7.900  10.780
 2508DOPG   D2B51958   9.930   8.130  11.080
 2508DOPG   C3B51959   9.640   8.500  11.100
 2508DOPG   C4B51960   9.690   8.860  10.730
 2509DOPG   GL051961   8.440  21.180   3.380
 2509DOPG   PO451962   8.590  21.640   3.440
 2509DOPG   GL151963   8.940  21.450   3.690
 2509DOPG   GL251964   9.190  21.270   3.570
 2509DOPG   C1A51965   9.230  21.220   4.050
 2509DOPG   D2A51966   9.480  21.370   4.380
 2509DOPG   C3A51967   9.850  21.430   4.270
 2509DOPG   C4A51968   9.830  21.770   4.010
 2509DOPG   C1B51969   9.570  21.350   3.730
 2509DOPG   D2B51970  10.010  21.180   3.700
 2509DOPG   C3B51971  10.200  21.050   4.100
 2509DOPG   C4B51972  10.110  21.070   4.520
 2510DOPG   GL051973  12.660  21.600  16.670
 2510DOPG   PO451974  13.130  21.790  16.800
 2510DOPG   GL151975  13.640  21.950  16.700
 2510DOPG   GL251976  13.760  21.950  17.000
 2510DOPG   C1A51977  14.020  22.100  16.590
 2510DOPG   D2A51978  14.260  22.450  16.810
 2510DOPG   C3A51979  14.300  22.550  17.210
 2510DOPG   C4A51980  14.030  22.680  17.500
 2510DOPG   C1B51981  14.050  22.100  17.250
 2510DOPG   D2B51982  14.550  22.010  17.220
 2510DOPG   C3B51983  14.770  22.390  17.120
 2510DOPG   C4B51984  14.950  22.750  17.150
 2511DOPG   GL051985   9.870  18.640  16.690
 2511DOPG   PO451986   9.410  18.460  16.750
 2511DOPG   GL151987   9.160  18.450  17.120
 2511DOPG   GL251988   8.860  18.160  17.300
 2511DOPG   C1A51989   8.690  18.650  17.200
 2511DOPG   D2A51990   8.520  18.970  16.860
 2511DOPG   C3A51991   8.200  18.760  16.500
 2511DOPG   C4A51992   7.820  18.740  16.210
 2511DOPG   C1B51993   8.420  18.280  17.500
 2511DOPG   D2B51994   8.100  18.250  17.830
 2511DOPG   C3B51995   7.680  18.430  17.720
 2511DOPG   C4B51996   7.440  18.800  17.480
 2512DOPG   GL051997   6.170  16.310  11.540
 2512DOPG   PO451998   5.980  16.570  11.880
 2512DOPG   GL151999   6.240  16.750  12.190
 2512DOPG   GL252000   6.330  16.400  12.470
 2512DOPG   C1A52001   6.480  17.040  11.880
 2512DOPG   D2A52002   6.660  17.380  11.820
 2512DOPG   C3A52003   7.200  17.440  11.990
 2512DOPG   C4A52004   7.540  17.580  11.900
 2512DOPG   C1B52005   6.760  16.310  12.720
 2512DOPG   D2B52006   7.040  16.260  12.410
 2512DOPG   C3B52007   7.420  16.490  12.610
 2512DOPG   C4B52008   7.790  16.580  12.790
 2513DOPG   GL052009  13.380  18.060  17.140
 2513DOPG   PO452010  12.940  18.330  17.370
 2513DOPG   GL152011  13.070  18.250  17.690
 2513DOPG   GL252012  13.380  18.270  17.640
 2513DOPG   C1A52013  13.160  17.820  17.830
 2513DOPG   D2A52014  13.490  17.560  17.950
 2513DOPG   C3A52015  13.600  17.410  18.340
 2513DOPG   C4A52016  13.530  17.290  18.790
 2513DOPG   C1B52017  13.480  18.150  18.020
 2513DOPG   D2B52018  13.830  17.900  18.160
 2513DOPG   C3B52019  13.930  17.760  18.580
 2513DOPG   C4B52020  14.160  17.920  18.980
 2514DOPG   GL052021  10.800  16.200  11.890
 2514DOPG   PO452022  10.540  16.280  12.100
 2514DOPG   GL152023  10.360  15.900  11.950
 2514DOPG   GL252024  10.570  15.830  11.660
 2514DOPG   C1A52025  10.190  15.580  11.660
 2514DOPG   D2A52026  10.250  15.260  11.390
 2514DOPG   C3A52027  10.460  14.830  11.380
 2514DOPG   C4A52028  10.760  14.720  11.540
 2514DOPG   C1B52029  11.040  15.850  11.480
 2514DOPG   D2B52030  11.350  15.500  11.380
 2514DOPG   C3B52031  11.780  15.710  11.530
 2514DOPG   C4B52032  12.210  15.600  11.850
 2515DOPG   GL052033  34.880  17.620  19.100
 2515DOPG   PO452034  35.190  17.970  19.180
 2515DOPG   GL152035  35.460  18.120  18.950
 2515DOPG   GL252036  35.790  18.080  19.100
 2515DOPG   C1A52037  35.750  18.300  18.630
 2515DOPG   D2A52038  36.230  18.420  18.520
 2515DOPG   C3A52039   0.050  18.730  18.700
 2515DOPG   C4A52040   0.160  18.960  19.050
 2515DOPG   C1B52041  36.060  17.960  18.800
 2515DOPG   D2B52042   0.090  17.820  18.690
 2515DOPG   C3B52043   0.550  17.960  18.920
 2515DOPG   C4B52044   0.930  18.030  19.120
 2516DOPG   GL052045  11.210  11.100  17.160
 2516DOPG   PO452046  11.240  10.710  16.940
 2516DOPG   GL152047  11.440  10.360  16.680
 2516DOPG   GL252048  11.780  10.200  16.790
 2516DOPG   C1A52049  11.280   9.900  16.720
 2516DOPG   D2A52050  11.160   9.470  16.790
 2516DOPG   C3A52051  11.190   9.180  17.170
 2516DOPG   C4A52052  11.130   8.850  17.390
 2516DOPG   C1B52053  11.680   9.900  17.010
 2516DOPG   D2B52054  11.570   9.580  17.170
 2516DOPG   C3B52055  11.800   9.220  17.360
 2516DOPG   C4B52056  11.870   9.010  17.840
 2517DOPG   GL052057  14.350  18.960  12.860
 2517DOPG   PO452058  14.290  19.480  12.710
 2517DOPG   GL152059  14.760  19.720  12.710
 2517DOPG   GL252060  14.860  19.810  12.300
 2517DOPG   C1A52061  15.160  19.640  12.660
 2517DOPG   D2A52062  15.570  19.470  12.490
 2517DOPG   C3A52063  15.910  19.480  12.270
 2517DOPG   C4A52064  16.350  19.430  12.360
 2517DOPG   C1B52065  15.140  20.080  12.180
 2517DOPG   D2B52066  15.130  20.110  11.660
 2517DOPG   C3B52067  14.980  19.770  11.400
 2517DOPG   C4B52068  14.770  19.690  11.040
 2518DOPG   GL052069  16.240  25.810  13.630
 2518DOPG   PO452070  16.220  25.400  13.210
 2518DOPG   GL152071  16.590  25.820  13.240
 2518DOPG   GL252072  16.780  25.780  13.420
 2518DOPG   C1A52073  16.810  26.080  12.920
 2518DOPG   D2A52074  17.180  26.410  12.890
 2518DOPG   C3A52075  17.350  26.790  12.940
 2518DOPG   C4A52076  17.840  26.930  12.950
 2518DOPG   C1B52077  17.010  26.190  13.430
 2518DOPG   D2B52078  17.280  26.410  13.350
 2518DOPG   C3B52079  17.680  26.320  13.340
 2518DOPG   C4B52080  18.040  26.400  13.020
 2519DOPG   GL052081  12.920  23.690  21.520
 2519DOPG   PO452082  12.920  23.800  21.930
 2519DOPG   GL152083  13.040  24.020  22.230
 2519DOPG   GL252084  13.300  24.180  22.100
 2519DOPG   C1A52085  13.300  24.020  22.540
 2519DOPG   D2A52086  13.480  24.190  22.850
 2519DOPG   C3A52087  13.900  24.350  23.020
 2519DOPG   C4A52088  14.170  24.350  23.350
 2519DOPG   C1B52089  13.290  24.500  22.490
 2519DOPG   D2B52090  13.180  24.740  22.800
 2519DOPG   C3B52091  13.340  24.570  23.250
 2519DOPG   C4B52092  13.260  24.300  23.520
 2520DOPG   GL052093  11.440  21.610  17.210
 2520DOPG   PO452094  11.530  21.650  17.600
 2520DOPG   GL152095  11.720  21.740  18.000
 2520DOPG   GL252096  11.620  21.590  18.170
 2520DOPG   C1A52097  11.760  22.240  18.200
 2520DOPG   D2A52098  11.960  22.350  18.620
 2520DOPG   C3A52099  11.880  22.540  18.970
 2520DOPG   C4A52100  11.730  22.520  19.320
 2520DOPG   C1B52101  11.250  21.510  18.360
 2520DOPG   D2B52102  10.990  21.710  18.720
 2520DOPG   C3B52103  11.220  21.810  19.130
 2520DOPG   C4B52104  11.350  21.590  19.540
 2521DOPG   GL052105  13.400  21.750  12.160
 2521DOPG   PO452106  13.510  21.380  11.950
 2521DOPG   GL152107  13.830  21.510  11.620
 2521DOPG   GL252108  14.010  21.250  11.560
 2521DOPG   C1A52109  13.990  21.830  11.420
 2521DOPG   D2A52110  14.280  21.950  11.160
 2521DOPG   C3A52111  14.740  21.900  11.090
 2521DOPG   C4A52112  15.150  21.880  11.070
 2521DOPG   C1B52113  14.010  21.430  11.160
 2521DOPG   D2B52114  13.820  21.600  10.910
 2521DOPG   C3B52115  13.730  22.030  11.020
 2521DOPG   C4B52116  13.530  22.210  11.290
 2522DOPG   GL052117   9.820  22.230  15.510
 2522DOPG   PO452118   9.470  22.230  15.590
 2522DOPG   GL152119   9.090  22.180  15.860
 2522DOPG   GL252120   9.040  22.460  15.770
 2522DOPG   C1A52121   8.920  22.020  16.200
 2522DOPG   D2A52122   8.580  22.130  16.490
 2522DOPG   C3A52123   8.430  22.330  16.850
 2522DOPG   C4A52124   8.210  22.200  17.260
 2522DOPG   C1B52125   8.540  22.230  15.830
 2522DOPG   D2B52126   8.080  22.200  15.760
 2522DOPG   C3B52127   7.950  22.150  15.290
 2522DOPG   C4B52128   7.470  22.050  15.330
 2523DOPG   GL052129  15.420  24.590  17.890
 2523DOPG   PO452130  15.780  24.730  17.790
 2523DOPG   GL152131  15.750  24.190  17.600
 2523DOPG   GL252132  15.740  24.070  17.350
 2523DOPG   C1A52133  15.380  23.880  17.570
 2523DOPG   D2A52134  15.040  23.890  17.250
 2523DOPG   C3A52135  14.770  24.130  17.340
 2523DOPG   C4A52136  14.570  24.330  17.690
 2523DOPG   C1B52137  15.570  23.760  17.040
 2523DOPG   D2B52138  15.190  23.410  17.060
 2523DOPG   C3B52139  14.940  23.210  16.820
 2523DOPG   C4B52140  14.750  23.080  16.420
 2524DOPG   GL052141  17.140  20.200  18.750
 2524DOPG   PO452142  17.140  20.100  19.180
 2524DOPG   GL152143  16.750  20.120  19.050
 2524DOPG   GL252144  16.480  19.910  19.240
 2524DOPG   C1A52145  16.360  20.240  18.860
 2524DOPG   D2A52146  15.990  20.490  18.640
 2524DOPG   C3A52147  15.850  20.330  18.180
 2524DOPG   C4A52148  15.960  20.570  17.720
 2524DOPG   C1B52149  16.410  19.730  18.840
 2524DOPG   D2B52150  16.300  19.750  18.330
 2524DOPG   C3B52151  16.740  19.740  18.100
 2524DOPG   C4B52152  17.160  19.880  18.280
 2525DOPG   GL052153   9.550  16.060  25.910
 2525DOPG   PO452154   9.820  16.090  26.280
 2525DOPG   GL152155   9.940  16.390  25.910
 2525DOPG   GL252156   9.850  16.500  25.780
 2525DOPG   C1A52157  10.320  16.530  25.810
 2525DOPG   D2A52158  10.730  16.400  25.590
 2525DOPG   C3A52159  11.000  16.480  25.360
 2525DOPG   C4A52160  10.870  16.470  25.030
 2525DOPG   C1B52161   9.980  16.680  25.480
 2525DOPG   D2B52162  10.500  16.660  25.240
 2525DOPG   C3B52163  10.640  16.940  24.910
 2525DOPG   C4B52164  10.860  17.030  24.440
 2526DOPG   GL052165  14.440  21.860   2.730
 2526DOPG   PO452166  14.260  21.680   3.120
 2526DOPG   GL152167  14.010  21.490   3.460
 2526DOPG   GL252168  13.800  21.630   3.630
 2526DOPG   C1A52169  13.900  21.020   3.620
 2526DOPG   D2A52170  13.900  20.650   3.700
 2526DOPG   C3A52171  13.710  20.430   3.890
 2526DOPG   C4A52172  13.910  20.120   4.150
 2526DOPG   C1B52173  13.620  21.480   4.010
 2526DOPG   D2B52174  13.870  21.240   4.120
 2526DOPG   C3B52175  14.270  21.230   3.900
 2526DOPG   C4B52176  14.640  21.120   4.100
 2527DOPG   GL052177  11.370  21.420  13.300
 2527DOPG   PO452178  11.090  21.700  13.540
 2527DOPG   GL152179  10.890  22.070  13.330
 2527DOPG   GL252180  10.970  22.160  13.120
 2527DOPG   C1A52181  10.490  22.150  13.070
 2527DOPG   D2A52182  10.250  22.440  12.810
 2527DOPG   C3A52183  10.260  22.880  12.940
 2527DOPG   C4A52184   9.920  23.050  13.280
 2527DOPG   C1B52185  10.790  22.580  13.230
 2527DOPG   D2B52186  10.410  22.580  13.380
 2527DOPG   C3B52187  10.090  22.640  13.690
 2527DOPG   C4B52188   9.650  22.760  13.720
 2528DOPG   GL052189  17.570  17.810  24.810
 2528DOPG   PO452190  17.550  18.340  24.700
 2528DOPG   GL152191  17.130  18.260  24.550
 2528DOPG   GL252192  17.200  18.610  24.440
 2528DOPG   C1A52193  16.820  18.190  24.280
 2528DOPG   D2A52194  16.640  17.950  24.130
 2528DOPG   C3A52195  16.640  17.940  23.720
 2528DOPG   C4A52196  16.950  17.950  23.330
 2528DOPG   C1B52197  17.130  18.480  24.040
 2528DOPG   D2B52198  16.790  18.430  23.850
 2528DOPG   C3B52199  16.680  18.390  23.350
 2528DOPG   C4B52200  16.770  18.630  23.010
 2529DOPG   GL052201  10.920  18.020  11.980
 2529DOPG   PO452202  11.130  17.900  11.540
 2529DOPG   GL152203  11.300  17.740  11.240
 2529DOPG   GL252204  11.610  17.730  11.220
 2529DOPG   C1A52205  11.250  17.830  10.780
 2529DOPG   D2A52206  11.380  17.730  10.360
 2529DOPG   C3A52207  11.490  18.110  10.080
 2529DOPG   C4A52208  11.250  18.270   9.730
 2529DOPG   C1B52209  11.710  17.670  10.800
 2529DOPG   D2B52210  11.810  18.000  10.400
 2529DOPG   C3B52211  11.990  17.720   9.960
 2529DOPG   C4B52212  12.220  17.590   9.600
 2530DOPG   GL052213   3.110  23.530   5.800
 2530DOPG   PO452214   3.070  23.340   6.090
 2530DOPG   GL152215   3.030  23.150   6.460
 2530DOPG   GL252216   2.980  22.960   6.570
 2530DOPG   C1A52217   3.470  23.030   6.660
 2530DOPG   D2A52218   3.400  22.850   7.180
 2530DOPG   C3A52219   3.620  23.210   7.330
 2530DOPG   C4A52220   3.760  23.580   7.520
 2530DOPG   C1B52221   2.900  22.680   6.990
 2530DOPG   D2B52222   3.040  22.430   7.240
 2530DOPG   C3B52223   3.310  22.390   7.500
 2530DOPG   C4B52224   3.760  22.470   7.630
 2531DOPG   GL052225   2.370  30.050  15.190
 2531DOPG   PO452226   2.100  29.880  14.890
 2531DOPG   GL152227   2.610  29.680  14.810
 2531DOPG   GL252228   2.730  29.730  15.110
 2531DOPG   C1A52229   2.880  29.310  14.970
 2531DOPG   D2A52230   3.300  29.160  15.030
 2531DOPG   C3A52231   3.640  29.210  14.750
 2531DOPG   C4A52232   3.730  29.250  14.360
 2531DOPG   C1B52233   3.200  29.660  15.250
 2531DOPG   D2B52234   3.350  29.460  15.610
 2531DOPG   C3B52235   3.450  28.990  15.590
 2531DOPG   C4B52236   3.830  28.730  15.800
 2532DOPG   GL052237   7.390  24.280  15.720
 2532DOPG   PO452238   7.530  24.530  16.070
 2532DOPG   GL152239   7.930  24.820  15.830
 2532DOPG   GL252240   8.020  24.850  15.540
 2532DOPG   C1A52241   8.370  24.670  15.880
 2532DOPG   D2A52242   8.790  24.630  15.670
 2532DOPG   C3A52243   9.110  24.370  15.510
 2532DOPG   C4A52244   9.210  24.390  15.090
 2532DOPG   C1B52245   8.180  24.410  15.450
 2532DOPG   D2B52246   7.960  24.010  15.500
 2532DOPG   C3B52247   8.290  23.800  15.310
 2532DOPG   C4B52248   8.520  23.600  15.020
 2533DOPG   GL052249   8.050  30.030  21.920
 2533DOPG   PO452250   8.520  29.980  21.830
 2533DOPG   GL152251   8.630  29.520  21.550
 2533DOPG   GL252252   8.570  29.760  21.230
 2533DOPG   C1A52253   8.560  29.230  21.140
 2533DOPG   D2A52254   8.620  28.860  20.850
 2533DOPG   C3A52255   8.750  28.680  20.380
 2533DOPG   C4A52256   8.620  28.990  20.000
 2533DOPG   C1B52257   8.990  29.450  21.200
 2533DOPG   D2B52258   9.040  29.080  21.120
 2533DOPG   C3B52259   8.790  28.910  21.440
 2533DOPG   C4B52260   8.610  29.150  21.800
 2534DOPG   GL052261  14.230  18.450  15.500
 2534DOPG   PO452262  14.610  18.560  15.680
 2534DOPG   GL152263  15.060  18.660  15.590
 2534DOPG   GL252264  15.240  18.720  15.350
 2534DOPG   C1A52265  15.420  18.750  15.900
 2534DOPG   D2A52266  15.360  18.790  16.290
 2534DOPG   C3A52267  15.750  18.710  16.580
 2534DOPG   C4A52268  16.080  18.810  16.690
 2534DOPG   C1B52269  15.680  18.540  15.420
 2534DOPG   D2B52270  16.050  18.580  15.230
 2534DOPG   C3B52271  16.560  18.480  15.210
 2534DOPG   C4B52272  16.900  18.290  15.070
 2535DOPG   GL052273  23.880  21.020  13.550
 2535DOPG   PO452274  23.600  20.790  13.320
 2535DOPG   GL152275  23.230  20.670  13.280
 2535DOPG   GL252276  23.200  20.780  13.650
 2535DOPG   C1A52277  22.720  20.560  13.240
 2535DOPG   D2A52278  22.440  20.470  13.390
 2535DOPG   C3A52279  22.040  20.540  13.530
 2535DOPG   C4A52280  21.600  20.560  13.350
 2535DOPG   C1B52281  22.750  20.680  13.790
 2535DOPG   D2B52282  22.430  20.680  13.960
 2535DOPG   C3B52283  22.100  21.020  13.850
 2535DOPG   C4B52284  22.060  21.460  13.700
 2536DOPG   GL052285   8.790  17.570  15.400
 2536DOPG   PO452286   8.590  17.440  15.700
 2536DOPG   GL152287   8.180  17.550  15.630
 2536DOPG   GL252288   8.050  17.270  15.460
 2536DOPG   C1A52289   7.670  17.400  15.610
 2536DOPG   D2A52290   7.370  17.060  15.560
 2536DOPG   C3A52291   7.260  16.680  15.880
 2536DOPG   C4A52292   7.360  16.300  15.990
 2536DOPG   C1B52293   7.930  16.850  15.640
 2536DOPG   D2B52294   7.680  16.620  15.340
 2536DOPG   C3B52295   7.600  16.280  15.560
 2536DOPG   C4B52296   7.790  16.020  15.880
 2537DOPG   GL052297  11.860  23.240  14.460
 2537DOPG   PO452298  11.860  22.860  14.360
 2537DOPG   GL152299  12.130  23.030  14.050
 2537DOPG   GL252300  11.920  23.370  13.890
 2537DOPG   C1A52301  12.410  23.210  13.890
 2537DOPG   D2A52302  12.590  23.570  13.780
 2537DOPG   C3A52303  12.480  23.700  13.330
 2537DOPG   C4A52304  12.600  23.610  12.870
 2537DOPG   C1B52305  11.550  23.640  13.940
 2537DOPG   D2B52306  11.180  23.990  13.990
 2537DOPG   C3B52307  10.780  24.010  14.170
 2537DOPG   C4B52308  10.400  24.280  14.170
 2538DOPG   GL052309   8.840  14.190  19.800
 2538DOPG   PO452310   9.130  13.920  19.890
 2538DOPG   GL152311   8.760  13.700  20.180
 2538DOPG   GL252312   8.420  13.470  20.040
 2538DOPG   C1A52313   8.530  13.500  20.520
 2538DOPG   D2A52314   8.450  13.180  20.910
 2538DOPG   C3A52315   8.550  13.180  21.380
 2538DOPG   C4A52316   8.850  13.170  21.750
 2538DOPG   C1B52317   8.430  13.070  20.160
 2538DOPG   D2B52318   8.110  12.700  20.330
 2538DOPG   C3B52319   8.090  12.270  20.300
 2538DOPG   C4B52320   8.130  11.840  20.200
 2539DOPG   GL052321  14.470  19.940  13.150
 2539DOPG   PO452322  14.960  20.020  13.210
 2539DOPG   GL152323  15.480  20.060  13.290
 2539DOPG   GL252324  15.510  20.400  13.400
 2539DOPG   C1A52325  15.810  20.020  12.950
 2539DOPG   D2A52326  15.900  19.960  12.510
 2539DOPG   C3A52327  15.860  20.270  12.300
 2539DOPG   C4A52328  16.130  20.490  12.100
 2539DOPG   C1B52329  15.690  20.530  12.890
 2539DOPG   D2B52330  16.140  20.520  12.790
 2539DOPG   C3B52331  16.390  20.300  12.470
 2539DOPG   C4B52332  16.600  20.330  12.220
 2540DOPG   GL052333  10.440  19.060  17.960
 2540DOPG   PO452334  10.640  18.780  18.030
 2540DOPG   GL152335  10.650  18.950  18.440
 2540DOPG   GL252336  10.270  19.020  18.500
 2540DOPG   C1A52337  10.690  18.910  18.840
 2540DOPG   D2A52338  10.610  19.040  19.260
 2540DOPG   C3A52339  10.640  19.460  19.230
 2540DOPG   C4A52340  10.840  19.840  19.120
 2540DOPG   C1B52341  10.290  19.170  18.920
 2540DOPG   D2B52342  10.020  19.350  19.210
 2540DOPG   C3B52343   9.720  19.730  19.300
 2540DOPG   C4B52344   9.300  19.940  19.290
 2541DOPG   GL052345  13.280  19.580  17.440
 2541DOPG   PO452346  13.300  19.090  17.400
 2541DOPG   GL152347  13.450  19.240  17.810
 2541DOPG   GL252348  13.220  19.140  18.020
 2541DOPG   C1A52349  13.930  19.160  18.030
 2541DOPG   D2A52350  14.260  19.190  18.290
 2541DOPG   C3A52351  14.230  18.820  18.670
 2541DOPG   C4A52352  14.080  18.960  19.020
 2541DOPG   C1B52353  13.530  19.110  18.330
 2541DOPG   D2B52354  13.870  19.140  18.580
 2541DOPG   C3B52355  13.990  19.510  18.810
 2541DOPG   C4B52356  14.370  19.820  18.950
 2542DOPG   GL052357  16.590  16.780  19.250
 2542DOPG   PO452358  16.370  16.690  19.600
 2542DOPG   GL152359  16.060  16.840  19.240
 2542DOPG   GL252360  15.700  16.810  19.360
 2542DOPG   C1A52361  15.920  16.670  18.820
 2542DOPG   D2A52362  15.740  16.660  18.370
 2542DOPG   C3A52363  15.750  16.380  18.000
 2542DOPG   C4A52364  15.550  16.050  17.720
 2542DOPG   C1B52365  15.660  17.140  19.080
 2542DOPG   D2B52366  15.720  17.170  18.670
 2542DOPG   C3B52367  15.880  17.650  18.480
 2542DOPG   C4B52368  15.720  17.860  17.990
 2543DOPG   GL052369  34.620  14.050  16.010
 2543DOPG   PO452370  34.840  14.500  16.150
 2543DOPG   GL152371  35.260  14.810  16.040
 2543DOPG   GL252372  35.190  15.100  15.740
 2543DOPG   C1A52373  35.530  15.190  16.080
 2543DOPG   D2A52374  35.990  15.440  16.010
 2543DOPG   C3A52375  36.300  15.310  15.710
 2543DOPG   C4A52376   0.430  15.220  15.820
 2543DOPG   C1B52377  35.450  15.440  15.670
 2543DOPG   D2B52378  35.860  15.500  15.510
 2543DOPG   C3B52379  36.100  15.760  15.580
 2543DOPG   C4B52380  36.310  16.080  15.300
 2544DOPG   GL052381  12.070  18.570  11.220
 2544DOPG   PO452382  12.410  18.550  11.380
 2544DOPG   GL152383  12.850  18.680  11.260
 2544DOPG   GL252384  12.800  18.910  11.060
 2544DOPG   C1A52385  13.260  18.800  11.100
 2544DOPG   D2A52386  13.620  18.920  10.810
 2544DOPG   C3A52387  14.060  19.010  10.770
 2544DOPG   C4A52388  14.450  19.060  10.530
 2544DOPG   C1B52389  13.080  19.120  10.750
 2544DOPG   D2B52390  13.240  18.940  10.410
 2544DOPG   C3B52391  13.580  19.090  10.230
 2544DOPG   C4B52392  13.850  19.390  10.120
 2545DOPG   GL052393  14.280  19.210  15.770
 2545DOPG   PO452394  14.520  18.980  16.090
 2545DOPG   GL152395  14.910  19.090  16.220
 2545DOPG   GL252396  15.040  19.110  16.450
 2545DOPG   C1A52397  15.280  19.210  16.050
 2545DOPG   D2A52398  15.710  19.150  16.190
 2545DOPG   C3A52399  15.970  19.390  16.550
 2545DOPG   C4A52400  16.150  19.280  16.970
 2545DOPG   C1B52401  15.430  19.210  16.600
 2545DOPG   D2B52402  15.600  19.070  16.920
 2545DOPG   C3B52403  15.710  19.230  17.300
 2545DOPG   C4B52404  16.030  19.520  17.410
 2546DOPG   GL052405  10.920  21.200  13.290
 2546DOPG   PO452406  10.640  21.250  12.950
 2546DOPG   GL152407  10.750  21.490  12.650
 2546DOPG   GL252408  10.640  21.860  12.730
 2546DOPG   C1A52409  10.700  21.830  12.280
 2546DOPG   D2A52410  10.480  22.120  11.980
 2546DOPG   C3A52411  10.510  22.590  11.940
 2546DOPG   C4A52412  10.840  22.780  11.740
 2546DOPG   C1B52413  10.570  22.290  12.440
 2546DOPG   D2B52414  10.150  22.500  12.350
 2546DOPG   C3B52415   9.790  22.490  12.630
 2546DOPG   C4B52416   9.340  22.320  12.810
 2547DOPG   GL052417  35.180  22.260  19.860
 2547DOPG   PO452418  35.380  21.920  20.110
 2547DOPG   GL152419  35.830  21.770  19.940
 2547DOPG   GL252420  35.850  21.610  19.790
 2547DOPG   C1A52421  36.240  21.940  19.810
 2547DOPG   D2A52422   0.230  22.120  19.570
 2547DOPG   C3A52423   0.490  22.550  19.710
 2547DOPG   C4A52424   0.830  22.730  19.820
 2547DOPG   C1B52425  35.960  21.720  19.440
 2547DOPG   D2B52426  36.030  21.470  19.080
 2547DOPG   C3B52427   0.010  21.320  18.820
 2547DOPG   C4B52428   0.420  21.120  18.770
 2548DOPG   GL052429   4.600  29.900  20.610
 2548DOPG   PO452430   4.660  29.480  20.430
 2548DOPG   GL152431   4.980  29.140  20.250
 2548DOPG   GL252432   5.200  29.420  20.090
 2548DOPG   C1A52433   5.130  28.760  20.360
 2548DOPG   D2A52434   5.400  28.480  20.180
 2548DOPG   C3A52435   5.880  28.690  20.080
 2548DOPG   C4A52436   6.220  28.540  20.350
 2548DOPG   C1B52437   5.470  29.050  20.020
 2548DOPG   D2B52438   5.370  28.760  19.780
 2548DOPG   C3B52439   5.310  28.790  19.400
 2548DOPG   C4B52440   5.200  28.670  19.080
 2549DOPG   GL052441   5.390  30.010  20.310
 2549DOPG   PO452442   5.300  30.050  19.880
 2549DOPG   GL152443   5.220  29.700  19.690
 2549DOPG   GL252444   5.250  29.700  19.320
 2549DOPG   C1A52445   5.450  29.330  19.560
 2549DOPG   D2A52446   5.730  29.260  19.260
 2549DOPG   C3A52447   5.730  28.820  19.150
 2549DOPG   C4A52448   5.960  28.440  19.120
 2549DOPG   C1B52449   5.480  29.830  18.950
 2549DOPG   D2B52450   5.560  29.730  18.550
 2549DOPG   C3B52451   5.340  29.450  18.360
 2549DOPG   C4B52452   4.990  29.090  18.510
 2550DOPG   GL052453  14.630  26.530  24.540
 2550DOPG   PO452454  14.500  26.130  24.350
 2550DOPG   GL152455  14.560  25.980  23.960
 2550DOPG   GL252456  14.280  25.870  23.750
 2550DOPG   C1A52457  14.730  25.590  23.850
 2550DOPG   D2A52458  14.880  25.250  23.800
 2550DOPG   C3A52459  14.860  25.040  23.410
 2550DOPG   C4A52460  14.680  24.950  22.910
 2550DOPG   C1B52461  14.010  25.570  23.520
 2550DOPG   D2B52462  13.970  25.230  23.190
 2550DOPG   C3B52463  14.290  25.230  22.840
 2550DOPG   C4B52464  14.530  25.080  22.410
 2551DOPG   GL052465  18.790  25.160  22.670
 2551DOPG   PO452466  18.930  25.560  22.420
 2551DOPG   GL152467  18.640  25.480  22.250
 2551DOPG   GL252468  18.350  25.690  22.400
 2551DOPG   C1A52469  18.510  25.030  22.110
 2551DOPG   D2A52470  18.330  24.700  21.990
 2551DOPG   C3A52471  17.920  24.590  21.800
 2551DOPG   C4A52472  17.660  24.800  21.530
 2551DOPG   C1B52473  18.220  25.380  22.070
 2551DOPG   D2B52474  18.470  25.450  21.660
 2551DOPG   C3B52475  18.440  25.540  21.210
 2551DOPG   C4B52476  18.290  25.630  20.740
 2552DOPG   GL052477   5.190  28.770  22.230
 2552DOPG   PO452478   5.040  28.430  21.890
 2552DOPG   GL152479   5.130  28.200  21.460
 2552DOPG   GL252480   4.730  28.040  21.540
 2552DOPG   C1A52481   5.420  28.030  21.120
 2552DOPG   D2A52482   5.390  27.720  20.830
 2552DOPG   C3A52483   5.740  27.350  20.770
 2552DOPG   C4A52484   6.000  26.930  20.920
 2552DOPG   C1B52485   4.730  27.790  21.220
 2552DOPG   D2B52486   4.670  27.600  20.840
 2552DOPG   C3B52487   4.960  27.370  20.540
 2552DOPG   C4B52488   5.340  27.340  20.500
 2553DOPG   GL052489   4.800  27.710  22.730
 2553DOPG   PO452490   5.050  27.980  22.650
 2553DOPG   GL152491   5.210  27.800  22.430
 2553DOPG   GL252492   5.580  27.850  22.360
 2553DOPG   C1A52493   5.220  27.480  22.170
 2553DOPG   D2A52494   5.410  27.040  22.060
 2553DOPG   C3A52495   5.440  26.760  21.630
 2553DOPG   C4A52496   5.430  26.530  21.340
 2553DOPG   C1B52497   5.600  27.470  22.560
 2553DOPG   D2B52498   5.890  27.280  22.740
 2553DOPG   C3B52499   5.790  26.810  22.730
 2553DOPG   C4B52500   5.570  26.460  22.930
 2554DOPG   GL052501  14.500  12.210   4.950
 2554DOPG   PO452502  14.200  12.660   4.980
 2554DOPG   GL152503  14.450  12.970   5.140
 2554DOPG   GL252504  14.810  12.960   5.360
 2554DOPG   C1A52505  14.500  13.440   5.130
 2554DOPG   D2A52506  14.250  13.730   5.140
 2554DOPG   C3A52507  14.460  13.970   5.440
 2554DOPG   C4A52508  14.330  14.120   5.850
 2554DOPG   C1B52509  14.580  13.160   5.640
 2554DOPG   D2B52510  14.540  13.250   5.990
 2554DOPG   C3B52511  14.470  13.670   5.930
 2554DOPG   C4B52512  14.240  13.620   5.680
 2555DOPG   GL052513   3.510  10.840   8.810
 2555DOPG   PO452514   3.600  10.990   8.400
 2555DOPG   GL152515   3.880  11.390   8.550
 2555DOPG   GL252516   3.690  11.720   8.500
 2555DOPG   C1A52517   4.160  11.510   8.890
 2555DOPG   D2A52518   4.540  11.670   8.720
 2555DOPG   C3A52519   5.000  11.660   8.900
 2555DOPG   C4A52520   5.280  12.060   8.890
 2555DOPG   C1B52521   3.630  12.160   8.520
 2555DOPG   D2B52522   3.710  12.520   8.330
 2555DOPG   C3B52523   3.890  12.640   8.600
 2555DOPG   C4B52524   4.110  13.030   8.610
 2556DOPG   GL052525  11.680  16.720  16.740
 2556DOPG   PO452526  11.420  16.390  16.690
 2556DOPG   GL152527  11.500  16.440  17.120
 2556DOPG   GL252528  11.200  16.310  17.130
 2556DOPG   C1A52529  11.610  16.290  17.510
 2556DOPG   D2A52530  11.840  16.040  17.800
 2556DOPG   C3A52531  11.880  15.970  18.220
 2556DOPG   C4A52532  12.020  15.660  18.470
 2556DOPG   C1B52533  11.170  15.910  17.400
 2556DOPG   D2B52534  11.020  15.680  17.860
 2556DOPG   C3B52535  10.720  15.950  17.980
 2556DOPG   C4B52536  10.390  16.210  17.830
 2557DOPG   GL052537  11.600  21.790  13.530
 2557DOPG   PO452538  11.430  21.990  13.160
 2557DOPG   GL152539  11.330  22.470  13.230
 2557DOPG   GL252540  11.240  22.620  13.480
 2557DOPG   C1A52541  11.150  22.870  13.060
 2557DOPG   D2A52542  11.180  23.270  12.790
 2557DOPG   C3A52543  11.260  23.630  13.020
 2557DOPG   C4A52544  11.240  23.700  13.430
 2557DOPG   C1B52545  10.890  22.940  13.560
 2557DOPG   D2B52546  10.470  23.050  13.590
 2557DOPG   C3B52547  10.510  23.500  13.410
 2557DOPG   C4B52548  10.640  23.850  13.250
 2558DOPG   GL052549  12.930  30.260   9.020
 2558DOPG   PO452550  13.120  30.020   8.730
 2558DOPG   GL152551  13.200  29.460   8.950
 2558DOPG   GL252552  13.430  29.470   9.140
 2558DOPG   C1A52553  12.960  29.120   9.060
 2558DOPG   D2A52554  12.860  28.710   9.200
 2558DOPG   C3A52555  12.600  28.610   9.580
 2558DOPG   C4A52556  12.420  28.290   9.790
 2558DOPG   C1B52557  13.370  29.210   9.430
 2558DOPG   D2B52558  13.290  28.820   9.680
 2558DOPG   C3B52559  13.080  28.480   9.610
 2558DOPG   C4B52560  12.920  28.170   9.800
 2559DOPG   GL052561   8.850  14.620  20.190
 2559DOPG   PO452562   8.860  14.220  20.310
 2559DOPG   GL152563   8.830  13.890  20.690
 2559DOPG   GL252564   8.480  13.950  20.770
 2559DOPG   C1A52565   8.830  13.540  20.980
 2559DOPG   D2A52566   9.050  13.150  21.210
 2559DOPG   C3A52567   9.050  12.770  21.510
 2559DOPG   C4A52568   9.390  12.410  21.570
 2559DOPG   C1B52569   8.340  13.630  21.090
 2559DOPG   D2B52570   7.970  13.410  21.400
 2559DOPG   C3B52571   7.550  13.600  21.330
 2559DOPG   C4B52572   7.220  13.740  21.620
 2560DOPG   GL052573   8.960  18.650  16.690
 2560DOPG   PO452574   8.890  19.110  16.520
 2560DOPG   GL152575   8.560  19.300  16.370
 2560DOPG   GL252576   8.400  19.150  16.190
 2560DOPG   C1A52577   8.320  19.650  16.350
 2560DOPG   D2A52578   8.090  19.960  16.520
 2560DOPG   C3A52579   7.790  19.800  16.750
 2560DOPG   C4A52580   7.460  19.610  16.950
 2560DOPG   C1B52581   7.980  19.200  16.170
 2560DOPG   D2B52582   7.700  19.600  16.340
 2560DOPG   C3B52583   7.290  19.580  16.110
 2560DOPG   C4B52584   7.310  19.780  15.770
 2561DOPG   GL052585  21.620  12.600  16.430
 2561DOPG   PO452586  21.790  12.280  16.260
 2561DOPG   GL152587  21.370  12.160  16.390
 2561DOPG   GL252588  21.420  12.300  16.790
 2561DOPG   C1A52589  20.960  12.190  16.630
 2561DOPG   D2A52590  20.620  12.460  16.640
 2561DOPG   C3A52591  20.470  12.780  16.310
 2561DOPG   C4A52592  20.170  12.970  16.440
 2561DOPG   C1B52593  21.520  12.700  16.900
 2561DOPG   D2B52594  21.560  12.910  17.310
 2561DOPG   C3B52595  21.360  13.300  17.380
 2561DOPG   C4B52596  20.910  13.270  17.340
 2562DOPG   GL052597  13.370  15.740  15.220
 2562DOPG   PO452598  13.680  15.580  14.850
 2562DOPG   GL152599  13.910  15.530  15.270
 2562DOPG   GL252600  14.040  15.260  15.050
 2562DOPG   C1A52601  14.270  15.430  15.520
 2562DOPG   D2A52602  14.340  15.190  15.840
 2562DOPG   C3A52603  14.640  14.740  15.650
 2562DOPG   C4A52604  14.930  14.420  15.590
 2562DOPG   C1B52605  13.900  14.960  15.430
 2562DOPG   D2B52606  14.070  14.820  15.810
 2562DOPG   C3B52607  14.160  14.470  15.990
 2562DOPG   C4B52608  14.310  14.380  16.440
 2563DOPG   GL052609  11.000  21.780  17.080
 2563DOPG   PO452610  10.800  22.060  17.110
 2563DOPG   GL152611  10.540  22.350  17.230
 2563DOPG   GL252612  10.540  22.610  17.450
 2563DOPG   C1A52613  10.100  22.600  17.230
 2563DOPG   D2A52614   9.810  22.780  17.500
 2563DOPG   C3A52615   9.680  23.090  17.500
 2563DOPG   C4A52616   9.350  23.150  17.720
 2563DOPG   C1B52617  10.270  22.960  17.480
 2563DOPG   D2B52618  10.150  23.390  17.450
 2563DOPG   C3B52619  10.270  23.620  17.110
 2563DOPG   C4B52620  10.590  23.930  17.020
 2564DOPG   GL052621  11.800  15.710  13.870
 2564DOPG   PO452622  11.850  15.490  13.470
 2564DOPG   GL152623  11.680  15.060  13.410
 2564DOPG   GL252624  11.430  15.050  13.280
 2564DOPG   C1A52625  11.650  14.590  13.330
 2564DOPG   D2A52626  11.860  14.160  13.160
 2564DOPG   C3A52627  12.150  13.980  13.290
 2564DOPG   C4A52628  12.600  13.910  13.340
 2564DOPG   C1B52629  11.130  14.840  13.150
 2564DOPG   D2B52630  10.950  14.500  13.240
 2564DOPG   C3B52631  11.130  14.160  13.360
 2564DOPG   C4B52632  11.040  13.840  13.630
 2565DOPG   GL052633  34.580  20.910  10.860
 2565DOPG   PO452634  34.510  20.520  10.860
 2565DOPG   GL152635  34.960  20.380  10.860
 2565DOPG   GL252636  34.920  20.050  11.050
 2565DOPG   C1A52637  35.290  20.130  10.610
 2565DOPG   D2A52638  35.500  20.000  10.240
 2565DOPG   C3A52639  35.890  19.830  10.320
 2565DOPG   C4A52640  36.270  19.830  10.620
 2565DOPG   C1B52641  35.100  20.350  11.390
 2565DOPG   D2B52642  35.390  20.720  11.520
 2565DOPG   C3B52643  35.360  21.160  11.560
 2565DOPG   C4B52644  35.580  21.580  11.820
 2566DOPG   GL052645  35.020  18.420  10.310
 2566DOPG   PO452646  34.790  18.770  10.220
 2566DOPG   GL152647  34.990  18.900  10.570
 2566DOPG   GL252648  35.180  19.160  10.580
 2566DOPG   C1A52649  35.400  18.720  10.760
 2566DOPG   D2A52650  35.710  18.570  11.100
 2566DOPG   C3A52651  35.500  18.620  11.550
 2566DOPG   C4A52652  35.540  18.980  11.650
 2566DOPG   C1B52653  35.500  19.230  10.880
 2566DOPG   D2B52654  35.750  19.090  11.190
 2566DOPG   C3B52655  36.150  19.390  11.220
 2566DOPG   C4B52656  36.350  19.830  11.230
 2567DOPG   GL052657  36.010  24.220   9.460
 2567DOPG   PO452658  36.340  24.120   9.290
 2567DOPG   GL152659   0.330  23.920   9.540
 2567DOPG   GL252660   0.690  23.930   9.540
 2567DOPG   C1A52661   0.420  23.900   9.990
 2567DOPG   D2A52662   0.620  24.080  10.370
 2567DOPG   C3A52663   1.080  24.130  10.290
 2567DOPG   C4A52664   1.400  23.940  10.530
 2567DOPG   C1B52665   1.090  23.860   9.690
 2567DOPG   D2B52666   1.300  23.690   9.980
 2567DOPG   C3B52667   1.580  23.480  10.310
 2567DOPG   C4B52668   1.390  23.190  10.660
 2568DOPG   GL052669  14.070  17.090  12.790
 2568DOPG   PO452670  14.470  16.840  12.590
 2568DOPG   GL152671  14.500  16.670  12.200
 2568DOPG   GL252672  14.700  16.870  12.000
 2568DOPG   C1A52673  14.570  16.520  11.720
 2568DOPG   D2A52674  14.590  16.130  11.470
 2568DOPG   C3A52675  14.220  15.850  11.380
 2568DOPG   C4A52676  13.920  16.090  11.290
 2568DOPG   C1B52677  14.820  16.940  11.590
 2568DOPG   D2B52678  14.800  17.240  11.240
 2568DOPG   C3B52679  15.200  17.380  11.120
 2568DOPG   C4B52680  15.710  17.310  11.190
 2569DOPG   GL052681   7.920  27.100  15.440
 2569DOPG   PO452682   7.690  27.410  15.200
 2569DOPG   GL152683   7.630  27.820  15.080
 2569DOPG   GL252684   7.360  27.900  15.070
 2569DOPG   C1A52685   7.680  28.300  14.970
 2569DOPG   D2A52686   7.870  28.720  14.990
 2569DOPG   C3A52687   8.080  29.040  15.310
 2569DOPG   C4A52688   8.300  29.460  15.270
 2569DOPG   C1B52689   7.370  28.150  15.420
 2569DOPG   D2B52690   7.360  28.550  15.570
 2569DOPG   C3B52691   7.410  28.880  15.270
 2569DOPG   C4B52692   7.430  28.950  14.890
 2570DOPG   GL052693  14.260  15.880  14.310
 2570DOPG   PO452694  13.940  15.890  14.520
 2570DOPG   GL152695  14.060  15.500  14.560
 2570DOPG   GL252696  13.960  15.420  14.230
 2570DOPG   C1A52697  14.060  15.000  14.590
 2570DOPG   D2A52698  14.430  14.770  14.630
 2570DOPG   C3A52699  14.720  14.600  14.210
 2570DOPG   C4A52700  15.120  14.560  13.920
 2570DOPG   C1B52701  14.170  15.060  14.140
 2570DOPG   D2B52702  14.090  14.790  13.800
 2570DOPG   C3B52703  13.600  14.690  13.720
 2570DOPG   C4B52704  13.560  14.360  13.410
 2571DOPG   GL052705  16.790  30.610  13.690
 2571DOPG   PO452706  16.380  30.460  13.400
 2571DOPG   GL152707  16.100  30.170  13.700
 2571DOPG   GL252708  15.780  30.200  13.750
 2571DOPG   C1A52709  16.000  29.700  13.640
 2571DOPG   D2A52710  15.770  29.350  13.530
 2571DOPG   C3A52711  15.720  29.000  13.780
 2571DOPG   C4A52712  16.070  28.760  13.980
 2571DOPG   C1B52713  15.500  29.840  13.950
 2571DOPG   D2B52714  15.510  29.380  14.030
 2571DOPG   C3B52715  15.390  29.140  14.380
 2571DOPG   C4B52716  15.260  28.670  14.500
 2572DOPG   GL052717  14.360  20.510  13.090
 2572DOPG   PO452718  14.580  20.360  12.850
 2572DOPG   GL152719  14.960  20.180  12.690
 2572DOPG   GL252720  15.200  20.390  12.850
 2572DOPG   C1A52721  15.430  20.050  12.580
 2572DOPG   D2A52722  15.600  19.920  12.140
 2572DOPG   C3A52723  15.270  19.580  11.900
 2572DOPG   C4A52724  15.230  19.290  11.530
 2572DOPG   C1B52725  15.400  20.570  12.490
 2572DOPG   D2B52726  15.680  20.810  12.220
 2572DOPG   C3B52727  16.050  20.900  12.340
 2572DOPG   C4B52728  16.470  20.810  12.290
 2573DOPG   GL052729  36.210  25.320  20.860
 2573DOPG   PO452730  36.360  25.490  20.430
 2573DOPG   GL152731   0.090  25.240  20.160
 2573DOPG   GL252732   0.100  24.890  20.180
 2573DOPG   C1A52733   0.470  25.230  19.860
 2573DOPG   D2A52734   0.710  25.000  19.510
 2573DOPG   C3A52735   1.080  25.150  19.460
 2573DOPG   C4A52736   1.510  25.350  19.350
 2573DOPG   C1B52737   0.560  24.990  20.240
 2573DOPG   D2B52738   0.880  24.780  20.390
 2573DOPG   C3B52739   1.160  24.540  20.170
 2573DOPG   C4B52740   1.520  24.470  19.870
 2574DOPG   GL052741  34.660  15.390  15.100
 2574DOPG   PO452742  34.790  14.990  15.230
 2574DOPG   GL152743  35.320  15.020  15.260
 2574DOPG   GL252744  35.510  14.800  15.540
 2574DOPG   C1A52745  35.740  15.130  15.150
 2574DOPG   D2A52746  35.910  15.410  14.860
 2574DOPG   C3A52747  35.770  15.760  14.680
 2574DOPG   C4A52748  35.310  15.950  14.720
 2574DOPG   C1B52749  35.840  14.950  15.790
 2574DOPG   D2B52750  36.100  14.930  16.050
 2574DOPG   C3B52751   0.150  14.850  16.050
 2574DOPG   C4B52752   0.530  14.650  16.260
 2575DOPG   GL052753  36.340  13.520  19.060
 2575DOPG   PO452754   0.320  13.300  18.890
 2575DOPG   GL152755   0.620  13.640  18.620
 2575DOPG   GL252756   0.990  13.640  18.620
 2575DOPG   C1A52757   0.710  13.980  18.280
 2575DOPG   D2A52758   0.840  14.020  17.850
 2575DOPG   C3A52759   1.200  14.330  17.690
 2575DOPG   C4A52760   1.600  14.500  17.510
 2575DOPG   C1B52761   1.150  13.900  18.410
 2575DOPG   D2B52762   1.290  13.930  18.130
 2575DOPG   C3B52763   1.590  13.710  18.030
 2575DOPG   C4B52764   1.950  13.530  18.280
 2576DOPG   GL052765   9.320  20.020  15.740
 2576DOPG   PO452766   8.970  19.850  15.680
 2576DOPG   GL152767   8.570  19.920  16.030
 2576DOPG   GL252768   8.600  20.200  16.250
 2576DOPG   C1A52769   8.180  20.120  15.940
 2576DOPG   D2A52770   7.780  20.000  16.030
 2576DOPG   C3A52771   7.440  20.320  15.890
 2576DOPG   C4A52772   7.100  20.590  15.950
 2576DOPG   C1B52773   8.230  20.410  16.320
 2576DOPG   D2B52774   7.800  20.450  16.240
 2576DOPG   C3B52775   7.450  20.120  16.410
 2576DOPG   C4B52776   7.120  20.090  16.250
 2577DOPG   GL052777  14.200  20.580  13.690
 2577DOPG   PO452778  14.590  20.730  13.570
 2577DOPG   GL152779  14.840  21.040  13.470
 2577DOPG   GL252780  15.070  21.020  13.440
 2577DOPG   C1A52781  14.950  21.320  13.090
 2577DOPG   D2A52782  15.410  21.360  12.900
 2577DOPG   C3A52783  15.720  21.450  13.120
 2577DOPG   C4A52784  16.010  21.810  12.970
 2577DOPG   C1B52785  15.330  21.440  13.490
 2577DOPG   D2B52786  15.280  21.760  13.180
 2577DOPG   C3B52787  15.180  21.810  12.800
 2577DOPG   C4B52788  14.940  21.580  12.650
 2578DOPG   GL052789  10.050  26.720  24.680
 2578DOPG   PO452790  10.470  26.930  24.390
 2578DOPG   GL152791  10.720  26.820  24.150
 2578DOPG   GL252792  10.930  26.630  24.240
 2578DOPG   C1A52793  10.740  26.750  23.680
 2578DOPG   D2A52794  10.970  26.580  23.340
 2578DOPG   C3A52795  10.690  26.530  23.000
 2578DOPG   C4A52796  10.640  27.020  22.960
 2578DOPG   C1B52797  11.020  26.390  23.890
 2578DOPG   D2B52798  10.950  26.110  23.630
 2578DOPG   C3B52799  11.120  26.150  23.250
 2578DOPG   C4B52800  11.330  26.460  23.010
 2579DOPG   GL052801   9.320  21.760  16.190
 2579DOPG   PO452802   9.670  21.990  16.420
 2579DOPG   GL152803   9.380  22.260  16.340
 2579DOPG   GL252804   9.560  22.560  16.470
 2579DOPG   C1A52805   9.160  22.650  16.260
 2579DOPG   D2A52806   8.860  22.970  16.250
 2579DOPG   C3A52807   8.900  23.340  15.990
 2579DOPG   C4A52808   8.900  23.730  16.170
 2579DOPG   C1B52809   9.310  22.950  16.670
 2579DOPG   D2B52810   8.930  23.080  16.790
 2579DOPG   C3B52811   8.520  23.030  16.620
 2579DOPG   C4B52812   8.320  23.070  16.260
 2580DOPG   GL052813  11.430  22.420  14.520
 2580DOPG   PO452814  11.260  22.510  14.080
 2580DOPG   GL152815  11.210  22.950  13.980
 2580DOPG   GL252816  11.490  23.160  14.050
 2580DOPG   C1A52817  11.140  23.360  13.780
 2580DOPG   D2A52818  10.870  23.700  13.710
 2580DOPG   C3A52819  10.620  24.030  13.690
 2580DOPG   C4A52820  10.560  24.440  13.730
 2580DOPG   C1B52821  11.510  23.170  13.590
 2580DOPG   D2B52822  11.600  23.120  13.110
 2580DOPG   C3B52823  11.660  23.170  12.580
 2580DOPG   C4B52824  11.890  23.420  12.390
 2581DOPG   GL052825  13.970  20.080  16.450
 2581DOPG   PO452826  14.150  20.340  16.700
 2581DOPG   GL152827  14.500  20.400  16.980
 2581DOPG   GL252828  14.440  20.170  17.270
 2581DOPG   C1A52829  14.940  20.610  17.090
 2581DOPG   D2A52830  15.180  20.710  17.370
 2581DOPG   C3A52831  15.460  20.590  17.750
 2581DOPG   C4A52832  15.380  20.250  18.130
 2581DOPG   C1B52833  14.800  20.060  17.400
 2581DOPG   D2B52834  15.150  20.000  17.630
 2581DOPG   C3B52835  15.180  19.710  17.970
 2581DOPG   C4B52836  15.270  19.240  17.720
 2582DOPG   GL052837   9.390  20.340  17.290
 2582DOPG   PO452838   9.480  20.700  17.260
 2582DOPG   GL152839   9.110  21.060  17.320
 2582DOPG   GL252840   9.130  21.330  17.010
 2582DOPG   C1A52841   8.850  21.460  17.470
 2582DOPG   D2A52842   8.550  21.890  17.440
 2582DOPG   C3A52843   8.490  21.960  17.870
 2582DOPG   C4A52844   8.650  22.160  18.200
 2582DOPG   C1B52845   9.120  21.750  17.150
 2582DOPG   D2B52846   8.920  22.120  17.180
 2582DOPG   C3B52847   9.100  22.430  17.170
 2582DOPG   C4B52848   9.340  22.900  17.130
 2583DOPG   GL052849  18.590  13.610   6.250
 2583DOPG   PO452850  18.240  13.290   6.330
 2583DOPG   GL152851  18.320  13.010   6.550
 2583DOPG   GL252852  18.080  12.760   6.550
 2583DOPG   C1A52853  18.110  13.190   6.920
 2583DOPG   D2A52854  17.780  13.130   7.080
 2583DOPG   C3A52855  17.620  12.850   6.770
 2583DOPG   C4A52856  17.660  12.650   6.370
 2583DOPG   C1B52857  17.980  12.410   6.850
 2583DOPG   D2B52858  17.630  12.190   7.030
 2583DOPG   C3B52859  17.220  12.480   6.940
 2583DOPG   C4B52860  17.140  12.710   6.550
 2584DOPG   GL052861   5.550  24.010  25.730
 2584DOPG   PO452862   5.160  23.880  25.680
 2584DOPG   GL152863   5.040  23.530  25.500
 2584DOPG   GL252864   5.130  23.740  25.180
 2584DOPG   C1A52865   5.110  23.220  25.190
 2584DOPG   D2A52866   5.140  22.930  24.840
 2584DOPG   C3A52867   5.020  22.960  24.390
 2584DOPG   C4A52868   5.140  22.770  24.090
 2584DOPG   C1B52869   5.630  23.830  25.160
 2584DOPG   D2B52870   6.040  23.680  25.320
 2584DOPG   C3B52871   6.150  23.280  25.510
 2584DOPG   C4B52872   6.220  22.890  25.660
 2585DOPG   GL052873  18.500  25.450  23.370
 2585DOPG   PO452874  18.240  25.320  23.040
 2585DOPG   GL152875  18.260  25.240  22.690
 2585DOPG   GL252876  18.320  24.900  22.610
 2585DOPG   C1A52877  17.850  25.110  22.380
 2585DOPG   D2A52878  17.500  24.800  22.080
 2585DOPG   C3A52879  17.310  24.390  21.990
 2585DOPG   C4A52880  17.280  23.940  21.800
 2585DOPG   C1B52881  17.950  24.640  22.350
 2585DOPG   D2B52882  17.580  24.540  22.490
 2585DOPG   C3B52883  17.330  24.580  22.820
 2585DOPG   C4B52884  17.200  24.710  23.160
 2586DOPG   GL052885   9.450  20.610  14.580
 2586DOPG   PO452886   9.600  20.740  14.340
 2586DOPG   GL152887   9.310  20.930  14.080
 2586DOPG   GL252888   9.200  21.140  14.210
 2586DOPG   C1A52889   9.010  20.810  13.740
 2586DOPG   D2A52890   8.890  20.810  13.370
 2586DOPG   C3A52891   8.630  21.070  13.250
 2586DOPG   C4A52892   8.740  21.510  13.000
 2586DOPG   C1B52893   8.890  21.240  13.890
 2586DOPG   D2B52894   8.510  21.060  13.770
 2586DOPG   C3B52895   8.240  21.270  13.540
 2586DOPG   C4B52896   7.890  21.540  13.380
 2587DOPG   GL052897   9.910  17.350  11.690
 2587DOPG   PO452898  10.120  17.570  11.630
 2587DOPG   GL152899   9.840  17.820  11.390
 2587DOPG   GL252900   9.540  17.680  11.400
 2587DOPG   C1A52901   9.830  18.140  11.030
 2587DOPG   D2A52902  10.020  18.180  10.600
 2587DOPG   C3A52903   9.730  18.390  10.190
 2587DOPG   C4A52904   9.540  18.860  10.100
 2587DOPG   C1B52905   9.250  17.680  11.100
 2587DOPG   D2B52906   8.920  18.050  10.920
 2587DOPG   C3B52907   8.990  18.460  10.790
 2587DOPG   C4B52908   8.780  18.770  10.530
 2588DOPG   GL052909  12.940  17.570  16.620
 2588DOPG   PO452910  13.100  17.640  16.970
 2588DOPG   GL152911  13.360  17.400  17.150
 2588DOPG   GL252912  13.170  17.430  17.450
 2588DOPG   C1A52913  13.620  17.160  17.450
 2588DOPG   D2A52914  13.960  17.110  17.790
 2588DOPG   C3A52915  13.880  16.930  18.220
 2588DOPG   C4A52916  13.830  16.820  18.600
 2588DOPG   C1B52917  13.550  17.750  17.490
 2588DOPG   D2B52918  13.960  17.610  17.740
 2588DOPG   C3B52919  14.140  17.400  18.160
 2588DOPG   C4B52920  14.600  17.510  18.260
 2589DOPG   GL052921  12.960  22.000  13.680
 2589DOPG   PO452922  13.140  22.360  13.680
 2589DOPG   GL152923  13.300  22.500  13.360
 2589DOPG   GL252924  12.970  22.780  13.160
 2589DOPG   C1A52925  13.470  22.520  13.010
 2589DOPG   D2A52926  13.740  22.800  12.740
 2589DOPG   C3A52927  13.450  22.880  12.430
 2589DOPG   C4A52928  13.220  23.030  12.060
 2589DOPG   C1B52929  13.200  22.940  12.860
 2589DOPG   D2B52930  13.500  23.270  12.840
 2589DOPG   C3B52931  13.460  23.590  13.060
 2589DOPG   C4B52932  13.390  24.020  12.970
 2590DOPG   GL052933  13.050  20.710   7.930
 2590DOPG   PO452934  13.320  20.860   8.250
 2590DOPG   GL152935  13.550  20.800   8.550
 2590DOPG   GL252936  13.210  20.740   8.850
 2590DOPG   C1A52937  13.730  20.730   8.960
 2590DOPG   D2A52938  14.030  20.640   9.290
 2590DOPG   C3A52939  13.760  20.280   9.250
 2590DOPG   C4A52940  13.530  20.160   8.850
 2590DOPG   C1B52941  13.200  20.540   9.320
 2590DOPG   D2B52942  13.070  20.400   9.740
 2590DOPG   C3B52943  12.700  20.410   9.870
 2590DOPG   C4B52944  12.410  20.690   9.700
 2591DOPG   GL052945  14.020  15.350  19.770
 2591DOPG   PO452946  13.720  15.600  19.610
 2591DOPG   GL152947  13.750  15.400  19.120
 2591DOPG   GL252948  13.500  15.400  18.930
 2591DOPG   C1A52949  13.940  15.460  18.570
 2591DOPG   D2A52950  13.860  15.760  18.220
 2591DOPG   C3A52951  13.350  15.910  18.090
 2591DOPG   C4A52952  13.220  16.240  17.880
 2591DOPG   C1B52953  13.070  15.210  19.070
 2591DOPG   D2B52954  12.650  15.180  18.950
 2591DOPG   C3B52955  12.440  15.040  18.610
 2591DOPG   C4B52956  12.230  15.220  18.290
 2592DOPG   GL052957   7.970  20.470  27.260
 2592DOPG   PO452958   8.120  20.290  26.930
 2592DOPG   GL152959   8.020  20.220  26.480
 2592DOPG   GL252960   7.790  20.510  26.470
 2592DOPG   C1A52961   7.910  20.270  26.040
 2592DOPG   D2A52962   8.100  20.140  25.660
 2592DOPG   C3A52963   8.440  20.350  25.450
 2592DOPG   C4A52964   8.900  20.400  25.280
 2592DOPG   C1B52965   7.460  20.510  26.220
 2592DOPG   D2B52966   7.460  20.550  25.710
 2592DOPG   C3B52967   7.330  20.840  25.420
 2592DOPG   C4B52968   6.960  20.870  25.200
 2593DOPG   GL052969  10.560  17.050  12.380
 2593DOPG   PO452970  10.650  17.100  12.010
 2593DOPG   GL152971  10.380  16.990  11.730
 2593DOPG   GL252972  10.340  17.200  11.400
 2593DOPG   C1A52973  10.200  16.730  11.370
 2593DOPG   D2A52974  10.180  16.420  11.080
 2593DOPG   C3A52975  10.380  16.170  10.840
 2593DOPG   C4A52976  10.900  16.350  10.630
 2593DOPG   C1B52977  10.340  17.080  10.990
 2593DOPG   D2B52978  10.100  17.240  10.620
 2593DOPG   C3B52979   9.850  17.640  10.550
 2593DOPG   C4B52980   9.500  17.960  10.680
 2594DOPG   GL052981   7.770   8.020  19.040
 2594DOPG   PO452982   7.500   8.150  19.240
 2594DOPG   GL152983   7.580   8.610  19.160
 2594DOPG   GL252984   7.960   8.680  19.050
 2594DOPG   C1A52985   7.600   8.960  18.820
 2594DOPG   D2A52986   7.440   8.800  18.450
 2594DOPG   C3A52987   7.510   8.590  18.050
 2594DOPG   C4A52988   7.780   8.300  17.820
 2594DOPG   C1B52989   8.270   8.880  19.240
 2594DOPG   D2B52990   8.460   8.970  19.740
 2594DOPG   C3B52991   8.730   9.230  19.830
 2594DOPG   C4B52992   8.800   9.610  20.070
 2595DOPG   GL052993  10.590  11.210   5.080
 2595DOPG   PO452994  10.780  11.640   5.170
 2595DOPG   GL152995  11.040  11.700   5.620
 2595DOPG   GL252996  11.030  11.450   5.840
 2595DOPG   C1A52997  11.330  11.780   5.950
 2595DOPG   D2A52998  11.360  12.000   6.280
 2595DOPG   C3A52999  11.280  12.430   6.300
 2595DOPG   C4A53000  11.200  12.800   6.000
 2595DOPG   C1B53001  11.010  11.460   6.360
 2595DOPG   D2B53002  11.200  11.700   6.760
 2595DOPG   C3B53003  11.390  12.160   6.810
 2595DOPG   C4B53004  11.750  12.290   6.480
 2596DOPG   GL053005  21.120  27.950  13.350
 2596DOPG   PO453006  20.890  27.570  13.550
 2596DOPG   GL153007  20.520  27.310  13.570
 2596DOPG   GL253008  20.570  26.930  13.680
 2596DOPG   C1A53009  20.100  26.980  13.670
 2596DOPG   D2A53010  19.660  26.850  13.840
 2596DOPG   C3A53011  19.400  27.190  14.050
 2596DOPG   C4A53012  18.990  27.410  14.000
 2596DOPG   C1B53013  20.670  26.650  13.380
 2596DOPG   D2B53014  20.530  26.380  13.020
 2596DOPG   C3B53015  20.710  25.990  12.820
 2596DOPG   C4B53016  20.540  25.570  12.550
 2597DOPG   GL053017   4.230  13.090  22.950
 2597DOPG   PO453018   4.270  13.410  22.790
 2597DOPG   GL153019   4.540  13.580  22.520
 2597DOPG   GL253020   4.800  13.520  22.500
 2597DOPG   C1A53021   4.490  13.960  22.300
 2597DOPG   D2A53022   4.510  14.320  22.020
 2597DOPG   C3A53023   4.950  14.580  21.900
 2597DOPG   C4A53024   5.350  14.460  21.870
 2597DOPG   C1B53025   4.910  13.640  22.150
 2597DOPG   D2B53026   4.920  13.990  22.050
 2597DOPG   C3B53027   5.320  14.240  22.350
 2597DOPG   C4B53028   5.610  14.560  22.540
 2598DOPG   GL053029   3.550  23.520   5.420
 2598DOPG   PO453030   3.710  23.430   5.750
 2598DOPG   GL153031   3.880  23.080   6.000
 2598DOPG   GL253032   3.690  23.090   6.220
 2598DOPG   C1A53033   4.210  22.800   6.230
 2598DOPG   D2A53034   4.360  22.590   6.630
 2598DOPG   C3A53035   4.200  22.560   7.010
 2598DOPG   C4A53036   4.010  22.910   7.330
 2598DOPG   C1B53037   4.070  23.360   6.530
 2598DOPG   D2B53038   4.370  23.410   6.760
 2598DOPG   C3B53039   4.400  23.080   6.990
 2598DOPG   C4B53040   4.530  22.830   7.260
 2599DOPG   GL053041  13.610  18.780  12.350
 2599DOPG   PO453042  13.990  18.730  12.180
 2599DOPG   GL153043  14.200  18.400  11.910
 2599DOPG   GL253044  14.520  18.560  11.710
 2599DOPG   C1A53045  14.360  18.110  11.710
 2599DOPG   D2A53046  14.630  17.790  11.600
 2599DOPG   C3A53047  14.910  17.780  11.280
 2599DOPG   C4A53048  14.940  17.970  10.920
 2599DOPG   C1B53049  14.450  18.430  11.320
 2599DOPG   D2B53050  14.460  18.070  11.040
 2599DOPG   C3B53051  14.230  18.060  10.600
 2599DOPG   C4B53052  14.150  17.830  10.200
 2600DOPG   GL053053  10.030  26.570  19.390
 2600DOPG   PO453054   9.770  26.730  19.730
 2600DOPG   GL153055   9.900  26.790  20.100
 2600DOPG   GL253056  10.050  26.470  20.170
 2600DOPG   C1A53057   9.930  27.100  20.520
 2600DOPG   D2A53058  10.090  27.460  20.850
 2600DOPG   C3A53059  10.470  27.330  21.050
 2600DOPG   C4A53060  10.930  27.250  21.090
 2600DOPG   C1B53061  10.300  26.770  20.380
 2600DOPG   D2B53062  10.510  26.930  20.710
 2600DOPG   C3B53063  10.830  27.330  20.600
 2600DOPG   C4B53064  11.030  27.740  20.560
 2601DOPG   GL053065  34.790  14.480  17.100
 2601DOPG   PO453066  34.960  14.950  16.950
 2601DOPG   GL153067  35.180  15.230  17.140
 2601DOPG   GL253068  35.440  15.130  17.010
 2601DOPG   C1A53069  35.350  15.560  17.220
 2601DOPG   D2A53070  35.730  15.430  17.300
 2601DOPG   C3A53071  35.770  15.290  17.680
 2601DOPG   C4A53072  35.990  15.420  17.990
 2601DOPG   C1B53073  35.730  15.350  16.800
 2601DOPG   D2B53074  35.690  15.680  16.420
 2601DOPG   C3B53075  35.430  16.050  16.570
 2601DOPG   C4B53076  35.390  16.420  16.790
 2602DOPG   GL053077  11.060  20.420  12.260
 2602DOPG   PO453078  10.800  20.440  12.570
 2602DOPG   GL153079  10.480  20.610  12.320
 2602DOPG   GL253080  10.240  20.740  12.350
 2602DOPG   C1A53081  10.420  21.000  11.950
 2602DOPG   D2A53082  10.590  21.260  11.630
 2602DOPG   C3A53083  10.420  21.530  11.340
 2602DOPG   C4A53084  10.060  21.690  11.180
 2602DOPG   C1B53085   9.760  20.650  12.170
 2602DOPG   D2B53086   9.370  20.470  12.400
 2602DOPG   C3B53087   9.020  20.310  12.490
 2602DOPG   C4B53088   8.580  20.320  12.580
 2603DOPG   GL053089  12.360  20.500  11.630
 2603DOPG   PO453090  12.040  20.550  11.800
 2603DOPG   GL153091  11.990  20.640  11.340
 2603DOPG   GL253092  11.650  20.790  11.260
 2603DOPG   C1A53093  12.220  20.920  11.090
 2603DOPG   D2A53094  12.380  21.200  10.890
 2603DOPG   C3A53095  12.440  21.080  10.540
 2603DOPG   C4A53096  12.430  20.860  10.140
 2603DOPG   C1B53097  11.410  20.970  10.860
 2603DOPG   D2B53098  11.340  20.810  10.510
 2603DOPG   C3B53099  10.960  20.590  10.290
 2603DOPG   C4B53100  10.730  20.410   9.830
 2604DOPG   GL053101   3.490  25.110  24.550
 2604DOPG   PO453102   3.750  25.390  24.280
 2604DOPG   GL153103   4.240  25.360  24.100
 2604DOPG   GL253104   4.330  25.010  24.290
 2604DOPG   C1A53105   4.160  25.150  23.700
 2604DOPG   D2A53106   4.120  24.700  23.480
 2604DOPG   C3A53107   4.260  24.580  23.060
 2604DOPG   C4A53108   4.360  24.430  22.670
 2604DOPG   C1B53109   4.240  24.730  23.990
 2604DOPG   D2B53110   4.250  24.380  23.790
 2604DOPG   C3B53111   4.420  24.070  24.060
 2604DOPG   C4B53112   4.660  24.040  24.320
 2605DOPG   GL053113  20.880  26.690  14.920
 2605DOPG   PO453114  21.090  27.040  15.160
 2605DOPG   GL153115  20.670  27.090  15.230
 2605DOPG   GL253116  20.520  27.400  15.170
 2605DOPG   C1A53117  20.350  26.810  15.050
 2605DOPG   D2A53118  20.420  26.430  14.890
 2605DOPG   C3A53119  20.710  26.270  15.230
 2605DOPG   C4A53120  21.150  26.160  15.410
 2605DOPG   C1B53121  20.060  27.270  15.060
 2605DOPG   D2B53122  19.570  27.400  15.270
 2605DOPG   C3B53123  19.360  27.070  15.040
 2605DOPG   C4B53124  18.960  26.850  15.020
 2606DOPG   GL053125  12.090  19.550  18.390
 2606DOPG   PO453126  11.870  19.240  18.230
 2606DOPG   GL153127  11.840  19.180  18.630
 2606DOPG   GL253128  11.600  19.170  18.750
 2606DOPG   C1A53129  12.090  19.020  18.990
 2606DOPG   D2A53130  12.080  18.910  19.550
 2606DOPG   C3A53131  12.320  18.630  19.680
 2606DOPG   C4A53132  12.630  18.410  19.680
 2606DOPG   C1B53133  11.740  19.320  19.140
 2606DOPG   D2B53134  12.110  19.410  19.350
 2606DOPG   C3B53135  12.490  19.470  19.350
 2606DOPG   C4B53136  13.020  19.620  19.330
 2607DOPG   GL053137   0.210  17.910  22.210
 2607DOPG   PO453138   0.500  17.780  21.950
 2607DOPG   GL153139   0.660  17.750  21.510
 2607DOPG   GL253140   0.640  18.060  21.500
 2607DOPG   C1A53141   0.720  17.830  21.010
 2607DOPG   D2A53142   0.840  18.180  20.760
 2607DOPG   C3A53143   1.280  18.290  20.680
 2607DOPG   C4A53144   1.710  18.450  20.580
 2607DOPG   C1B53145   1.030  18.200  21.680
 2607DOPG   D2B53146   1.510  18.260  21.810
 2607DOPG   C3B53147   1.820  18.580  21.680
 2607DOPG   C4B53148   2.190  18.590  21.550
 2608DOPG   GL053149  15.170  23.250  25.150
 2608DOPG   PO453150  15.380  23.490  25.280
 2608DOPG   GL153151  15.580  23.440  24.890
 2608DOPG   GL253152  15.430  23.230  24.750
 2608DOPG   C1A53153  15.780  23.340  24.410
 2608DOPG   D2A53154  15.720  23.340  24.000
 2608DOPG   C3A53155  15.400  23.390  23.740
 2608DOPG   C4A53156  15.100  23.240  23.510
 2608DOPG   C1B53157  15.500  22.830  24.700
 2608DOPG   D2B53158  15.470  22.700  24.290
 2608DOPG   C3B53159  15.250  22.350  24.220
 2608DOPG   C4B53160  15.070  22.010  23.880
 2609DOPG   GL053161  14.260  20.630  15.640
 2609DOPG   PO453162  14.670  20.510  15.850
 2609DOPG   GL153163  15.060  20.420  16.030
 2609DOPG   GL253164  15.030  20.150  16.390
 2609DOPG   C1A53165  15.430  20.570  16.290
 2609DOPG   D2A53166  15.800  20.880  16.370
 2609DOPG   C3A53167  16.100  20.580  16.530
 2609DOPG   C4A53168  16.190  20.230  16.660
 2609DOPG   C1B53169  15.140  20.190  16.810
 2609DOPG   D2B53170  15.340  20.260  17.240
 2609DOPG   C3B53171  15.590  20.500  17.200
 2609DOPG   C4B53172  16.070  20.470  17.120
 2610DOPG   GL053173   7.020   7.650  15.050
 2610DOPG   PO453174   6.850   7.760  14.670
 2610DOPG   GL153175   6.790   8.070  14.490
 2610DOPG   GL253176   6.710   8.040  14.170
 2610DOPG   C1A53177   6.750   8.570  14.550
 2610DOPG   D2A53178   6.770   8.970  14.740
 2610DOPG   C3A53179   7.020   9.270  14.990
 2610DOPG   C4A53180   7.410   9.340  15.180
 2610DOPG   C1B53181   6.980   8.310  14.050
 2610DOPG   D2B53182   7.350   8.480  13.790
 2610DOPG   C3B53183   7.780   8.520  13.920
 2610DOPG   C4B53184   8.080   8.690  13.560
 2611DOPG   GL053185  13.440  18.840  16.540
 2611DOPG   PO453186  13.800  18.660  16.840
 2611DOPG   GL153187  13.830  18.400  17.140
 2611DOPG   GL253188  14.180  18.450  17.160
 2611DOPG   C1A53189  13.890  18.210  17.470
 2611DOPG   D2A53190  14.080  18.260  17.860
 2611DOPG   C3A53191  14.290  18.610  18.130
 2611DOPG   C4A53192  14.660  18.890  18.250
 2611DOPG   C1B53193  14.410  18.220  17.460
 2611DOPG   D2B53194  14.660  17.980  17.510
 2611DOPG   C3B53195  14.660  17.460  17.390
 2611DOPG   C4B53196  14.850  17.250  17.150
 2612DOPG   GL053197  11.300  27.580  14.720
 2612DOPG   PO453198  11.320  27.960  14.640
 2612DOPG   GL153199  11.190  28.310  14.380
 2612DOPG   GL253200  11.260  28.500  14.590
 2612DOPG   C1A53201  11.120  28.430  14.020
 2612DOPG   D2A53202  11.350  28.790  13.840
 2612DOPG   C3A53203  11.760  28.870  13.930
 2612DOPG   C4A53204  12.010  29.110  14.250
 2612DOPG   C1B53205  11.210  28.810  14.330
 2612DOPG   D2B53206  11.310  29.100  14.240
 2612DOPG   C3B53207  11.100  29.480  14.270
 2612DOPG   C4B53208  11.100  29.860  14.500
 2613DOPG   GL053209  14.570  18.100  12.720
 2613DOPG   PO453210  14.170  18.120  12.750
 2613DOPG   GL153211  14.170  17.860  12.390
 2613DOPG   GL253212  14.380  18.010  12.250
 2613DOPG   C1A53213  14.270  17.610  11.990
 2613DOPG   D2A53214  14.640  17.360  11.810
 2613DOPG   C3A53215  15.070  17.430  11.610
 2613DOPG   C4A53216  15.500  17.590  11.580
 2613DOPG   C1B53217  14.690  17.760  12.140
 2613DOPG   D2B53218  15.050  17.770  11.950
 2613DOPG   C3B53219  15.300  18.090  11.670
 2613DOPG   C4B53220  15.580  18.390  11.330
 2614DOPG   GL053221   0.230  22.470  22.010
 2614DOPG   PO453222   0.120  22.560  21.600
 2614DOPG   GL153223   0.540  22.310  21.660
 2614DOPG   GL253224   0.390  21.940  21.690
 2614DOPG   C1A53225   1.010  22.500  21.660
 2614DOPG   D2A53226   1.440  22.470  21.300
 2614DOPG   C3A53227   1.680  22.690  21.030
 2614DOPG   C4A53228   2.000  22.850  20.670
 2614DOPG   C1B53229   0.710  21.760  21.350
 2614DOPG   D2B53230   0.780  21.540  20.950
 2614DOPG   C3B53231   0.700  21.260  20.580
 2614DOPG   C4B53232   0.520  20.940  20.410
 2615DOPG   GL053233   9.050  30.980  12.470
 2615DOPG   PO453234   9.520  30.890  12.330
 2615DOPG   GL153235   9.620  30.510  12.200
 2615DOPG   GL253236   9.670  30.440  11.960
 2615DOPG   C1A53237   9.520  30.100  12.290
 2615DOPG   D2A53238   9.490  29.880  12.680
 2615DOPG   C3A53239   9.860  29.840  12.840
 2615DOPG   C4A53240   9.920  29.820  13.200
 2615DOPG   C1B53241  10.010  30.210  12.020
 2615DOPG   D2B53242  10.420  30.020  12.000
 2615DOPG   C3B53243  10.520  29.830  12.310
 2615DOPG   C4B53244  10.590  29.440  12.400
 2616DOPG   GL053245   2.520  18.290  24.400
 2616DOPG   PO453246   2.590  18.640  24.310
 2616DOPG   GL153247   3.050  18.830  24.220
 2616DOPG   GL253248   3.120  18.820  23.840
 2616DOPG   C1A53249   3.470  19.050  24.310
 2616DOPG   D2A53250   3.910  19.210  24.190
 2616DOPG   C3A53251   4.230  19.190  24.320
 2616DOPG   C4A53252   4.610  19.160  24.100
 2616DOPG   C1B53253   3.160  19.100  23.580
 2616DOPG   D2B53254   3.140  19.400  23.300
 2616DOPG   C3B53255   2.840  19.420  23.010
 2616DOPG   C4B53256   2.460  19.560  22.810
 2617DOPG   GL053257   9.500  17.500  13.850
 2617DOPG   PO453258   9.120  17.470  13.720
 2617DOPG   GL153259   8.870  17.760  13.510
 2617DOPG   GL253260   8.910  18.130  13.310
 2617DOPG   C1A53261   8.410  17.590  13.430
 2617DOPG   D2A53262   8.120  17.330  13.420
 2617DOPG   C3A53263   7.710  17.620  13.450
 2617DOPG   C4A53264   7.470  17.770  13.830
 2617DOPG   C1B53265   8.610  18.060  13.030
 2617DOPG   D2B53266   8.340  18.120  12.730
 2617DOPG   C3B53267   8.300  18.290  12.350
 2617DOPG   C4B53268   8.140  18.760  12.290
 2618DOPG   GL053269   5.330  21.190  21.730
 2618DOPG   PO453270   5.510  21.570  21.900
 2618DOPG   GL153271   5.300  21.500  22.290
 2618DOPG   GL253272   5.290  21.830  22.290
 2618DOPG   C1A53273   5.150  21.320  22.650
 2618DOPG   D2A53274   5.040  21.330  23.020
 2618DOPG   C3A53275   5.280  21.600  23.240
 2618DOPG   C4A53276   5.650  21.440  23.530
 2618DOPG   C1B53277   5.030  21.750  22.700
 2618DOPG   D2B53278   4.720  21.750  23.130
 2618DOPG   C3B53279   4.280  21.700  23.080
 2618DOPG   C4B53280   4.090  21.460  22.750
 2619DOPG   GL053281   2.990  19.720  24.650
 2619DOPG   PO453282   2.980  19.980  24.950
 2619DOPG   GL153283   2.900  20.120  24.410
 2619DOPG   GL253284   2.950  20.390  24.240
 2619DOPG   C1A53285   2.760  19.970  23.980
 2619DOPG   D2A53286   2.790  20.170  23.610
 2619DOPG   C3A53287   2.880  19.910  23.320
 2619DOPG   C4A53288   3.140  19.790  22.970
 2619DOPG   C1B53289   3.240  20.280  23.920
 2619DOPG   D2B53290   3.340  20.360  23.480
 2619DOPG   C3B53291   3.470  19.980  23.370
 2619DOPG   C4B53292   3.980  19.820  23.360
 2620DOPG   GL053293  13.320  22.570  21.180
 2620DOPG   PO453294  12.930  22.660  20.970
 2620DOPG   GL153295  12.690  22.600  20.670
 2620DOPG   GL253296  12.520  22.820  20.530
 2620DOPG   C1A53297  12.680  22.430  20.260
 2620DOPG   D2A53298  12.800  21.990  20.230
 2620DOPG   C3A53299  12.760  21.700  19.910
 2620DOPG   C4A53300  12.590  21.370  19.640
 2620DOPG   C1B53301  12.080  22.760  20.290
 2620DOPG   D2B53302  12.040  22.910  19.830
 2620DOPG   C3B53303  12.290  22.830  19.440
 2620DOPG   C4B53304  12.140  23.060  19.070
 2621DOPG   GL053305   9.510  21.330  15.900
 2621DOPG   PO453306   9.340  20.890  16.050
 2621DOPG   GL153307   9.070  21.090  16.010
 2621DOPG   GL253308   8.850  20.940  15.920
 2621DOPG   C1A53309   8.890  21.450  16.180
 2621DOPG   D2A53310   8.480  21.780  16.130
 2621DOPG   C3A53311   8.180  22.000  16.180
 2621DOPG   C4A53312   7.790  22.130  16.200
 2621DOPG   C1B53313   8.540  21.120  15.970
 2621DOPG   D2B53314   8.220  21.390  15.870
 2621DOPG   C3B53315   7.820  21.530  15.960
 2621DOPG   C4B53316   7.450  21.630  16.130
 2622DOPG   GL053317  11.530  16.630  26.650
 2622DOPG   PO453318  11.590  17.040  26.900
 2622DOPG   GL153319  11.520  17.280  26.530
 2622DOPG   GL253320  11.690  17.310  26.280
 2622DOPG   C1A53321  11.250  17.730  26.290
 2622DOPG   D2A53322  11.110  17.990  25.870
 2622DOPG   C3A53323  10.720  18.170  25.720
 2622DOPG   C4A53324  10.520  18.440  25.530
 2622DOPG   C1B53325  11.760  17.330  25.800
 2622DOPG   D2B53326  11.730  17.120  25.360
 2622DOPG   C3B53327  11.320  16.930  25.130
 2622DOPG   C4B53328  11.120  16.980  24.860
 2623DOPG   GL053329  11.220  20.040  17.910
 2623DOPG   PO453330  10.890  20.270  18.130
 2623DOPG   GL153331  10.780  19.920  18.300
 2623DOPG   GL253332  11.140  19.770  18.360
 2623DOPG   C1A53333  10.510  19.970  18.620
 2623DOPG   D2A53334  10.280  19.770  19.060
 2623DOPG   C3A53335  10.270  19.690  19.430
 2623DOPG   C4A53336   9.970  19.390  19.740
 2623DOPG   C1B53337  10.990  20.120  18.710
 2623DOPG   D2B53338  11.090  20.300  19.100
 2623DOPG   C3B53339  11.590  20.460  19.190
 2623DOPG   C4B53340  11.780  20.500  19.460
 2624DOPG   GL053341   0.140  21.500  22.550
 2624DOPG   PO453342   0.260  21.040  22.560
 2624DOPG   GL153343   0.470  21.050  22.220
 2624DOPG   GL253344   0.500  21.360  22.070
 2624DOPG   C1A53345   0.910  21.150  22.120
 2624DOPG   D2A53346   1.310  21.040  22.340
 2624DOPG   C3A53347   1.560  20.930  22.100
 2624DOPG   C4A53348   1.580  20.510  21.920
 2624DOPG   C1B53349   0.820  21.420  21.700
 2624DOPG   D2B53350   1.230  21.510  21.350
 2624DOPG   C3B53351   1.220  21.380  20.920
 2624DOPG   C4B53352   1.600  21.260  20.790
 2625DOPG   GL053353   9.760  32.010  13.340
 2625DOPG   PO453354   9.620  31.740  13.810
 2625DOPG   GL153355   9.650  31.430  13.480
 2625DOPG   GL253356   9.920  31.330  13.590
 2625DOPG   C1A53357   9.690  31.070  13.190
 2625DOPG   D2A53358   9.640  30.750  12.910
 2625DOPG   C3A53359   9.940  30.420  12.900
 2625DOPG   C4A53360  10.250  30.190  13.040
 2625DOPG   C1B53361   9.930  30.920  13.660
 2625DOPG   D2B53362   9.670  30.650  14.000
 2625DOPG   C3B53363   9.630  30.240  13.820
 2625DOPG   C4B53364   9.280  30.210  13.590
 2626DOPG   GL053365  34.940  21.010  19.230
 2626DOPG   PO453366  34.760  20.840  18.790
 2626DOPG   GL153367  35.190  21.120  18.670
 2626DOPG   GL253368  35.330  21.140  18.980
 2626DOPG   C1A53369  35.540  21.270  18.310
 2626DOPG   D2A53370  35.790  20.940  18.110
 2626DOPG   C3A53371  36.250  21.090  18.020
 2626DOPG   C4A53372   0.160  21.370  18.310
 2626DOPG   C1B53373  35.690  21.220  18.810
 2626DOPG   D2B53374  36.030  21.130  18.490
 2626DOPG   C3B53375  36.130  20.640  18.350
 2626DOPG   C4B53376   0.010  20.330  18.430
 2627DOPG   GL053377  33.920  20.580  14.810
 2627DOPG   PO453378  33.920  20.780  15.290
 2627DOPG   GL153379  34.360  20.600  15.480
 2627DOPG   GL253380  34.360  20.780  15.780
 2627DOPG   C1A53381  34.820  20.490  15.400
 2627DOPG   D2A53382  35.240  20.490  15.150
 2627DOPG   C3A53383  35.220  20.430  14.620
 2627DOPG   C4A53384  35.180  20.340  14.180
 2627DOPG   C1B53385  34.730  20.700  15.900
 2627DOPG   D2B53386  35.110  20.540  15.780
 2627DOPG   C3B53387  35.550  20.670  15.910
 2627DOPG   C4B53388  35.850  20.740  15.660
 2628DOPG   GL053389  35.570  27.180  12.510
 2628DOPG   PO453390  36.020  27.030  12.460
 2628DOPG   GL153391  36.360  26.690  12.730
 2628DOPG   GL253392   0.190  26.610  13.000
 2628DOPG   C1A53393   0.320  26.360  12.610
 2628DOPG   D2A53394   0.660  26.000  12.630
 2628DOPG   C3A53395   0.700  25.520  12.630
 2628DOPG   C4A53396   0.890  25.150  12.580
 2628DOPG   C1B53397   0.140  26.320  13.390
 2628DOPG   D2B53398   0.490  26.080  13.550
 2628DOPG   C3B53399   0.930  26.220  13.490
 2628DOPG   C4B53400   1.230  26.020  13.780
 2629DOPG   GL053401  13.740  18.470  16.270
 2629DOPG   PO453402  13.910  18.820  16.360
 2629DOPG   GL153403  14.390  18.800  16.570
 2629DOPG   GL253404  14.550  19.000  16.570
 2629DOPG   C1A53405  14.520  18.360  16.720
 2629DOPG   D2A53406  14.570  17.980  16.870
 2629DOPG   C3A53407  14.910  17.800  17.120
 2629DOPG   C4A53408  15.270  17.680  16.800
 2629DOPG   C1B53409  14.860  19.260  16.930
 2629DOPG   D2B53410  15.160  19.310  17.120
 2629DOPG   C3B53411  15.330  18.910  17.340
 2629DOPG   C4B53412  15.520  18.780  17.670
 2630DOPG   GL053413  35.490  23.080   9.000
 2630DOPG   PO453414  35.930  23.320   9.150
 2630DOPG   GL153415  36.350  23.080   9.140
 2630DOPG   GL253416  36.300  22.860   9.390
 2630DOPG   C1A53417   0.050  22.620   9.030
 2630DOPG   D2A53418   0.360  22.330   9.070
 2630DOPG   C3A53419   0.620  22.460   9.450
 2630DOPG   C4A53420   0.770  22.280   9.900
 2630DOPG   C1B53421  36.310  22.740   9.870
 2630DOPG   D2B53422   0.250  22.430  10.130
 2630DOPG   C3B53423   0.500  22.540  10.410
 2630DOPG   C4B53424   0.460  22.800  10.730
 2631DOPG   GL053425   8.830  16.310  13.720
 2631DOPG   PO453426   8.640  16.710  14.010
 2631DOPG   GL153427   8.300  16.500  14.140
 2631DOPG   GL253428   8.040  16.660  13.960
 2631DOPG   C1A53429   8.040  16.080  13.920
 2631DOPG   D2A53430   8.140  15.810  13.650
 2631DOPG   C3A53431   7.760  15.760  13.390
 2631DOPG   C4A53432   7.510  15.920  13.030
 2631DOPG   C1B53433   7.930  17.080  13.840
 2631DOPG   D2B53434   7.550  17.160  13.840
 2631DOPG   C3B53435   7.230  17.270  14.240
 2631DOPG   C4B53436   7.060  17.690  14.040
 2632DOPG   GL053437  13.530  17.990  16.210
 2632DOPG   PO453438  13.320  17.830  16.540
 2632DOPG   GL153439  13.650  17.760  16.860
 2632DOPG   GL253440  14.020  17.970  16.940
 2632DOPG   C1A53441  13.870  17.470  17.130
 2632DOPG   D2A53442  14.170  17.250  17.380
 2632DOPG   C3A53443  14.460  17.240  17.830
 2632DOPG   C4A53444  14.790  17.110  18.110
 2632DOPG   C1B53445  14.190  17.780  17.370
 2632DOPG   D2B53446  14.370  17.810  17.880
 2632DOPG   C3B53447  14.860  17.650  17.860
 2632DOPG   C4B53448  15.290  17.710  17.760
 2633DOPG   GL053449  11.580  16.140  15.850
 2633DOPG   PO453450  11.760  15.770  15.980
 2633DOPG   GL153451  11.580  15.390  16.280
 2633DOPG   GL253452  11.440  15.510  16.580
 2633DOPG   C1A53453  11.360  15.050  16.440
 2633DOPG   D2A53454  11.400  14.780  16.680
 2633DOPG   C3A53455  11.170  14.470  16.880
 2633DOPG   C4A53456  10.980  14.060  17.120
 2633DOPG   C1B53457  11.580  15.240  16.790
 2633DOPG   D2B53458  11.540  15.020  17.230
 2633DOPG   C3B53459  11.550  14.610  17.160
 2633DOPG   C4B53460  11.460  14.160  17.200
 2634DOPG   GL053461  12.080  22.550  14.790
 2634DOPG   PO453462  12.250  22.890  14.640
 2634DOPG   GL153463  12.400  23.190  14.390
 2634DOPG   GL253464  12.710  23.160  14.310
 2634DOPG   C1A53465  12.240  23.570  14.180
 2634DOPG   D2A53466  12.190  23.880  13.870
 2634DOPG   C3A53467  11.930  23.650  13.480
 2634DOPG   C4A53468  11.780  23.610  13.060
 2634DOPG   C1B53469  12.770  23.540  14.360
 2634DOPG   D2B53470  12.680  23.940  14.170
 2634DOPG   C3B53471  12.430  24.040  14.490
 2634DOPG   C4B53472  12.300  23.700  14.730
 2635DOPG   GL053473  14.140  16.340  14.370
 2635DOPG   PO453474  14.600  16.360  14.360
 2635DOPG   GL153475  15.050  16.260  14.320
 2635DOPG   GL253476  15.120  16.100  14.000
 2635DOPG   C1A53477  15.330  16.350  14.650
 2635DOPG   D2A53478  15.590  16.180  14.860
 2635DOPG   C3A53479  15.860  15.840  14.650
 2635DOPG   C4A53480  15.790  15.530  14.520
 2635DOPG   C1B53481  15.300  15.840  13.780
 2635DOPG   D2B53482  15.460  15.840  13.350
 2635DOPG   C3B53483  15.180  15.580  13.090
 2635DOPG   C4B53484  14.800  15.280  12.950
 2636DOPG   GL053485   2.500  23.200  18.250
 2636DOPG   PO453486   2.810  23.420  18.000
 2636DOPG   GL153487   2.500  23.700  18.010
 2636DOPG   GL253488   2.300  23.550  17.890
 2636DOPG   C1A53489   2.230  23.970  18.220
 2636DOPG   D2A53490   1.930  24.240  18.350
 2636DOPG   C3A53491   1.640  24.390  18.640
 2636DOPG   C4A53492   1.270  24.610  18.710
 2636DOPG   C1B53493   1.800  23.680  18.120
 2636DOPG   D2B53494   1.510  23.380  18.360
 2636DOPG   C3B53495   1.080  23.330  18.350
 2636DOPG   C4B53496   0.700  23.450  18.460
 2637DOPG   GL053497   1.280  21.510  23.700
 2637DOPG   PO453498   1.390  21.260  23.310
 2637DOPG   GL153499   1.730  21.290  23.150
 2637DOPG   GL253500   1.700  21.550  22.990
 2637DOPG   C1A53501   2.150  21.230  22.980
 2637DOPG   D2A53502   2.320  21.180  22.610
 2637DOPG   C3A53503   2.280  21.360  22.180
 2637DOPG   C4A53504   2.320  21.800  22.070
 2637DOPG   C1B53505   2.110  21.760  23.080
 2637DOPG   D2B53506   2.460  21.650  23.030
 2637DOPG   C3B53507   2.770  21.900  22.890
 2637DOPG   C4B53508   2.930  22.160  22.600
 2638DOPG   GL053509   7.810  17.170   3.380
 2638DOPG   PO453510   7.920  17.290   3.650
 2638DOPG   GL153511   8.070  17.500   4.010
 2638DOPG   GL253512   8.060  17.870   3.900
 2638DOPG   C1A53513   8.100  17.550   4.440
 2638DOPG   D2A53514   8.060  17.360   4.870
 2638DOPG   C3A53515   7.960  17.260   5.270
 2638DOPG   C4A53516   8.220  17.150   5.680
 2638DOPG   C1B53517   7.960  17.960   4.270
 2638DOPG   D2B53518   8.050  18.100   4.570
 2638DOPG   C3B53519   8.130  17.830   4.890
 2638DOPG   C4B53520   8.150  17.720   5.350
 2639DOPG   GL053521  14.890  17.890  14.510
 2639DOPG   PO453522  15.340  17.870  14.460
 2639DOPG   GL153523  15.630  17.850  14.610
 2639DOPG   GL253524  15.790  18.080  14.540
 2639DOPG   C1A53525  15.810  17.540  14.920
 2639DOPG   D2A53526  16.200  17.500  15.040
 2639DOPG   C3A53527  16.410  17.270  15.320
 2639DOPG   C4A53528  16.560  16.930  15.520
 2639DOPG   C1B53529  15.930  17.780  14.160
 2639DOPG   D2B53530  15.870  17.670  13.670
 2639DOPG   C3B53531  15.850  17.350  13.370
 2639DOPG   C4B53532  16.220  17.340  13.070
 2640DOPG   GL053533   1.010  11.900  16.450
 2640DOPG   PO453534   1.040  11.610  16.730
 2640DOPG   GL153535   1.390  11.590  16.650
 2640DOPG   GL253536   1.470  11.720  16.400
 2640DOPG   C1A53537   1.750  11.860  16.770
 2640DOPG   D2A53538   1.910  12.260  16.750
 2640DOPG   C3A53539   2.250  12.480  16.680
 2640DOPG   C4A53540   2.600  12.710  16.850
 2640DOPG   C1B53541   1.600  12.120  16.320
 2640DOPG   D2B53542   1.960  12.450  16.230
 2640DOPG   C3B53543   2.380  12.330  15.990
 2640DOPG   C4B53544   2.660  12.040  15.650
 2641DOPG   GL053545   5.750  27.740  23.360
 2641DOPG   PO453546   6.030  27.380  23.540
 2641DOPG   GL153547   6.020  27.120  23.160
 2641DOPG   GL253548   5.900  26.810  23.330
 2641DOPG   C1A53549   6.400  27.010  22.880
 2641DOPG   D2A53550   6.660  26.950  22.480
 2641DOPG   C3A53551   6.490  26.650  22.130
 2641DOPG   C4A53552   6.290  26.560  21.850
 2641DOPG   C1B53553   6.040  26.440  23.030
 2641DOPG   D2B53554   6.040  26.120  22.790
 2641DOPG   C3B53555   6.070  25.820  22.420
 2641DOPG   C4B53556   6.340  25.530  22.110
 2642DOPG   GL053557  11.130  16.050  16.440
 2642DOPG   PO453558  10.910  15.780  16.600
 2642DOPG   GL153559  11.040  15.610  16.950
 2642DOPG   GL253560  11.310  15.810  16.960
 2642DOPG   C1A53561  10.820  15.440  17.250
 2642DOPG   D2A53562  10.660  15.080  17.490
 2642DOPG   C3A53563  10.470  14.780  17.250
 2642DOPG   C4A53564  10.160  14.390  17.180
 2642DOPG   C1B53565  11.440  15.500  17.330
 2642DOPG   D2B53566  11.150  15.120  17.560
 2642DOPG   C3B53567  11.090  15.050  17.980
 2642DOPG   C4B53568  11.350  15.020  18.330
 2643DOPG   GL053569  11.830  22.450  15.540
 2643DOPG   PO453570  11.940  22.720  15.220
 2643DOPG   GL153571  12.010  23.040  15.050
 2643DOPG   GL253572  12.340  23.050  15.080
 2643DOPG   C1A53573  11.800  23.360  14.990
 2643DOPG   D2A53574  11.540  23.470  15.190
 2643DOPG   C3A53575  11.390  23.810  15.240
 2643DOPG   C4A53576  11.740  23.930  15.600
 2643DOPG   C1B53577  12.540  23.410  15.260
 2643DOPG   D2B53578  12.520  23.890  15.400
 2643DOPG   C3B53579  12.250  24.190  15.640
 2643DOPG   C4B53580  12.060  24.100  16.020
 2644DOPG   GL053581  14.710  18.820   7.440
 2644DOPG   PO453582  15.030  18.490   7.220
 2644DOPG   GL153583  15.140  18.310   6.810
 2644DOPG   GL253584  15.330  18.590   6.790
 2644DOPG   C1A53585  15.510  18.150   6.790
 2644DOPG   D2A53586  15.950  18.140   6.600
 2644DOPG   C3A53587  16.120  17.940   6.200
 2644DOPG   C4A53588  16.290  18.070   5.840
 2644DOPG   C1B53589  15.350  18.490   6.380
 2644DOPG   D2B53590  15.370  18.580   5.960
 2644DOPG   C3B53591  15.170  18.940   5.790
 2644DOPG   C4B53592  15.120  19.360   5.830
 2645DOPG   GL053593  18.400  19.310  17.210
 2645DOPG   PO453594  17.950  19.070  17.270
 2645DOPG   GL153595  17.600  19.180  16.960
 2645DOPG   GL253596  17.660  19.520  16.920
 2645DOPG   C1A53597  17.430  19.310  16.560
 2645DOPG   D2A53598  17.050  19.410  16.330
 2645DOPG   C3A53599  16.900  19.020  16.250
 2645DOPG   C4A53600  16.650  18.770  16.010
 2645DOPG   C1B53601  17.460  19.790  16.630
 2645DOPG   D2B53602  17.090  19.870  16.530
 2645DOPG   C3B53603  16.790  19.900  16.220
 2645DOPG   C4B53604  16.440  19.890  16.000
 2646DOPG   GL053605   2.090  16.000   6.620
 2646DOPG   PO453606   2.110  16.490   6.620
 2646DOPG   GL153607   2.230  16.940   6.700
 2646DOPG   GL253608   2.110  17.190   6.610
 2646DOPG   C1A53609   2.490  17.160   6.940
 2646DOPG   D2A53610   2.660  17.530   7.200
 2646DOPG   C3A53611   2.460  17.540   7.540
 2646DOPG   C4A53612   2.210  17.650   7.930
 2646DOPG   C1B53613   2.350  17.610   6.620
 2646DOPG   D2B53614   2.660  17.870   6.830
 2646DOPG   C3B53615   3.110  17.840   7.040
 2646DOPG   C4B53616   3.630  17.700   6.970
 2647DOPG   GL053617  23.430  14.400  13.120
 2647DOPG   PO453618  23.020  14.630  13.320
 2647DOPG   GL153619  22.670  14.820  13.110
 2647DOPG   GL253620  22.380  14.630  12.950
 2647DOPG   C1A53621  22.410  15.150  13.000
 2647DOPG   D2A53622  22.360  15.450  13.220
 2647DOPG   C3A53623  22.170  15.850  13.170
 2647DOPG   C4A53624  21.920  15.820  12.780
 2647DOPG   C1B53625  22.120  14.680  13.330
 2647DOPG   D2B53626  21.710  14.480  13.310
 2647DOPG   C3B53627  21.410  14.750  13.120
 2647DOPG   C4B53628  21.050  14.710  12.870
 2648DOPG   GL053629  14.630  19.990  16.050
 2648DOPG   PO453630  14.990  19.970  15.890
 2648DOPG   GL153631  15.370  20.120  15.800
 2648DOPG   GL253632  15.410  19.980  15.530
 2648DOPG   C1A53633  15.580  20.120  16.140
 2648DOPG   D2A53634  16.000  20.210  16.150
 2648DOPG   C3A53635  16.100  20.690  16.040
 2648DOPG   C4A53636  15.840  20.990  15.780
 2648DOPG   C1B53637  15.630  20.290  15.220
 2648DOPG   D2B53638  15.780  20.490  14.850
 2648DOPG   C3B53639  16.130  20.370  14.630
 2648DOPG   C4B53640  16.350  20.700  14.570
 2649DOPG   GL053641  11.860  21.210  17.100
 2649DOPG   PO453642  11.990  21.350  17.340
 2649DOPG   GL153643  12.040  21.630  17.640
 2649DOPG   GL253644  12.260  21.560  17.870
 2649DOPG   C1A53645  12.140  22.080  17.690
 2649DOPG   D2A53646  12.220  22.320  18.040
 2649DOPG   C3A53647  12.410  22.220  18.450
 2649DOPG   C4A53648  12.620  21.970  18.780
 2649DOPG   C1B53649  12.660  21.850  17.890
 2649DOPG   D2B53650  12.700  22.310  18.030
 2649DOPG   C3B53651  12.480  22.630  17.770
 2649DOPG   C4B53652  12.580  23.000  17.630
 2650DOPG   GL053653   4.270  28.220  21.530
 2650DOPG   PO453654   4.140  28.660  21.420
 2650DOPG   GL153655   4.320  28.390  21.060
 2650DOPG   GL253656   4.600  28.270  21.050
 2650DOPG   C1A53657   4.230  27.950  20.930
 2650DOPG   D2A53658   4.240  27.590  21.070
 2650DOPG   C3A53659   4.150  27.350  20.730
 2650DOPG   C4A53660   4.300  26.960  20.570
 2650DOPG   C1B53661   4.940  28.150  20.860
 2650DOPG   D2B53662   5.100  28.280  20.500
 2650DOPG   C3B53663   5.220  27.910  20.360
 2650DOPG   C4B53664   5.440  27.840  20.080
 2651DOPG   GL053665  13.930  21.490  13.830
 2651DOPG   PO453666  14.140  21.270  14.130
 2651DOPG   GL153667  14.480  21.480  14.070
 2651DOPG   GL253668  14.700  21.390  14.270
 2651DOPG   C1A53669  14.930  21.350  13.840
 2651DOPG   D2A53670  15.240  21.120  13.910
 2651DOPG   C3A53671  15.540  21.140  14.190
 2651DOPG   C4A53672  15.980  21.280  14.380
 2651DOPG   C1B53673  14.850  21.780  14.220
 2651DOPG   D2B53674  15.220  22.050  14.330
 2651DOPG   C3B53675  15.320  22.510  14.190
 2651DOPG   C4B53676  15.150  22.840  14.070
 2652DOPG   GL053677  14.030  17.820  14.920
 2652DOPG   PO453678  14.350  17.630  15.140
 2652DOPG   GL153679  14.790  17.600  15.370
 2652DOPG   GL253680  14.940  17.320  15.300
 2652DOPG   C1A53681  15.060  17.540  15.710
 2652DOPG   D2A53682  15.470  17.780  15.890
 2652DOPG   C3A53683  15.840  18.000  15.510
 2652DOPG   C4A53684  16.100  18.320  15.630
 2652DOPG   C1B53685  15.230  17.060  15.520
 2652DOPG   D2B53686  15.310  16.640  15.700
 2652DOPG   C3B53687  15.510  16.560  15.970
 2652DOPG   C4B53688  15.850  16.520  16.230
 2653DOPG   GL053689   9.860  22.620  15.200
 2653DOPG   PO453690   9.630  22.440  15.060
 2653DOPG   GL153691   9.380  22.730  15.040
 2653DOPG   GL253692   9.440  22.920  15.340
 2653DOPG   C1A53693   9.080  22.880  14.880
 2653DOPG   D2A53694   8.740  22.810  14.540
 2653DOPG   C3A53695   8.880  22.580  14.240
 2653DOPG   C4A53696   8.820  22.280  13.830
 2653DOPG   C1B53697   9.420  23.230  14.960
 2653DOPG   D2B53698   9.550  23.380  14.570
 2653DOPG   C3B53699   9.500  23.880  14.470
 2653DOPG   C4B53700   9.300  24.180  14.130
 2654DOPG   GL053701  10.310  18.270  12.390
 2654DOPG   PO453702   9.840  18.200  12.300
 2654DOPG   GL153703   9.530  18.370  12.310
 2654DOPG   GL253704   9.270  18.140  12.320
 2654DOPG   C1A53705   9.150  18.520  11.980
 2654DOPG   D2A53706   8.860  18.240  11.720
 2654DOPG   C3A53707   8.450  18.410  11.870
 2654DOPG   C4A53708   8.020  18.420  11.930
 2654DOPG   C1B53709   8.780  18.190  12.510
 2654DOPG   D2B53710   8.720  18.610  12.460
 2654DOPG   C3B53711   8.400  18.750  12.730
 2654DOPG   C4B53712   8.450  19.090  13.080
 2655DOPG   GL053713   2.040  21.170  18.360
 2655DOPG   PO453714   2.210  21.520  18.530
 2655DOPG   GL153715   1.800  21.540  18.720
 2655DOPG   GL253716   1.580  21.330  18.600
 2655DOPG   C1A53717   1.650  21.670  19.060
 2655DOPG   D2A53718   1.120  21.680  19.050
 2655DOPG   C3A53719   0.890  21.750  19.470
 2655DOPG   C4A53720   0.450  21.680  19.800
 2655DOPG   C1B53721   1.300  21.290  18.900
 2655DOPG   D2B53722   0.840  21.220  18.880
 2655DOPG   C3B53723   0.620  21.600  18.770
 2655DOPG   C4B53724   0.290  21.830  18.690
 2656DOPG   GL053725  11.460  24.120  26.780
 2656DOPG   PO453726  11.720  23.950  26.540
 2656DOPG   GL153727  11.510  23.910  26.160
 2656DOPG   GL253728  11.560  23.620  26.100
 2656DOPG   C1A53729  11.420  23.880  25.710
 2656DOPG   D2A53730  11.090  24.040  25.480
 2656DOPG   C3A53731  10.740  23.730  25.440
 2656DOPG   C4A53732  10.370  23.540  25.460
 2656DOPG   C1B53733  11.430  23.340  25.810
 2656DOPG   D2B53734  11.090  23.390  25.700
 2656DOPG   C3B53735  10.650  23.220  25.690
 2656DOPG   C4B53736  10.320  23.020  25.470
 2657DOPG   GL053737  16.250   8.750  19.960
 2657DOPG   PO453738  16.030   8.560  19.670
 2657DOPG   GL153739  15.980   8.990  19.480
 2657DOPG   GL253740  16.220   9.160  19.290
 2657DOPG   C1A53741  15.590   9.190  19.310
 2657DOPG   D2A53742  15.470   9.470  19.100
 2657DOPG   C3A53743  15.490   9.850  19.320
 2657DOPG   C4A53744  15.350  10.240  19.190
 2657DOPG   C1B53745  15.940   9.570  19.160
 2657DOPG   D2B53746  15.700   9.850  18.880
 2657DOPG   C3B53747  15.310   9.860  18.840
 2657DOPG   C4B53748  15.030   9.940  18.490
 2658DOPG   GL053749  11.170  18.770  17.910
 2658DOPG   PO453750  11.430  18.900  18.250
 2658DOPG   GL153751  11.690  18.680  18.560
 2658DOPG   GL253752  11.870  18.470  18.360
 2658DOPG   C1A53753  11.690  18.690  19.010
 2658DOPG   D2A53754  11.880  18.340  19.240
 2658DOPG   C3A53755  12.070  18.000  19.140
 2658DOPG   C4A53756  11.850  17.560  19.100
 2658DOPG   C1B53757  12.130  18.220  18.570
 2658DOPG   D2B53758  12.470  18.090  18.780
 2658DOPG   C3B53759  12.450  17.730  18.950
 2658DOPG   C4B53760  12.280  17.450  19.360
 2659DOPG   GL053761  11.950  12.400  11.760
 2659DOPG   PO453762  12.360  12.500  11.580
 2659DOPG   GL153763  12.240  12.790  11.250
 2659DOPG   GL253764  12.010  12.690  11.300
 2659DOPG   C1A53765  11.930  13.200  11.190
 2659DOPG   D2A53766  11.640  13.500  11.390
 2659DOPG   C3A53767  11.310  13.530  11.640
 2659DOPG   C4A53768  11.280  13.970  11.870
 2659DOPG   C1B53769  11.840  12.900  11.610
 2659DOPG   D2B53770  11.490  13.100  11.630
 2659DOPG   C3B53771  11.150  13.050  11.900
 2659DOPG   C4B53772  11.020  13.400  12.090
 2660DOPG   GL053773  19.340  28.160  10.850
 2660DOPG   PO453774  18.990  28.010  10.920
 2660DOPG   GL153775  18.630  27.770  11.080
 2660DOPG   GL253776  18.310  27.920  11.160
 2660DOPG   C1A53777  18.280  27.480  10.960
 2660DOPG   D2A53778  17.930  27.080  11.000
 2660DOPG   C3A53779  17.900  26.750  10.850
 2660DOPG   C4A53780  17.600  26.420  10.890
 2660DOPG   C1B53781  18.170  27.650  11.410
 2660DOPG   D2B53782  17.690  27.630  11.510
 2660DOPG   C3B53783  17.340  27.300  11.720
 2660DOPG   C4B53784  16.970  27.120  11.440
 2661DOPG   GL053785  10.610  26.030  19.030
 2661DOPG   PO453786  10.720  25.700  18.650
 2661DOPG   GL153787  10.520  25.320  18.620
 2661DOPG   GL253788  10.180  25.430  18.590
 2661DOPG   C1A53789  10.740  24.980  18.380
 2661DOPG   D2A53790  10.950  24.600  18.200
 2661DOPG   C3A53791  10.780  24.370  17.810
 2661DOPG   C4A53792  10.550  24.140  17.450
 2661DOPG   C1B53793  10.210  24.880  18.510
 2661DOPG   D2B53794  10.390  24.710  18.150
 2661DOPG   C3B53795  10.350  24.630  17.710
 2661DOPG   C4B53796  10.070  24.460  17.440
 2662DOPG   GL053797  12.700  15.500  14.190
 2662DOPG   PO453798  12.740  15.180  14.060
 2662DOPG   GL153799  12.560  14.880  13.860
 2662DOPG   GL253800  12.780  14.810  13.710
 2662DOPG   C1A53801  12.400  14.540  13.860
 2662DOPG   D2A53802  12.310  14.010  13.780
 2662DOPG   C3A53803  12.620  13.630  13.760
 2662DOPG   C4A53804  13.040  13.610  13.660
 2662DOPG   C1B53805  13.020  14.600  13.350
 2662DOPG   D2B53806  12.900  14.370  13.050
 2662DOPG   C3B53807  12.500  14.220  12.790
 2662DOPG   C4B53808  12.230  14.200  12.390
 2663DOPG   GL053809  14.150  31.830  12.650
 2663DOPG   PO453810  13.960  31.380  12.600
 2663DOPG   GL153811  13.790  30.950  12.620
 2663DOPG   GL253812  14.050  30.710  12.790
 2663DOPG   C1A53813  13.610  30.620  12.580
 2663DOPG   D2A53814  13.320  30.330  12.810
 2663DOPG   C3A53815  13.180  30.140  13.210
 2663DOPG   C4A53816  13.010  30.040  13.640
 2663DOPG   C1B53817  14.000  30.190  12.800
 2663DOPG   D2B53818  14.170  29.730  12.750
 2663DOPG   C3B53819  14.090  29.470  13.110
 2663DOPG   C4B53820  14.230  29.230  13.440
 2664DOPG   GL053821  10.590  18.410  11.970
 2664DOPG   PO453822  10.340  18.420  11.610
 2664DOPG   GL153823   9.980  18.390  11.480
 2664DOPG   GL253824   9.730  18.260  11.580
 2664DOPG   C1A53825   9.700  18.690  11.200
 2664DOPG   D2A53826   9.330  19.010  10.950
 2664DOPG   C3A53827   9.250  19.110  10.490
 2664DOPG   C4A53828   9.310  19.370  10.200
 2664DOPG   C1B53829   9.290  18.520  11.480
 2664DOPG   D2B53830   8.950  18.620  11.230
 2664DOPG   C3B53831   8.810  18.800  11.510
 2664DOPG   C4B53832   8.420  18.910  11.580
 2665DOPG   GL053833   4.010  29.330  19.870
 2665DOPG   PO453834   4.280  29.520  19.650
 2665DOPG   GL153835   4.310  29.350  19.250
 2665DOPG   GL253836   4.120  29.330  18.920
 2665DOPG   C1A53837   4.680  29.330  18.980
 2665DOPG   D2A53838   4.940  29.190  19.250
 2665DOPG   C3A53839   4.960  29.220  19.700
 2665DOPG   C4A53840   4.870  28.810  19.930
 2665DOPG   C1B53841   4.170  28.960  18.990
 2665DOPG   D2B53842   4.180  28.480  18.870
 2665DOPG   C3B53843   4.550  28.220  18.790
 2665DOPG   C4B53844   4.970  28.020  18.740
 2666DOPG   GL053845  15.690  12.050  15.640
 2666DOPG   PO453846  15.370  11.770  15.700
 2666DOPG   GL153847  15.750  11.480  15.750
 2666DOPG   GL253848  16.020  11.470  16.060
 2666DOPG   C1A53849  16.010  11.080  15.810
 2666DOPG   D2A53850  16.340  10.980  15.750
 2666DOPG   C3A53851  16.650  10.840  15.970
 2666DOPG   C4A53852  16.850  10.480  16.250
 2666DOPG   C1B53853  16.180  11.060  16.300
 2666DOPG   D2B53854  16.390  10.630  16.340
 2666DOPG   C3B53855  16.030  10.260  16.270
 2666DOPG   C4B53856  15.720  10.180  15.930
 2667DOPG   GL053857  12.430  21.040  11.610
 2667DOPG   PO453858  12.620  21.310  11.820
 2667DOPG   GL153859  12.650  21.510  11.520
 2667DOPG   GL253860  12.770  21.890  11.560
 2667DOPG   C1A53861  12.500  21.670  11.180
 2667DOPG   D2A53862  12.310  21.770  10.870
 2667DOPG   C3A53863  11.850  21.640  10.710
 2667DOPG   C4A53864  11.380  21.490  10.730
 2667DOPG   C1B53865  13.120  22.160  11.590
 2667DOPG   D2B53866  13.400  22.630  11.740
 2667DOPG   C3B53867  13.780  22.670  11.590
 2667DOPG   C4B53868  14.070  22.380  11.320
 2668DOPG   GL053869   0.190  28.090  19.140
 2668DOPG   PO453870   0.410  27.800  19.440
 2668DOPG   GL153871   0.850  27.620  19.120
 2668DOPG   GL253872   0.890  27.370  19.010
 2668DOPG   C1A53873   1.310  27.570  19.000
 2668DOPG   D2A53874   1.760  27.660  19.090
 2668DOPG   C3A53875   1.850  27.890  18.710
 2668DOPG   C4A53876   2.030  27.520  18.500
 2668DOPG   C1B53877   1.120  27.110  19.070
 2668DOPG   D2B53878   1.420  26.690  19.080
 2668DOPG   C3B53879   1.820  26.640  19.340
 2668DOPG   C4B53880   2.190  26.740  19.480
 2669DOPG   GL053881  15.120  18.590  13.920
 2669DOPG   PO453882  15.320  18.690  13.530
 2669DOPG   GL153883  15.680  18.570  13.530
 2669DOPG   GL253884  15.750  18.540  13.250
 2669DOPG   C1A53885  16.020  18.700  13.730
 2669DOPG   D2A53886  16.360  18.570  14.000
 2669DOPG   C3A53887  16.770  18.340  13.850
 2669DOPG   C4A53888  17.050  18.000  13.810
 2669DOPG   C1B53889  16.040  18.790  13.190
 2669DOPG   D2B53890  16.430  19.050  13.030
 2669DOPG   C3B53891  16.670  19.270  12.790
 2669DOPG   C4B53892  16.880  19.350  12.350
 2670DOPG   GL053893  10.040  22.240  14.450
 2670DOPG   PO453894  10.460  22.020  14.350
 2670DOPG   GL153895  10.560  22.330  14.090
 2670DOPG   GL253896  10.310  22.480  14.120
 2670DOPG   C1A53897  10.740  22.750  14.030
 2670DOPG   D2A53898  10.580  23.260  14.050
 2670DOPG   C3A53899  10.550  23.600  14.330
 2670DOPG   C4A53900  10.420  23.730  14.670
 2670DOPG   C1B53901   9.830  22.570  14.260
 2670DOPG   D2B53902   9.450  22.590  14.480
 2670DOPG   C3B53903   9.140  22.310  14.570
 2670DOPG   C4B53904   8.720  22.140  14.620
 2671DOPG   GL053905   9.940   9.290   6.310
 2671DOPG   PO453906  10.230   9.300   6.590
 2671DOPG   GL153907   9.920   9.680   6.750
 2671DOPG   GL253908   9.850   9.920   6.460
 2671DOPG   C1A53909   9.900   9.830   7.120
 2671DOPG   D2A53910  10.000   9.860   7.540
 2671DOPG   C3A53911   9.710   9.920   7.890
 2671DOPG   C4A53912   9.650  10.420   8.080
 2671DOPG   C1B53913  10.090  10.170   6.700
 2671DOPG   D2B53914  10.490  10.330   6.750
 2671DOPG   C3B53915  10.610  10.610   7.170
 2671DOPG   C4B53916  11.000  10.800   7.250
 2672DOPG   GL053917   3.500  21.260  25.530
 2672DOPG   PO453918   3.880  21.410  25.480
 2672DOPG   GL153919   4.250  21.330  25.140
 2672DOPG   GL253920   4.570  21.460  25.360
 2672DOPG   C1A53921   4.430  21.250  24.750
 2672DOPG   D2A53922   4.490  21.240  24.310
 2672DOPG   C3A53923   4.370  20.970  23.980
 2672DOPG   C4A53924   4.540  20.700  23.710
 2672DOPG   C1B53925   4.930  21.180  25.250
 2672DOPG   D2B53926   5.110  20.750  25.190
 2672DOPG   C3B53927   5.440  20.650  24.960
 2672DOPG   C4B53928   5.740  20.870  24.820
 2673DOPG   GL053929  12.330  21.660  13.100
 2673DOPG   PO453930  12.290  21.700  12.780
 2673DOPG   GL153931  11.820  21.900  12.700
 2673DOPG   GL253932  11.670  21.870  12.400
 2673DOPG   C1A53933  11.710  22.310  12.610
 2673DOPG   D2A53934  11.580  22.710  12.720
 2673DOPG   C3A53935  11.200  22.850  12.520
 2673DOPG   C4A53936  10.930  22.670  12.210
 2673DOPG   C1B53937  11.500  22.020  11.980
 2673DOPG   D2B53938  11.400  22.080  11.500
 2673DOPG   C3B53939  11.190  22.370  11.270
 2673DOPG   C4B53940  10.810  22.710  11.060
 2674DOPG   GL053941  10.290  16.710  12.110
 2674DOPG   PO453942  10.130  16.540  12.450
 2674DOPG   GL153943   9.990  16.270  12.000
 2674DOPG   GL253944  10.160  16.420  11.780
 2674DOPG   C1A53945   9.750  15.990  11.810
 2674DOPG   D2A53946   9.660  15.630  11.640
 2674DOPG   C3A53947   9.840  15.430  11.180
 2674DOPG   C4A53948  10.080  15.420  10.900
 2674DOPG   C1B53949   9.810  16.380  11.510
 2674DOPG   D2B53950   9.650  16.630  11.180
 2674DOPG   C3B53951   9.820  17.030  11.300
 2674DOPG   C4B53952   9.710  17.440  11.040
 2675DOPG   GL053953   5.650  19.410  26.660
 2675DOPG   PO453954   5.880  18.980  26.630
 2675DOPG   GL153955   5.960  19.130  26.160
 2675DOPG   GL253956   5.680  19.410  26.020
 2675DOPG   C1A53957   6.140  19.530  26.050
 2675DOPG   D2A53958   6.370  19.620  25.640
 2675DOPG   C3A53959   6.180  19.810  25.300
 2675DOPG   C4A53960   6.130  19.760  24.870
 2675DOPG   C1B53961   5.910  19.330  25.680
 2675DOPG   D2B53962   6.090  18.980  25.490
 2675DOPG   C3B53963   6.390  19.020  25.260
 2675DOPG   C4B53964   6.710  18.860  25.270
 2676DOPG   GL053965  12.920  15.620  16.010
 2676DOPG   PO453966  12.500  15.910  15.930
 2676DOPG   GL153967  12.210  15.540  16.140
 2676DOPG   GL253968  12.500  15.310  15.920
 2676DOPG   C1A53969  12.210  15.530  16.560
 2676DOPG   D2A53970  12.060  15.410  17.020
 2676DOPG   C3A53971  12.110  15.080  17.230
 2676DOPG   C4A53972  12.340  14.810  17.360
 2676DOPG   C1B53973  12.300  15.030  16.280
 2676DOPG   D2B53974  11.970  14.950  16.640
 2676DOPG   C3B53975  11.940  14.660  16.910
 2676DOPG   C4B53976  11.960  14.200  17.220
 2677DOPG   GL053977   9.240  16.670  14.540
 2677DOPG   PO453978   9.040  16.440  14.870
 2677DOPG   GL153979   8.670  16.270  14.920
 2677DOPG   GL253980   8.520  16.090  14.680
 2677DOPG   C1A53981   8.630  16.080  15.280
 2677DOPG   D2A53982   8.240  15.930  15.550
 2677DOPG   C3A53983   8.120  15.500  15.530
 2677DOPG   C4A53984   8.130  15.130  15.810
 2677DOPG   C1B53985   8.140  16.100  14.550
 2677DOPG   D2B53986   7.850  16.310  14.270
 2677DOPG   C3B53987   7.530  16.190  14.060
 2677DOPG   C4B53988   7.480  16.220  13.510
 2678DOPG   GL053989   9.290  18.200  14.450
 2678DOPG   PO453990   8.970  18.480  14.360
 2678DOPG   GL153991   8.560  18.410  14.310
 2678DOPG   GL253992   8.350  18.320  14.480
 2678DOPG   C1A53993   8.240  18.340  13.950
 2678DOPG   D2A53994   8.210  17.840  13.930
 2678DOPG   C3A53995   7.880  17.670  14.130
 2678DOPG   C4A53996   7.720  17.390  14.460
 2678DOPG   C1B53997   7.970  18.510  14.730
 2678DOPG   D2B53998   7.860  19.020  14.690
 2678DOPG   C3B53999   8.220  19.410  14.580
 2678DOPG   C4B54000   8.540  19.730  14.640
 2679DOPG   GL054001   9.760  18.770  14.080
 2679DOPG   PO454002   9.390  18.880  13.760
 2679DOPG   GL154003   9.000  18.910  13.590
 2679DOPG   GL254004   8.940  18.800  13.290
 2679DOPG   C1A54005   8.460  18.680  13.500
 2679DOPG   D2A54006   8.160  18.970  13.520
 2679DOPG   C3A54007   8.080  18.790  13.860
 2679DOPG   C4A54008   8.030  18.690  14.310
 2679DOPG   C1B54009   8.840  18.950  12.810
 2679DOPG   D2B54010   8.520  19.200  12.590
 2679DOPG   C3B54011   8.120  19.160  12.740
 2679DOPG   C4B54012   7.680  19.040  12.730
 2680DOPG   GL054013  18.650  17.300  13.980
 2680DOPG   PO454014  18.530  17.420  13.590
 2680DOPG   GL154015  18.260  17.040  13.470
 2680DOPG   GL254016  18.000  17.180  13.390
 2680DOPG   C1A54017  18.060  16.620  13.710
 2680DOPG   D2A54018  17.760  16.270  13.560
 2680DOPG   C3A54019  17.370  16.340  13.490
 2680DOPG   C4A54020  16.900  16.450  13.640
 2680DOPG   C1B54021  17.540  17.330  13.400
 2680DOPG   D2B54022  17.380  17.610  13.590
 2680DOPG   C3B54023  17.410  17.510  13.980
 2680DOPG   C4B54024  17.340  17.120  14.240
 2681DOPG   GL054025  14.830  17.220  13.390
 2681DOPG   PO454026  14.790  16.770  13.420
 2681DOPG   GL154027  15.120  16.820  13.160
 2681DOPG   GL254028  15.130  16.740  12.820
 2681DOPG   C1A54029  15.530  16.700  13.180
 2681DOPG   D2A54030  15.870  16.840  13.430
 2681DOPG   C3A54031  16.270  17.010  13.520
 2681DOPG   C4A54032  16.720  16.960  13.770
 2681DOPG   C1B54033  15.160  16.680  12.390
 2681DOPG   D2B54034  15.010  16.510  11.980
 2681DOPG   C3B54035  15.070  16.320  11.550
 2681DOPG   C4B54036  15.090  16.050  11.360
 2682DOPG   GL054037  15.020  17.160   8.280
 2682DOPG   PO454038  15.190  17.340   8.740
 2682DOPG   GL154039  14.960  17.460   9.150
 2682DOPG   GL254040  14.720  17.680   9.160
 2682DOPG   C1A54041  15.030  17.240   9.460
 2682DOPG   D2A54042  15.320  17.100   9.700
 2682DOPG   C3A54043  15.690  16.750   9.740
 2682DOPG   C4A54044  15.810  16.290   9.800
 2682DOPG   C1B54045  14.710  17.680   9.510
 2682DOPG   D2B54046  14.690  17.760   9.990
 2682DOPG   C3B54047  14.640  18.110  10.240
 2682DOPG   C4B54048  14.850  18.360  10.640
 2683DOPG   GL054049  35.870  21.100  22.190
 2683DOPG   PO454050  36.040  20.680  21.890
 2683DOPG   GL154051   0.090  20.740  21.780
 2683DOPG   GL254052   0.220  20.740  21.400
 2683DOPG   C1A54053   0.460  21.010  21.730
 2683DOPG   D2A54054   0.820  20.910  21.710
 2683DOPG   C3A54055   1.150  20.480  21.690
 2683DOPG   C4A54056   1.500  20.150  21.550
 2683DOPG   C1B54057   0.390  20.400  21.160
 2683DOPG   D2B54058   0.630  20.070  21.030
 2683DOPG   C3B54059   0.960  20.020  21.240
 2683DOPG   C4B54060   1.350  19.880  21.170
 2684DOPG   GL054061  10.340  15.930  15.310
 2684DOPG   PO454062  10.050  16.190  15.040
 2684DOPG   GL154063   9.860  15.800  15.270
 2684DOPG   GL254064   9.570  15.860  15.430
 2684DOPG   C1A54065   9.840  15.330  15.430
 2684DOPG   D2A54066   9.760  14.880  15.640
 2684DOPG   C3A54067   9.900  14.510  15.380
 2684DOPG   C4A54068   9.610  14.290  15.140
 2684DOPG   C1B54069   9.430  15.610  15.740
 2684DOPG   D2B54070   9.060  15.310  15.890
 2684DOPG   C3B54071   8.720  15.360  16.090
 2684DOPG   C4B54072   8.410  15.560  16.060
 2685DOPG   GL054073   6.300  11.440  23.160
 2685DOPG   PO454074   6.500  11.430  22.670
 2685DOPG   GL154075   6.700  11.490  22.190
 2685DOPG   GL254076   6.550  11.200  22.070
 2685DOPG   C1A54077   6.720  11.550  21.800
 2685DOPG   D2A54078   6.950  11.440  21.440
 2685DOPG   C3A54079   7.040  11.580  20.960
 2685DOPG   C4A54080   7.370  11.800  20.780
 2685DOPG   C1B54081   6.340  11.220  21.670
 2685DOPG   D2B54082   5.990  11.140  21.440
 2685DOPG   C3B54083   6.000  11.230  20.980
 2685DOPG   C4B54084   5.990  11.520  20.550
 2686DOPG   GL054085  10.400  15.800  16.570
 2686DOPG   PO454086  10.220  15.930  16.220
 2686DOPG   GL154087  10.140  15.490  16.190
 2686DOPG   GL254088   9.900  15.360  15.910
 2686DOPG   C1A54089  10.290  15.040  16.210
 2686DOPG   D2A54090  10.290  14.660  16.390
 2686DOPG   C3A54091  10.220  14.250  16.210
 2686DOPG   C4A54092  10.300  14.060  15.920
 2686DOPG   C1B54093   9.570  15.200  16.010
 2686DOPG   D2B54094   9.220  15.110  16.360
 2686DOPG   C3B54095   9.210  14.850  16.670
 2686DOPG   C4B54096   9.220  14.690  16.980
 2687DOPG   GL054097  14.120  19.800  11.870
 2687DOPG   PO454098  13.890  20.140  12.080
 2687DOPG   GL154099  14.310  20.230  11.850
 2687DOPG   GL254100  14.040  20.130  11.520
 2687DOPG   C1A54101  14.670  20.420  11.660
 2687DOPG   D2A54102  15.010  20.610  11.900
 2687DOPG   C3A54103  15.460  20.450  11.910
 2687DOPG   C4A54104  15.630  20.050  11.680
 2687DOPG   C1B54105  13.920  20.290  11.140
 2687DOPG   D2B54106  14.020  20.330  10.740
 2687DOPG   C3B54107  14.210  19.960  10.630
 2687DOPG   C4B54108  14.440  20.020  10.230
 2688DOPG   GL054109  15.420  19.920  14.910
 2688DOPG   PO454110  15.170  20.060  14.620
 2688DOPG   GL154111  15.550  20.290  14.490
 2688DOPG   GL254112  15.690  20.280  14.270
 2688DOPG   C1A54113  15.850  20.730  14.350
 2688DOPG   D2A54114  16.210  20.930  14.150
 2688DOPG   C3A54115  16.680  20.950  14.360
 2688DOPG   C4A54116  16.830  20.890  14.800
 2688DOPG   C1B54117  16.030  20.150  14.040
 2688DOPG   D2B54118  16.230  19.870  13.820
 2688DOPG   C3B54119  16.500  19.960  13.440
 2688DOPG   C4B54120  16.380  20.220  13.080
 2689DOPG   GL054121  11.890  19.420  12.110
 2689DOPG   PO454122  12.290  19.270  11.890
 2689DOPG   GL154123  12.390  19.340  11.480
 2689DOPG   GL254124  12.330  19.010  11.190
 2689DOPG   C1A54125  12.640  19.400  11.050
 2689DOPG   D2A54126  12.630  19.260  10.600
 2689DOPG   C3A54127  12.570  19.550  10.270
 2689DOPG   C4A54128  12.370  19.780   9.910
 2689DOPG   C1B54129  12.160  19.400  11.020
 2689DOPG   D2B54130  11.710  19.420  10.840
 2689DOPG   C3B54131  11.320  19.430  10.900
 2689DOPG   C4B54132  11.000  19.290  11.200
 2690DOPG   GL054133  17.460  20.660   3.590
 2690DOPG   PO454134  17.350  20.440   4.080
 2690DOPG   GL154135  17.380  20.750   4.490
 2690DOPG   GL254136  17.720  20.700   4.470
 2690DOPG   C1A54137  17.510  20.640   4.950
 2690DOPG   D2A54138  17.820  20.540   5.350
 2690DOPG   C3A54139  17.790  20.780   5.720
 2690DOPG   C4A54140  17.880  20.850   6.180
 2690DOPG   C1B54141  17.800  20.240   4.800
 2690DOPG   D2B54142  17.930  20.090   5.220
 2690DOPG   C3B54143  17.600  20.050   5.550
 2690DOPG   C4B54144  17.540  20.230   5.840
 2691DOPG   GL054145   6.310  14.630  25.220
 2691DOPG   PO454146   6.160  14.810  24.910
 2691DOPG   GL154147   6.260  15.210  24.650
 2691DOPG   GL254148   6.540  15.190  24.500
 2691DOPG   C1A54149   6.190  15.610  24.550
 2691DOPG   D2A54150   6.160  16.010  24.630
 2691DOPG   C3A54151   6.470  16.290  24.660
 2691DOPG   C4A54152   6.850  16.620  24.550
 2691DOPG   C1B54153   6.470  15.450  24.100
 2691DOPG   D2B54154   6.350  15.560  23.730
 2691DOPG   C3B54155   6.650  15.630  23.340
 2691DOPG   C4B54156   7.060  15.680  22.990
 2692DOPG   GL054157  14.390  13.290  10.960
 2692DOPG   PO454158  14.690  12.970  11.220
 2692DOPG   GL154159  14.440  13.210  11.540
 2692DOPG   GL254160  14.550  13.110  11.900
 2692DOPG   C1A54161  14.470  13.640  11.720
 2692DOPG   D2A54162  14.490  14.080  11.960
 2692DOPG   C3A54163  14.890  14.210  12.210
 2692DOPG   C4A54164  15.310  14.380  11.960
 2692DOPG   C1B54165  14.440  13.310  12.230
 2692DOPG   D2B54166  14.220  13.690  12.290
 2692DOPG   C3B54167  13.800  13.870  12.450
 2692DOPG   C4B54168  13.310  14.040  12.490
 2693DOPG   GL054169   5.430  16.410  25.030
 2693DOPG   PO454170   4.970  16.440  25.120
 2693DOPG   GL154171   4.980  16.730  24.780
 2693DOPG   GL254172   4.830  17.050  24.970
 2693DOPG   C1A54173   5.040  17.000  24.380
 2693DOPG   D2A54174   4.730  16.720  24.190
 2693DOPG   C3A54175   4.530  16.970  23.860
 2693DOPG   C4A54176   4.280  16.880  23.500
 2693DOPG   C1B54177   5.110  17.230  24.890
 2693DOPG   D2B54178   5.430  17.150  24.640
 2693DOPG   C3B54179   5.800  17.440  24.570
 2693DOPG   C4B54180   6.150  17.590  24.500
 2694DOPG   GL054181   9.640  15.850  13.870
 2694DOPG   PO454182   9.250  15.580  13.870
 2694DOPG   GL154183   9.170  15.220  13.700
 2694DOPG   GL254184   9.100  15.160  14.130
 2694DOPG   C1A54185   9.100  14.910  13.450
 2694DOPG   D2A54186   8.760  14.890  13.260
 2694DOPG   C3A54187   8.410  14.890  13.550
 2694DOPG   C4A54188   8.320  15.270  13.790
 2694DOPG   C1B54189   8.780  14.960  13.860
 2694DOPG   D2B54190   8.510  14.550  13.880
 2694DOPG   C3B54191   8.320  14.810  14.260
 2694DOPG   C4B54192   8.420  15.260  14.320
 2695DOPG   GL054193  11.380   7.550  10.810
 2695DOPG   PO454194  11.310   7.640  10.340
 2695DOPG   GL154195  11.000   7.810  10.520
 2695DOPG   GL254196  10.900   7.660  10.840
 2695DOPG   C1A54197  10.910   8.170  10.730
 2695DOPG   D2A54198  11.330   8.480  10.840
 2695DOPG   C3A54199  11.650   8.460  10.470
 2695DOPG   C4A54200  11.450   8.210  10.190
 2695DOPG   C1B54201  10.990   7.880  11.160
 2695DOPG   D2B54202  11.000   8.390  11.260
 2695DOPG   C3B54203  10.760   8.550  11.590
 2695DOPG   C4B54204  10.580   8.910  11.740
 2696DOPG   GL054205  33.420  19.550  16.500
 2696DOPG   PO454206  33.860  19.510  16.730
 2696DOPG   GL154207  34.280  19.600  16.990
 2696DOPG   GL254208  34.440  19.690  16.640
 2696DOPG   C1A54209  34.670  19.830  17.210
 2696DOPG   D2A54210  35.010  20.060  17.210
 2696DOPG   C3A54211  34.900  20.430  17.050
 2696DOPG   C4A54212  34.720  20.790  16.740
 2696DOPG   C1B54213  34.780  19.440  16.790
 2696DOPG   D2B54214  35.190  19.640  16.880
 2696DOPG   C3B54215  35.410  19.320  17.070
 2696DOPG   C4B54216  35.460  19.140  17.500
 2697DOPG   GL054217  34.220  21.790  17.350
 2697DOPG   PO454218  34.310  21.760  17.770
 2697DOPG   GL154219  34.710  21.580  17.600
 2697DOPG   GL254220  35.050  21.760  17.650
 2697DOPG   C1A54221  35.040  21.350  17.360
 2697DOPG   D2A54222  35.280  21.560  17.110
 2697DOPG   C3A54223  35.630  21.330  17.180
 2697DOPG   C4A54224  36.020  21.220  17.010
 2697DOPG   C1B54225  35.460  21.720  17.550
 2697DOPG   D2B54226  35.880  21.730  17.550
 2697DOPG   C3B54227  36.210  21.890  17.500
 2697DOPG   C4B54228   0.190  22.100  17.710
 2698DOPG   GL054229  11.680  17.260  16.710
 2698DOPG   PO454230  11.530  17.490  17.080
 2698DOPG   GL154231  11.280  17.370  17.350
 2698DOPG   GL254232  11.550  17.330  17.580
 2698DOPG   C1A54233  11.030  17.070  17.660
 2698DOPG   D2A54234  10.850  16.930  18.060
 2698DOPG   C3A54235  10.800  16.590  18.520
 2698DOPG   C4A54236  10.690  16.380  18.920
 2698DOPG   C1B54237  11.870  17.430  17.800
 2698DOPG   D2B54238  12.170  17.060  17.720
 2698DOPG   C3B54239  12.420  16.730  17.950
 2698DOPG   C4B54240  12.710  16.480  18.020
 2699DOPG   GL054241   7.030  27.440   6.850
 2699DOPG   PO454242   7.080  27.180   6.590
 2699DOPG   GL154243   7.390  26.960   6.880
 2699DOPG   GL254244   7.530  26.640   6.940
 2699DOPG   C1A54245   7.400  26.860   7.360
 2699DOPG   D2A54246   7.340  26.600   7.740
 2699DOPG   C3A54247   7.530  26.250   7.720
 2699DOPG   C4A54248   7.640  25.990   7.470
 2699DOPG   C1B54249   7.880  26.590   7.210
 2699DOPG   D2B54250   7.990  26.390   7.440
 2699DOPG   C3B54251   8.440  26.230   7.500
 2699DOPG   C4B54252   8.750  26.170   7.640
 2700DOPG   GL054253  13.400  17.020  15.910
 2700DOPG   PO454254  13.420  16.960  16.320
 2700DOPG   GL154255  13.510  16.720  16.640
 2700DOPG   GL254256  13.600  16.920  16.960
 2700DOPG   C1A54257  13.470  16.350  16.940
 2700DOPG   D2A54258  13.820  16.120  17.170
 2700DOPG   C3A54259  13.970  15.760  17.040
 2700DOPG   C4A54260  13.930  15.340  17.230
 2700DOPG   C1B54261  13.950  16.570  16.920
 2700DOPG   D2B54262  14.360  16.420  17.130
 2700DOPG   C3B54263  14.770  16.490  17.380
 2700DOPG   C4B54264  15.210  16.570  17.340
 2701DOPG   GL054265  35.210  22.060  19.140
 2701DOPG   PO454266  35.210  22.380  19.400
 2701DOPG   GL154267  35.480  22.570  19.100
 2701DOPG   GL254268  35.690  22.550  19.450
 2701DOPG   C1A54269  35.620  22.300  18.700
 2701DOPG   D2A54270  35.640  22.050  18.320
 2701DOPG   C3A54271  35.870  21.960  17.980
 2701DOPG   C4A54272  36.130  22.310  17.790
 2701DOPG   C1B54273  35.940  22.580  19.080
 2701DOPG   D2B54274  36.270  22.350  18.830
 2701DOPG   C3B54275  36.330  21.910  19.080
 2701DOPG   C4B54276   0.070  21.640  19.410
 2702DOPG   GL054277   1.060  14.250   7.790
 2702DOPG   PO454278   1.100  14.260   8.280
 2702DOPG   GL154279   1.480  14.360   8.510
 2702DOPG   GL254280   1.630  14.640   8.390
 2702DOPG   C1A54281   1.810  14.490   8.850
 2702DOPG   D2A54282   2.040  14.780   9.150
 2702DOPG   C3A54283   2.410  14.850   9.140
 2702DOPG   C4A54284   2.760  15.100   8.900
 2702DOPG   C1B54285   1.760  14.950   8.730
 2702DOPG   D2B54286   2.140  15.030   8.710
 2702DOPG   C3B54287   2.290  15.290   8.980
 2702DOPG   C4B54288   2.210  15.350   9.470
 2703DOPG   GL054289  20.230  28.600  16.380
 2703DOPG   PO454290  19.890  28.530  16.150
 2703DOPG   GL154291  19.640  28.210  16.440
 2703DOPG   GL254292  19.340  28.350  16.530
 2703DOPG   C1A54293  19.450  27.870  16.630
 2703DOPG   D2A54294  19.140  27.480  16.590
 2703DOPG   C3A54295  19.090  27.090  16.540
 2703DOPG   C4A54296  18.770  26.810  16.270
 2703DOPG   C1B54297  19.050  28.060  16.400
 2703DOPG   D2B54298  18.620  28.120  16.520
 2703DOPG   C3B54299  18.330  27.830  16.460
 2703DOPG   C4B54300  17.930  27.890  16.350
 2704DOPG   GL054301  35.590  18.480   9.050
 2704DOPG   PO454302  35.870  18.790   9.130
 2704DOPG   GL154303  36.290  18.790   9.280
 2704DOPG   GL254304  36.300  18.440   9.380
 2704DOPG   C1A54305   0.380  18.850   9.400
 2704DOPG   D2A54306   0.830  18.800   9.290
 2704DOPG   C3A54307   0.940  18.430   9.580
 2704DOPG   C4A54308   1.100  18.150   9.770
 2704DOPG   C1B54309   0.080  18.120   9.790
 2704DOPG   D2B54310   0.250  18.110  10.140
 2704DOPG   C3B54311   0.310  18.480  10.380
 2704DOPG   C4B54312   0.010  18.870  10.490
 2705DOPG   GL054313   1.180  25.480  21.420
 2705DOPG   PO454314   0.920  25.340  21.850
 2705DOPG   GL154315   1.340  25.220  21.930
 2705DOPG   GL254316   1.470  24.830  21.920
 2705DOPG   C1A54317   1.640  25.240  21.600
 2705DOPG   D2A54318   1.790  25.110  21.230
 2705DOPG   C3A54319   2.180  24.930  21.090
 2705DOPG   C4A54320   2.700  24.910  21.140
 2705DOPG   C1B54321   1.610  24.540  21.760
 2705DOPG   D2B54322   1.600  24.100  21.560
 2705DOPG   C3B54323   1.820  24.050  21.230
 2705DOPG   C4B54324   1.660  23.730  20.930
 2706DOPG   GL054325   8.080  16.850  22.450
 2706DOPG   PO454326   7.940  16.640  22.100
 2706DOPG   GL154327   7.980  16.340  22.410
 2706DOPG   GL254328   8.090  16.470  22.840
 2706DOPG   C1A54329   7.730  16.070  22.670
 2706DOPG   D2A54330   7.510  15.820  22.760
 2706DOPG   C3A54331   7.500  15.630  23.160
 2706DOPG   C4A54332   7.240  15.660  23.510
 2706DOPG   C1B54333   7.770  16.320  23.220
 2706DOPG   D2B54334   7.540  16.120  23.530
 2706DOPG   C3B54335   7.230  16.060  23.820
 2706DOPG   C4B54336   6.750  15.840  23.860
 2707DOPG   GL054337   9.730  21.160   8.810
 2707DOPG   PO454338   9.330  21.250   8.960
 2707DOPG   GL154339   9.470  21.170   9.380
 2707DOPG   GL254340   9.280  20.830   9.500
 2707DOPG   C1A54341   9.660  21.160   9.790
 2707DOPG   D2A54342   9.980  20.790  10.050
 2707DOPG   C3A54343  10.290  20.490  10.090
 2707DOPG   C4A54344  10.370  20.100  10.110
 2707DOPG   C1B54345   9.560  20.600   9.590
 2707DOPG   D2B54346   9.780  20.410   9.770
 2707DOPG   C3B54347   9.880  20.110  10.070
 2707DOPG   C4B54348  10.020  20.000  10.470
 2708DOPG   GL054349   1.880  24.830   7.310
 2708DOPG   PO454350   1.800  24.470   7.500
 2708DOPG   GL154351   2.110  24.520   7.710
 2708DOPG   GL254352   2.380  24.710   7.720
 2708DOPG   C1A54353   2.270  24.330   8.050
 2708DOPG   D2A54354   2.610  24.240   8.330
 2708DOPG   C3A54355   2.740  23.840   8.260
 2708DOPG   C4A54356   2.750  23.610   7.820
 2708DOPG   C1B54357   2.750  24.330   7.760
 2708DOPG   D2B54358   3.170  24.490   7.700
 2708DOPG   C3B54359   3.420  24.510   7.940
 2708DOPG   C4B54360   3.410  24.520   8.370
 2709DOPG   GL054361  11.090  17.050  11.550
 2709DOPG   PO454362  11.180  17.380  11.620
 2709DOPG   GL154363  10.950  17.400  11.140
 2709DOPG   GL254364  11.300  17.320  10.870
 2709DOPG   C1A54365  10.700  17.620  10.800
 2709DOPG   D2A54366  10.850  17.790  10.430
 2709DOPG   C3A54367  10.640  18.020  10.140
 2709DOPG   C4A54368  10.740  18.380   9.930
 2709DOPG   C1B54369  11.150  16.890  10.860
 2709DOPG   D2B54370  11.030  16.540  11.170
 2709DOPG   C3B54371  10.590  16.310  11.390
 2709DOPG   C4B54372  10.170  16.080  11.420
 2710DOPG   GL054373  35.250  22.780  11.050
 2710DOPG   PO454374  35.000  22.730  10.780
 2710DOPG   GL154375  35.440  22.550  10.650
 2710DOPG   GL254376  35.750  22.580  10.720
 2710DOPG   C1A54377  35.510  22.220  10.490
 2710DOPG   D2A54378  35.490  21.740  10.410
 2710DOPG   C3A54379  35.760  21.510  10.670
 2710DOPG   C4A54380  36.080  21.350  10.860
 2710DOPG   C1B54381  35.970  22.350  10.900
 2710DOPG   D2B54382  36.360  22.190  11.060
 2710DOPG   C3B54383   0.230  22.070  11.300
 2710DOPG   C4B54384   0.620  22.320  11.430
 2711DOPG   GL054385   4.990  23.730   5.470
 2711DOPG   PO454386   5.340  24.020   5.300
 2711DOPG   GL154387   5.680  23.700   5.360
 2711DOPG   GL254388   5.820  23.360   5.120
 2711DOPG   C1A54389   5.690  23.440   5.740
 2711DOPG   D2A54390   5.520  23.090   6.030
 2711DOPG   C3A54391   5.620  22.720   6.190
 2711DOPG   C4A54392   5.800  22.750   6.730
 2711DOPG   C1B54393   6.200  23.090   5.130
 2711DOPG   D2B54394   6.490  23.150   5.490
 2711DOPG   C3B54395   6.670  23.350   5.790
 2711DOPG   C4B54396   6.830  23.300   6.180
 2712DOPG   GL054397   9.570  31.130  18.450
 2712DOPG   PO454398   9.910  30.960  18.530
 2712DOPG   GL154399   9.950  30.570  18.350
 2712DOPG   GL254400  10.200  30.500  18.100
 2712DOPG   C1A54401   9.790  30.210  18.150
 2712DOPG   D2A54402   9.810  29.930  17.810
 2712DOPG   C3A54403   9.880  29.440  17.650
 2712DOPG   C4A54404  10.090  29.020  17.690
 2712DOPG   C1B54405  10.160  30.330  17.790
 2712DOPG   D2B54406  10.050  30.190  17.330
 2712DOPG   C3B54407  10.350  30.170  17.020
 2712DOPG   C4B54408  10.590  29.860  16.720
 2713DOPG   GL054409   4.920  28.690  20.870
 2713DOPG   PO454410   5.150  28.940  21.150
 2713DOPG   GL154411   5.410  28.570  21.000
 2713DOPG   GL254412   5.670  28.520  21.200
 2713DOPG   C1A54413   5.540  28.370  20.680
 2713DOPG   D2A54414   5.760  28.040  20.490
 2713DOPG   C3A54415   6.090  27.910  20.350
 2713DOPG   C4A54416   6.420  27.650  20.240
 2713DOPG   C1B54417   5.890  28.230  21.100
 2713DOPG   D2B54418   5.860  27.850  20.920
 2713DOPG   C3B54419   6.140  27.540  20.660
 2713DOPG   C4B54420   6.400  27.230  20.650
 2714DOPG   GL054421  14.740  17.670  13.040
 2714DOPG   PO454422  14.540  17.270  12.990
 2714DOPG   GL154423  14.890  17.290  12.730
 2714DOPG   GL254424  14.890  17.560  12.540
 2714DOPG   C1A54425  15.220  17.170  12.570
 2714DOPG   D2A54426  15.630  17.070  12.500
 2714DOPG   C3A54427  15.730  16.800  12.210
 2714DOPG   C4A54428  15.980  16.610  11.930
 2714DOPG   C1B54429  14.950  17.300  12.170
 2714DOPG   D2B54430  15.250  17.080  11.980
 2714DOPG   C3B54431  15.690  17.130  11.890
 2714DOPG   C4B54432  16.050  17.340  11.630
 2715DOPG   GL054433  15.850  20.450  25.960
 2715DOPG   PO454434  15.540  20.650  25.880
 2715DOPG   GL154435  15.270  20.520  25.600
 2715DOPG   GL254436  15.060  20.170  25.650
 2715DOPG   C1A54437  14.880  20.620  25.340
 2715DOPG   D2A54438  14.870  20.920  24.990
 2715DOPG   C3A54439  14.430  21.120  24.920
 2715DOPG   C4A54440  14.210  20.950  24.510
 2715DOPG   C1B54441  15.180  20.270  25.210
 2715DOPG   D2B54442  15.190  20.510  24.910
 2715DOPG   C3B54443  15.000  20.300  24.650
 2715DOPG   C4B54444  14.570  20.240  24.450
 2716DOPG   GL054445   2.980  21.740  25.370
 2716DOPG   PO454446   2.710  21.850  25.110
 2716DOPG   GL154447   3.190  21.850  24.880
 2716DOPG   GL254448   3.340  22.080  24.750
 2716DOPG   C1A54449   3.220  21.740  24.450
 2716DOPG   D2A54450   3.170  21.790  23.960
 2716DOPG   C3A54451   3.330  21.710  23.480
 2716DOPG   C4A54452   3.590  21.730  23.170
 2716DOPG   C1B54453   3.430  22.140  24.240
 2716DOPG   D2B54454   3.620  22.350  23.980
 2716DOPG   C3B54455   3.630  22.120  23.640
 2716DOPG   C4B54456   3.560  22.270  23.240
 2717DOPG   GL054457   9.010  19.920  14.680
 2717DOPG   PO454458   9.360  20.150  14.390
 2717DOPG   GL154459   9.080  20.360  14.220
 2717DOPG   GL254460   9.040  20.630  14.350
 2717DOPG   C1A54461   8.900  20.370  13.850
 2717DOPG   D2A54462   8.580  20.420  13.590
 2717DOPG   C3A54463   8.230  20.720  13.600
 2717DOPG   C4A54464   7.830  20.580  13.620
 2717DOPG   C1B54465   8.610  20.830  14.210
 2717DOPG   D2B54466   8.260  21.020  14.220
 2717DOPG   C3B54467   8.050  21.400  13.970
 2717DOPG   C4B54468   7.990  21.780  14.210
 2718DOPG   GL054469   4.730  18.110  26.220
 2718DOPG   PO454470   4.640  18.300  25.730
 2718DOPG   GL154471   4.960  18.200  25.400
 2718DOPG   GL254472   5.220  18.500  25.370
 2718DOPG   C1A54473   5.180  18.150  24.950
 2718DOPG   D2A54474   5.210  17.880  24.670
 2718DOPG   C3A54475   5.430  17.870  24.350
 2718DOPG   C4A54476   5.420  17.930  23.850
 2718DOPG   C1B54477   5.540  18.690  25.250
 2718DOPG   D2B54478   5.920  18.850  25.010
 2718DOPG   C3B54479   5.950  18.690  24.640
 2718DOPG   C4B54480   5.800  18.820  24.230
 2719DOPG   GL054481   7.510   8.040   9.120
 2719DOPG   PO454482   7.540   8.350   9.490
 2719DOPG   GL154483   7.520   8.640   9.820
 2719DOPG   GL254484   7.820   8.820   9.900
 2719DOPG   C1A54485   7.390   9.110   9.840
 2719DOPG   D2A54486   7.430   9.490   9.870
 2719DOPG   C3A54487   7.710   9.670   9.710
 2719DOPG   C4A54488   7.710  10.120   9.680
 2719DOPG   C1B54489   7.830   9.300  10.080
 2719DOPG   D2B54490   7.650   9.640  10.290
 2719DOPG   C3B54491   7.440  10.030  10.100
 2719DOPG   C4B54492   7.590  10.390  10.120
 2720DOPG   GL054493   9.370  17.930  13.660
 2720DOPG   PO454494   9.350  17.960  13.160
 2720DOPG   GL154495   9.010  17.800  12.830
 2720DOPG   GL254496   8.900  17.670  13.040
 2720DOPG   C1A54497   8.710  17.730  12.470
 2720DOPG   D2A54498   8.590  17.950  12.080
 2720DOPG   C3A54499   8.490  17.800  11.690
 2720DOPG   C4A54500   8.170  18.150  11.580
 2720DOPG   C1B54501   8.480  17.620  12.890
 2720DOPG   D2B54502   8.150  17.390  12.860
 2720DOPG   C3B54503   7.870  17.620  12.730
 2720DOPG   C4B54504   7.650  17.510  12.390
 2721DOPG   GL054505  12.350  22.480  16.110
 2721DOPG   PO454506  12.070  22.730  15.930
 2721DOPG   GL154507  12.380  23.060  15.940
 2721DOPG   GL254508  12.550  23.100  16.230
 2721DOPG   C1A54509  12.410  23.480  15.840
 2721DOPG   D2A54510  12.590  23.940  15.970
 2721DOPG   C3A54511  12.990  24.050  16.020
 2721DOPG   C4A54512  13.310  24.390  16.050
 2721DOPG   C1B54513  12.110  23.310  16.450
 2721DOPG   D2B54514  11.690  23.570  16.460
 2721DOPG   C3B54515  11.730  24.000  16.420
 2721DOPG   C4B54516  11.980  24.290  16.530
 2722DOPG   GL054517   5.460  20.220  26.260
 2722DOPG   PO454518   5.250  20.480  26.130
 2722DOPG   GL154519   5.430  20.710  25.840
 2722DOPG   GL254520   5.220  20.540  25.610
 2722DOPG   C1A54521   5.680  20.770  25.370
 2722DOPG   D2A54522   6.120  20.700  25.220
 2722DOPG   C3A54523   6.460  20.830  24.940
 2722DOPG   C4A54524   6.590  20.590  24.650
 2722DOPG   C1B54525   5.300  20.250  25.300
 2722DOPG   D2B54526   5.260  20.010  24.960
 2722DOPG   C3B54527   5.450  20.280  24.620
 2722DOPG   C4B54528   5.630  20.580  24.390
 2723DOPG   GL054529  11.490   8.830   6.250
 2723DOPG   PO454530  11.240   8.930   6.710
 2723DOPG   GL154531  11.160   9.490   6.810
 2723DOPG   GL254532  10.870   9.560   7.040
 2723DOPG   C1A54533  11.170   9.950   6.890
 2723DOPG   D2A54534  11.160  10.400   7.060
 2723DOPG   C3A54535  11.340  10.560   7.510
 2723DOPG   C4A54536  11.530  10.270   7.730
 2723DOPG   C1B54537  10.380   9.620   7.180
 2723DOPG   D2B54538  10.000   9.340   7.320
 2723DOPG   C3B54539   9.700   9.510   7.510
 2723DOPG   C4B54540   9.510   9.480   7.900
 2724DOPG   GL054541  16.630  26.230  24.010
 2724DOPG   PO454542  16.840  26.020  23.620
 2724DOPG   GL154543  16.900  25.940  23.150
 2724DOPG   GL254544  17.150  26.080  22.880
 2724DOPG   C1A54545  17.000  25.570  22.970
 2724DOPG   D2A54546  16.750  25.210  22.960
 2724DOPG   C3A54547  16.890  24.820  22.750
 2724DOPG   C4A54548  17.090  24.600  22.390
 2724DOPG   C1B54549  16.810  25.980  22.480
 2724DOPG   D2B54550  16.400  25.990  22.330
 2724DOPG   C3B54551  16.040  25.800  22.530
 2724DOPG   C4B54552  15.840  25.440  22.350
 2725DOPG   GL054553  11.360  15.500  15.220
 2725DOPG   PO454554  11.700  15.760  15.450
 2725DOPG   GL154555  11.860  15.280  15.790
 2725DOPG   GL254556  12.100  15.080  15.730
 2725DOPG   C1A54557  11.770  14.990  16.100
 2725DOPG   D2A54558  11.690  14.600  16.290
 2725DOPG   C3A54559  12.080  14.450  16.360
 2725DOPG   C4A54560  12.460  14.250  16.490
 2725DOPG   C1B54561  12.140  14.720  15.910
 2725DOPG   D2B54562  12.490  14.380  16.020
 2725DOPG   C3B54563  12.680  14.170  15.740
 2725DOPG   C4B54564  12.550  13.990  15.350
 2726DOPG   GL054565   0.570  26.010  10.270
 2726DOPG   PO454566   0.600  26.490  10.260
 2726DOPG   GL154567   0.920  26.390  10.460
 2726DOPG   GL254568   1.110  26.660  10.510
 2726DOPG   C1A54569   1.140  25.920  10.440
 2726DOPG   D2A54570   1.310  25.590  10.560
 2726DOPG   C3A54571   1.620  25.370  10.310
 2726DOPG   C4A54572   1.780  25.000  10.520
 2726DOPG   C1B54573   1.330  26.250  10.850
 2726DOPG   D2B54574   1.630  25.960  10.860
 2726DOPG   C3B54575   1.610  25.580  10.910
 2726DOPG   C4B54576   1.380  25.180  10.830
 2727DOPG   GL054577  12.690  16.340  16.160
 2727DOPG   PO454578  12.490  16.260  16.570
 2727DOPG   GL154579  12.660  15.960  16.660
 2727DOPG   GL254580  12.700  15.780  16.470
 2727DOPG   C1A54581  13.020  15.750  16.820
 2727DOPG   D2A54582  13.070  15.380  17.040
 2727DOPG   C3A54583  12.940  14.980  16.890
 2727DOPG   C4A54584  12.960  14.550  16.720
 2727DOPG   C1B54585  12.760  15.350  16.540
 2727DOPG   D2B54586  12.460  15.100  16.750
 2727DOPG   C3B54587  12.420  14.670  16.830
 2727DOPG   C4B54588  12.510  14.420  17.110
 2728DOPG   GL054589  33.680  18.870  14.220
 2728DOPG   PO454590  33.820  18.360  14.250
 2728DOPG   GL154591  34.200  18.590  14.470
 2728DOPG   GL254592  34.430  18.750  14.680
 2728DOPG   C1A54593  34.660  18.560  14.280
 2728DOPG   D2A54594  34.980  18.700  14.230
 2728DOPG   C3A54595  35.120  19.100  14.340
 2728DOPG   C4A54596  35.170  19.450  14.630
 2728DOPG   C1B54597  34.730  19.060  14.710
 2728DOPG   D2B54598  34.860  19.450  15.060
 2728DOPG   C3B54599  35.220  19.710  15.100
 2728DOPG   C4B54600  35.540  20.050  14.990
 2729DOPG   GL054601   8.690  17.970  15.060
 2729DOPG   PO454602   8.410  17.590  15.110
 2729DOPG   GL154603   8.070  17.870  15.080
 2729DOPG   GL254604   7.860  17.800  15.350
 2729DOPG   C1A54605   7.800  18.200  15.040
 2729DOPG   D2A54606   7.540  18.300  14.730
 2729DOPG   C3A54607   7.510  18.680  14.520
 2729DOPG   C4A54608   7.550  18.860  14.160
 2729DOPG   C1B54609   7.690  18.120  15.540
 2729DOPG   D2B54610   7.670  18.320  15.930
 2729DOPG   C3B54611   7.280  18.630  16.020
 2729DOPG   C4B54612   6.950  18.690  15.870
 2730DOPG   GL054613  14.000  21.350  14.940
 2730DOPG   PO454614  14.350  21.640  15.030
 2730DOPG   GL154615  14.270  22.050  14.980
 2730DOPG   GL254616  14.050  22.140  14.880
 2730DOPG   C1A54617  14.480  22.360  15.280
 2730DOPG   D2A54618  14.390  22.690  15.700
 2730DOPG   C3A54619  14.510  23.020  15.950
 2730DOPG   C4A54620  14.450  23.430  16.150
 2730DOPG   C1B54621  14.220  22.510  14.710
 2730DOPG   D2B54622  14.410  22.740  14.920
 2730DOPG   C3B54623  14.440  23.040  14.870
 2730DOPG   C4B54624  14.790  23.420  14.620
 2731DOPG   GL054625  17.510  22.420  14.090
 2731DOPG   PO454626  17.710  22.170  13.740
 2731DOPG   GL154627  17.330  22.040  13.800
 2731DOPG   GL254628  17.240  21.680  13.960
 2731DOPG   C1A54629  17.000  21.830  13.580
 2731DOPG   D2A54630  16.730  21.440  13.600
 2731DOPG   C3A54631  16.500  21.160  13.330
 2731DOPG   C4A54632  16.550  20.680  13.260
 2731DOPG   C1B54633  16.830  21.490  14.070
 2731DOPG   D2B54634  16.470  21.450  14.180
 2731DOPG   C3B54635  16.300  21.280  13.800
 2731DOPG   C4B54636  16.210  20.920  13.690
 2732DOPG   GL054637  11.930  11.140  12.010
 2732DOPG   PO454638  11.660  11.240  11.610
 2732DOPG   GL154639  11.610  10.840  11.450
 2732DOPG   GL254640  11.780  10.730  11.760
 2732DOPG   C1A54641  11.700  10.400  11.460
 2732DOPG   D2A54642  11.880  10.110  11.370
 2732DOPG   C3A54643  11.690   9.920  11.050
 2732DOPG   C4A54644  11.580   9.730  10.630
 2732DOPG   C1B54645  12.010  10.410  11.870
 2732DOPG   D2B54646  12.270  10.130  11.950
 2732DOPG   C3B54647  12.340   9.840  11.620
 2732DOPG   C4B54648  12.350   9.360  11.560
 2733DOPG   GL054649  12.750  22.500  26.610
 2733DOPG   PO454650  13.090  22.670  26.660
 2733DOPG   GL154651  13.100  22.720  26.290
 2733DOPG   GL254652  13.040  22.430  26.200
 2733DOPG   C1A54653  12.950  22.970  25.900
 2733DOPG   D2A54654  12.680  23.110  25.470
 2733DOPG   C3A54655  12.810  22.880  25.070
 2733DOPG   C4A54656  12.870  22.550  24.710
 2733DOPG   C1B54657  12.710  22.510  26.030
 2733DOPG   D2B54658  12.530  22.550  25.540
 2733DOPG   C3B54659  12.380  22.690  25.140
 2733DOPG   C4B54660  12.390  22.510  24.760
 2734DOPG   GL054661   9.470  15.950  14.940
 2734DOPG   PO454662   9.640  15.660  14.840
 2734DOPG   GL154663   9.410  15.440  15.140
 2734DOPG   GL254664   9.330  15.210  15.010
 2734DOPG   C1A54665   9.390  15.150  15.500
 2734DOPG   D2A54666   9.320  14.830  15.800
 2734DOPG   C3A54667   9.550  14.430  15.790
 2734DOPG   C4A54668   9.670  14.110  15.640
 2734DOPG   C1B54669   9.080  14.890  14.990
 2734DOPG   D2B54670   8.680  14.560  15.020
 2734DOPG   C3B54671   8.590  14.370  15.380
 2734DOPG   C4B54672   8.470  14.620  15.820
 2735DOPG   GL054673  14.680  22.680  19.980
 2735DOPG   PO454674  14.670  22.350  20.320
 2735DOPG   GL154675  14.440  22.260  19.940
 2735DOPG   GL254676  14.170  22.370  19.890
 2735DOPG   C1A54677  14.370  21.940  19.700
 2735DOPG   D2A54678  14.480  21.420  19.600
 2735DOPG   C3A54679  14.350  21.040  19.500
 2735DOPG   C4A54680  13.990  20.860  19.190
 2735DOPG   C1B54681  13.950  22.110  19.660
 2735DOPG   D2B54682  13.960  21.780  19.480
 2735DOPG   C3B54683  13.680  21.400  19.420
 2735DOPG   C4B54684  13.650  21.090  19.650
 2736DOPG   GL054685   7.550  17.510   3.960
 2736DOPG   PO454686   7.320  17.780   3.670
 2736DOPG   GL154687   7.190  17.970   4.030
 2736DOPG   GL254688   7.430  17.860   4.280
 2736DOPG   C1A54689   7.070  18.160   4.490
 2736DOPG   D2A54690   7.290  18.200   4.940
 2736DOPG   C3A54691   7.090  18.190   5.320
 2736DOPG   C4A54692   6.860  18.380   5.820
 2736DOPG   C1B54693   7.630  17.830   4.700
 2736DOPG   D2B54694   7.650  17.700   5.020
 2736DOPG   C3B54695   7.680  18.020   5.350
 2736DOPG   C4B54696   7.730  18.450   5.510
 2737DOPG   GL054697  13.450  21.750  12.750
 2737DOPG   PO454698  13.550  21.400  12.490
 2737DOPG   GL154699  13.830  21.580  12.370
 2737DOPG   GL254700  13.940  21.810  12.530
 2737DOPG   C1A54701  14.110  21.740  12.000
 2737DOPG   D2A54702  14.450  21.870  11.700
 2737DOPG   C3A54703  14.710  21.630  11.500
 2737DOPG   C4A54704  14.820  21.280  11.070
 2737DOPG   C1B54705  14.030  22.280  12.480
 2737DOPG   D2B54706  14.120  22.690  12.400
 2737DOPG   C3B54707  14.370  22.910  12.690
 2737DOPG   C4B54708  14.600  23.030  12.950
 2738DOPG   GL054709  19.470  18.660  23.600
 2738DOPG   PO454710  19.540  18.520  23.960
 2738DOPG   GL154711  19.030  18.470  23.920
 2738DOPG   GL254712  18.710  18.670  23.960
 2738DOPG   C1A54713  18.660  18.310  23.660
 2738DOPG   D2A54714  18.660  17.870  23.640
 2738DOPG   C3A54715  18.920  17.710  23.310
 2738DOPG   C4A54716  19.190  17.630  22.970
 2738DOPG   C1B54717  18.720  18.740  23.480
 2738DOPG   D2B54718  18.810  18.860  23.070
 2738DOPG   C3B54719  18.940  19.280  23.060
 2738DOPG   C4B54720  18.850  19.650  22.820
 2739DOPG   GL054721   2.520  10.690  16.740
 2739DOPG   PO454722   2.790  10.530  17.070
 2739DOPG   GL154723   3.050  10.780  16.750
 2739DOPG   GL254724   3.380  10.680  16.810
 2739DOPG   C1A54725   3.260  11.130  16.690
 2739DOPG   D2A54726   3.130  11.560  16.500
 2739DOPG   C3A54727   3.130  11.660  16.080
 2739DOPG   C4A54728   2.990  11.580  15.700
 2739DOPG   C1B54729   3.780  10.970  16.890
 2739DOPG   D2B54730   3.970  11.280  17.050
 2739DOPG   C3B54731   4.110  11.650  16.810
 2739DOPG   C4B54732   4.080  12.080  16.660
 2740DOPG   GL054733   0.330  27.160  17.750
 2740DOPG   PO454734  36.230  27.170  17.800
 2740DOPG   GL154735  36.350  26.760  17.530
 2740DOPG   GL254736   0.190  26.480  17.390
 2740DOPG   C1A54737  36.260  26.740  17.060
 2740DOPG   D2A54738   0.050  26.830  16.710
 2740DOPG   C3A54739   0.180  26.700  16.330
 2740DOPG   C4A54740   0.480  26.520  16.020
 2740DOPG   C1B54741   0.380  26.550  17.010
 2740DOPG   D2B54742   0.540  26.450  16.670
 2740DOPG   C3B54743   0.660  26.070  16.570
 2740DOPG   C4B54744   0.870  25.800  16.430
 2741DOPG   GL054745  35.050  15.330  10.600
 2741DOPG   PO454746  35.170  15.750  10.830
 2741DOPG   GL154747  35.560  15.860  10.930
 2741DOPG   GL254748  35.710  15.970  10.670
 2741DOPG   C1A54749  35.880  15.570  11.080
 2741DOPG   D2A54750  36.340  15.550  10.990
 2741DOPG   C3A54751   0.300  15.710  11.230
 2741DOPG   C4A54752   0.820  15.730  11.240
 2741DOPG   C1B54753  35.980  16.060  11.040
 2741DOPG   D2B54754   0.070  16.270  11.150
 2741DOPG   C3B54755   0.290  16.150  11.540
 2741DOPG   C4B54756   0.650  15.840  11.680
 2742DOPG   GL054757  13.940  16.700  13.200
 2742DOPG   PO454758  14.270  16.460  13.510
 2742DOPG   GL154759  14.450  16.020  13.490
 2742DOPG   GL254760  14.750  16.200  13.360
 2742DOPG   C1A54761  14.670  15.650  13.480
 2742DOPG   D2A54762  14.810  15.170  13.400
 2742DOPG   C3A54763  15.270  15.020  13.150
 2742DOPG   C4A54764  15.100  14.880  12.780
 2742DOPG   C1B54765  14.710  15.860  13.060
 2742DOPG   D2B54766  14.500  15.700  12.670
 2742DOPG   C3B54767  14.150  15.520  12.610
 2742DOPG   C4B54768  13.840  15.340  12.790
 2743DOPG   GL054769  19.180  22.110  23.810
 2743DOPG   PO454770  18.840  22.240  23.920
 2743DOPG   GL154771  18.470  21.990  23.710
 2743DOPG   GL254772  18.250  22.210  23.470
 2743DOPG   C1A54773  18.340  21.660  23.410
 2743DOPG   D2A54774  18.030  21.520  23.150
 2743DOPG   C3A54775  17.920  21.250  22.820
 2743DOPG   C4A54776  17.870  21.070  22.400
 2743DOPG   C1B54777  18.130  22.000  23.030
 2743DOPG   D2B54778  18.000  21.850  22.640
 2743DOPG   C3B54779  17.670  21.690  22.450
 2743DOPG   C4B54780  17.490  21.810  22.110
 2744DOPG   GL054781  12.010  19.700   7.910
 2744DOPG   PO454782  12.400  19.670   8.020
 2744DOPG   GL154783  12.360  19.740   8.450
 2744DOPG   GL254784  12.030  19.640   8.420
 2744DOPG   C1A54785  12.670  19.570   8.680
 2744DOPG   D2A54786  13.010  19.290   8.760
 2744DOPG   C3A54787  13.410  19.310   8.790
 2744DOPG   C4A54788  13.730  19.190   9.140
 2744DOPG   C1B54789  12.030  19.530   8.860
 2744DOPG   D2B54790  12.110  19.420   9.190
 2744DOPG   C3B54791  12.000  19.630   9.490
 2744DOPG   C4B54792  11.990  20.100   9.650
 2745DOPG   GL054793  34.260  24.510  15.940
 2745DOPG   PO454794  34.630  24.660  16.050
 2745DOPG   GL154795  34.700  24.260  16.010
 2745DOPG   GL254796  34.730  24.150  15.670
 2745DOPG   C1A54797  35.150  24.200  16.120
 2745DOPG   D2A54798  35.470  24.370  16.410
 2745DOPG   C3A54799  35.440  24.230  16.800
 2745DOPG   C4A54800  35.810  24.180  17.160
 2745DOPG   C1B54801  35.010  23.780  15.730
 2745DOPG   D2B54802  35.450  23.780  15.930
 2745DOPG   C3B54803  35.890  23.760  15.720
 2745DOPG   C4B54804  36.110  24.180  15.630
 2746DOPG   GL054805  12.360  22.400  13.190
 2746DOPG   PO454806  12.370  22.200  12.940
 2746DOPG   GL154807  12.600  22.390  12.780
 2746DOPG   GL254808  12.570  22.770  12.810
 2746DOPG   C1A54809  12.460  22.560  12.340
 2746DOPG   D2A54810  12.200  22.540  11.910
 2746DOPG   C3A54811  12.050  22.430  11.540
 2746DOPG   C4A54812  12.250  22.420  11.080
 2746DOPG   C1B54813  12.600  23.100  12.990
 2746DOPG   D2B54814  12.960  23.370  13.100
 2746DOPG   C3B54815  13.330  23.100  13.300
 2746DOPG   C4B54816  13.670  22.920  13.230
 2747DOPG   GL054817   9.580  21.450  15.380
 2747DOPG   PO454818   9.510  21.710  15.630
 2747DOPG   GL154819   9.130  21.630  15.720
 2747DOPG   GL254820   8.990  21.300  15.600
 2747DOPG   C1A54821   8.740  21.810  15.710
 2747DOPG   D2A54822   8.330  21.850  15.580
 2747DOPG   C3A54823   7.940  21.650  15.490
 2747DOPG   C4A54824   7.630  21.500  15.390
 2747DOPG   C1B54825   8.580  21.300  15.450
 2747DOPG   D2B54826   8.140  21.270  15.250
 2747DOPG   C3B54827   7.810  21.130  15.620
 2747DOPG   C4B54828   7.450  20.840  15.710
 2748DOPG   GL054829  12.570  17.110  16.600
 2748DOPG   PO454830  12.630  16.820  16.460
 2748DOPG   GL154831  12.760  16.680  16.920
 2748DOPG   GL254832  13.000  16.340  16.810
 2748DOPG   C1A54833  13.040  16.460  17.310
 2748DOPG   D2A54834  13.150  16.080  17.260
 2748DOPG   C3A54835  12.790  15.750  17.320
 2748DOPG   C4A54836  12.440  15.520  17.430
 2748DOPG   C1B54837  12.640  16.240  17.160
 2748DOPG   D2B54838  12.740  16.120  17.620
 2748DOPG   C3B54839  12.870  15.730  17.830
 2748DOPG   C4B54840  13.200  15.470  17.920
 2749DOPG   GL054841  13.110  18.370  27.000
 2749DOPG   PO454842  12.930  18.490  26.620
 2749DOPG   GL154843  12.940  18.370  26.240
 2749DOPG   GL254844  12.840  18.120  26.140
 2749DOPG   C1A54845  13.000  18.580  25.840
 2749DOPG   D2A54846  12.880  18.740  25.380
 2749DOPG   C3A54847  12.620  18.440  25.170
 2749DOPG   C4A54848  12.080  18.400  24.990
 2749DOPG   C1B54849  13.020  17.960  25.820
 2749DOPG   D2B54850  13.400  18.020  25.660
 2749DOPG   C3B54851  13.620  18.160  25.220
 2749DOPG   C4B54852  13.590  18.100  24.830
 2750DOPG   GL054853  10.810   7.150  10.970
 2750DOPG   PO454854  10.470   7.190  11.200
 2750DOPG   GL154855  10.090   7.400  11.230
 2750DOPG   GL254856  10.190   7.570  10.930
 2750DOPG   C1A54857   9.770   7.680  11.380
 2750DOPG   D2A54858   9.600   8.140  11.450
 2750DOPG   C3A54859   9.420   8.500  11.600
 2750DOPG   C4A54860   9.050   8.640  11.880
 2750DOPG   C1B54861  10.370   7.860  11.230
 2750DOPG   D2B54862  10.580   8.080  11.620
 2750DOPG   C3B54863  11.050   8.190  11.690
 2750DOPG   C4B54864  11.200   8.050  12.000
 2751DOPG   GL054865  11.340  15.670  13.730
 2751DOPG   PO454866  11.120  15.280  13.850
 2751DOPG   GL154867  10.950  15.050  13.590
 2751DOPG   GL254868  11.010  14.730  13.680
 2751DOPG   C1A54869  10.630  14.860  13.270
 2751DOPG   D2A54870  10.410  14.460  13.230
 2751DOPG   C3A54871  10.420  14.090  13.530
 2751DOPG   C4A54872  10.560  13.690  13.420
 2751DOPG   C1B54873  10.570  14.660  13.700
 2751DOPG   D2B54874  10.140  14.460  13.650
 2751DOPG   C3B54875   9.930  14.090  13.520
 2751DOPG   C4B54876   9.740  13.700  13.520
 2752DOPG   GL054877   4.580   8.780  12.170
 2752DOPG   PO454878   4.530   8.920  12.520
 2752DOPG   GL154879   4.710   9.170  12.720
 2752DOPG   GL254880   4.600   9.360  12.940
 2752DOPG   C1A54881   5.080   9.280  12.720
 2752DOPG   D2A54882   5.420   9.590  12.540
 2752DOPG   C3A54883   5.270   9.910  12.260
 2752DOPG   C4A54884   5.510  10.220  12.180
 2752DOPG   C1B54885   4.370   9.720  12.710
 2752DOPG   D2B54886   4.380  10.170  12.830
 2752DOPG   C3B54887   4.870  10.320  12.900
 2752DOPG   C4B54888   5.040  10.680  12.800
 2753DOPG   GL054889   5.380  16.160  16.600
 2753DOPG   PO454890   5.600  15.890  16.750
 2753DOPG   GL154891   6.050  16.070  16.360
 2753DOPG   GL254892   5.990  16.340  16.210
 2753DOPG   C1A54893   6.410  16.100  15.970
 2753DOPG   D2A54894   6.480  16.280  15.680
 2753DOPG   C3A54895   6.750  16.560  15.820
 2753DOPG   C4A54896   6.830  16.960  15.610
 2753DOPG   C1B54897   6.460  16.240  16.450
 2753DOPG   D2B54898   6.690  16.190  16.840
 2753DOPG   C3B54899   6.630  16.410  17.190
 2753DOPG   C4B54900   6.500  16.680  17.400
 2754DOPG   GL054901  10.790  17.000  16.990
 2754DOPG   PO454902  10.550  17.370  17.000
 2754DOPG   GL154903  10.440  17.140  17.320
 2754DOPG   GL254904  10.580  17.350  17.580
 2754DOPG   C1A54905  10.490  16.820  17.490
 2754DOPG   D2A54906  10.490  16.340  17.350
 2754DOPG   C3A54907  10.090  16.040  17.430
 2754DOPG   C4A54908   9.580  15.820  17.690
 2754DOPG   C1B54909  10.570  17.320  17.940
 2754DOPG   D2B54910  10.390  17.530  18.320
 2754DOPG   C3B54911  10.010  17.360  18.330
 2754DOPG   C4B54912   9.700  17.210  18.010
 2755DOPG   GL054913  14.840  18.580  13.290
 2755DOPG   PO454914  14.960  18.180  13.200
 2755DOPG   GL154915  15.480  18.140  13.000
 2755DOPG   GL254916  15.520  18.210  12.700
 2755DOPG   C1A54917  15.920  18.240  12.920
 2755DOPG   D2A54918  16.370  18.160  12.780
 2755DOPG   C3A54919  16.360  17.920  13.060
 2755DOPG   C4A54920  16.280  17.800  13.440
 2755DOPG   C1B54921  15.890  17.950  12.540
 2755DOPG   D2B54922  16.300  17.890  12.300
 2755DOPG   C3B54923  16.520  18.300  12.350
 2755DOPG   C4B54924  16.680  18.620  12.470
 2756DOPG   GL054925  14.390  17.140  14.930
 2756DOPG   PO454926  14.860  16.940  14.880
 2756DOPG   GL154927  14.970  16.760  15.180
 2756DOPG   GL254928  15.160  16.500  15.160
 2756DOPG   C1A54929  14.870  16.790  15.700
 2756DOPG   D2A54930  14.770  16.560  16.050
 2756DOPG   C3A54931  14.830  16.720  16.490
 2756DOPG   C4A54932  14.820  16.730  16.880
 2756DOPG   C1B54933  15.670  16.570  15.250
 2756DOPG   D2B54934  16.110  16.790  15.300
 2756DOPG   C3B54935  16.520  16.570  15.210
 2756DOPG   C4B54936  16.970  16.600  15.200
 2757DOPG   GL054937  14.310  21.600  12.850
 2757DOPG   PO454938  14.120  21.240  12.590
 2757DOPG   GL154939  14.320  21.240  12.250
 2757DOPG   GL254940  14.480  21.540  12.340
 2757DOPG   C1A54941  14.430  21.360  11.870
 2757DOPG   D2A54942  14.890  21.160  11.580
 2757DOPG   C3A54943  15.230  21.510  11.640
 2757DOPG   C4A54944  15.460  21.700  11.880
 2757DOPG   C1B54945  14.390  21.960  12.330
 2757DOPG   D2B54946  14.250  22.280  12.060
 2757DOPG   C3B54947  13.910  22.250  11.790
 2757DOPG   C4B54948  13.540  21.950  11.730
 2758DOPG   GL054949  10.960  11.670  24.110
 2758DOPG   PO454950  10.950  12.160  24.250
 2758DOPG   GL154951  11.050  12.520  24.160
 2758DOPG   GL254952  10.810  12.640  24.430
 2758DOPG   C1A54953  11.180  12.970  24.080
 2758DOPG   D2A54954  11.110  13.150  23.730
 2758DOPG   C3A54955  11.320  13.590  23.750
 2758DOPG   C4A54956  11.070  13.960  23.840
 2758DOPG   C1B54957  10.690  13.040  24.180
 2758DOPG   D2B54958  10.420  13.420  24.060
 2758DOPG   C3B54959  10.280  13.580  23.670
 2758DOPG   C4B54960  10.420  13.810  23.310
 2759DOPG   GL054961   9.920  12.460  18.450
 2759DOPG   PO454962  10.130  12.660  18.120
 2759DOPG   GL154963   9.820  13.000  17.880
 2759DOPG   GL254964   9.760  13.300  18.060
 2759DOPG   C1A54965   9.700  13.220  17.480
 2759DOPG   D2A54966   9.730  13.450  17.090
 2759DOPG   C3A54967   9.530  13.290  16.770
 2759DOPG   C4A54968   9.220  13.020  16.660
 2759DOPG   C1B54969  10.100  13.450  17.800
 2759DOPG   D2B54970  10.500  13.550  17.510
 2759DOPG   C3B54971  10.730  13.880  17.570
 2759DOPG   C4B54972  11.090  14.260  17.610
 2760DOPG   GL054973  21.060  26.740  18.590
 2760DOPG   PO454974  20.800  26.590  18.370
 2760DOPG   GL154975  20.480  26.560  18.090
 2760DOPG   GL254976  20.410  26.830  17.920
 2760DOPG   C1A54977  20.140  26.350  18.130
 2760DOPG   D2A54978  19.720  26.380  17.900
 2760DOPG   C3A54979  19.710  26.310  17.420
 2760DOPG   C4A54980  19.680  25.920  17.140
 2760DOPG   C1B54981  19.920  26.880  17.880
 2760DOPG   D2B54982  19.620  26.740  17.650
 2760DOPG   C3B54983  19.560  26.710  17.090
 2760DOPG   C4B54984  19.830  26.460  16.720
 2761DOPG   GL054985  15.570  28.150  21.880
 2761DOPG   PO454986  15.590  28.620  21.710
 2761DOPG   GL154987  15.260  28.300  21.530
 2761DOPG   GL254988  15.100  28.440  21.230
 2761DOPG   C1A54989  15.410  27.860  21.390
 2761DOPG   D2A54990  15.330  27.450  21.350
 2761DOPG   C3A54991  15.050  27.160  21.070
 2761DOPG   C4A54992  15.130  26.740  21.040
 2761DOPG   C1B54993  14.740  28.300  21.120
 2761DOPG   D2B54994  14.430  28.280  20.800
 2761DOPG   C3B54995  14.070  27.970  20.750
 2761DOPG   C4B54996  13.690  27.820  20.820
 2762DOPG   GL054997  23.490  15.690  13.800
 2762DOPG   PO454998  23.510  15.940  13.390
 2762DOPG   GL154999  23.050  15.840  13.380
 2762DOPG   GL255000  22.990  15.540  13.670
 2762DOPG   C1A55001  22.650  15.790  13.440
 2762DOPG   D2A55002  22.470  16.090  13.640
 2762DOPG   C3A55003  22.380  16.050  14.010
 2762DOPG   C4A55004  22.060  16.240  14.300
 2762DOPG   C1B55005  22.860  15.860  13.950
 2762DOPG   D2B55006  22.780  15.890  14.340
 2762DOPG   C3B55007  22.470  15.970  14.610
 2762DOPG   C4B55008  22.120  15.820  14.540
 2763DOPG   GL055009  23.420  23.100  15.440
 2763DOPG   PO455010  23.310  22.680  15.490
 2763DOPG   GL155011  23.170  22.380  15.200
 2763DOPG   GL255012  23.320  22.130  15.050
 2763DOPG   C1A55013  22.690  22.110  15.050
 2763DOPG   D2A55014  22.370  22.260  14.750
 2763DOPG   C3A55015  21.950  22.050  14.630
 2763DOPG   C4A55016  21.630  21.950  14.280
 2763DOPG   C1B55017  23.000  21.940  15.370
 2763DOPG   D2B55018  22.640  21.840  15.650
 2763DOPG   C3B55019  22.280  21.710  15.650
 2763DOPG   C4B55020  21.860  21.670  15.550
 2764DOPG   GL055021   9.600  18.930  22.050
 2764DOPG   PO455022   9.730  19.300  22.030
 2764DOPG   GL155023   9.700  19.270  21.610
 2764DOPG   GL255024   9.880  19.410  21.310
 2764DOPG   C1A55025   9.440  19.160  21.230
 2764DOPG   D2A55026   9.210  18.910  20.830
 2764DOPG   C3A55027   9.360  19.190  20.450
 2764DOPG   C4A55028   9.250  19.570  20.450
 2764DOPG   C1B55029   9.710  19.370  20.790
 2764DOPG   D2B55030   9.890  19.390  20.400
 2764DOPG   C3B55031   9.570  19.450  20.020
 2764DOPG   C4B55032   9.390  19.680  19.710
 2765DOPG   GL055033   5.390  14.490  24.740
 2765DOPG   PO455034   5.510  14.730  24.310
 2765DOPG   GL155035   5.790  15.000  24.320
 2765DOPG   GL255036   5.680  15.390  24.540
 2765DOPG   C1A55037   6.010  15.310  24.140
 2765DOPG   D2A55038   5.840  15.730  24.110
 2765DOPG   C3A55039   5.890  15.770  23.640
 2765DOPG   C4A55040   6.280  15.900  23.370
 2765DOPG   C1B55041   5.540  15.740  24.480
 2765DOPG   D2B55042   5.750  16.170  24.350
 2765DOPG   C3B55043   5.960  16.220  23.950
 2765DOPG   C4B55044   6.180  16.590  23.610
 2766DOPG   GL055045  20.000  13.650  21.580
 2766DOPG   PO455046  19.640  13.960  21.510
 2766DOPG   GL155047  19.390  14.190  21.630
 2766DOPG   GL255048  19.220  14.390  21.930
 2766DOPG   C1A55049  18.850  14.110  21.650
 2766DOPG   D2A55050  18.440  14.310  21.560
 2766DOPG   C3A55051  18.270  14.340  21.100
 2766DOPG   C4A55052  18.290  14.150  20.750
 2766DOPG   C1B55053  18.760  14.560  21.840
 2766DOPG   D2B55054  18.320  14.690  21.800
 2766DOPG   C3B55055  18.280  14.810  21.400
 2766DOPG   C4B55056  17.940  14.690  21.000
 2767DOPG   GL055057  16.230  22.580  19.460
 2767DOPG   PO455058  16.600  22.580  19.220
 2767DOPG   GL155059  16.990  22.810  19.350
 2767DOPG   GL255060  16.960  22.960  19.520
 2767DOPG   C1A55061  17.430  23.020  19.430
 2767DOPG   D2A55062  17.810  23.270  19.540
 2767DOPG   C3A55063  18.140  23.630  19.720
 2767DOPG   C4A55064  18.530  23.450  19.650
 2767DOPG   C1B55065  17.230  23.120  19.880
 2767DOPG   D2B55066  17.640  23.020  20.050
 2767DOPG   C3B55067  17.900  23.360  20.300
 2767DOPG   C4B55068  18.100  23.710  20.460
 2768DOPG   GL055069  21.220  15.560  21.290
 2768DOPG   PO455070  21.080  15.260  21.000
 2768DOPG   GL155071  20.800  15.500  20.880
 2768DOPG   GL255072  20.990  15.740  20.690
 2768DOPG   C1A55073  20.270  15.650  20.690
 2768DOPG   D2A55074  20.150  15.710  20.370
 2768DOPG   C3A55075  20.290  15.530  20.030
 2768DOPG   C4A55076  20.320  15.140  19.840
 2768DOPG   C1B55077  20.890  15.870  20.130
 2768DOPG   D2B55078  20.710  15.990  19.820
 2768DOPG   C3B55079  20.500  16.380  19.820
 2768DOPG   C4B55080  20.490  16.800  19.600
 2769DOPG   GL055081  18.680  20.630  14.120
 2769DOPG   PO455082  18.590  21.000  14.120
 2769DOPG   GL155083  18.200  20.780  14.320
 2769DOPG   GL255084  18.170  20.750  14.690
 2769DOPG   C1A55085  17.970  20.350  14.260
 2769DOPG   D2A55086  17.990  19.920  14.210
 2769DOPG   C3A55087  17.700  19.670  14.050
 2769DOPG   C4A55088  17.270  19.730  13.840
 2769DOPG   C1B55089  17.670  20.890  14.530
 2769DOPG   D2B55090  17.270  20.570  14.640
 2769DOPG   C3B55091  16.820  20.510  14.450
 2769DOPG   C4B55092  16.460  20.380  14.170
 2770DOPG   GL055093  20.190  11.690   8.920
 2770DOPG   PO455094  20.260  12.070   9.210
 2770DOPG   GL155095  20.210  11.840   9.590
 2770DOPG   GL255096  19.900  11.710   9.700
 2770DOPG   C1A55097  20.210  12.030  10.040
 2770DOPG   D2A55098  20.130  11.810  10.390
 2770DOPG   C3A55099  19.740  12.010  10.560
 2770DOPG   C4A55100  19.360  12.320  10.500
 2770DOPG   C1B55101  19.680  12.120   9.550
 2770DOPG   D2B55102  19.530  12.430   9.460
 2770DOPG   C3B55103  19.510  12.840   9.660
 2770DOPG   C4B55104  19.190  13.060   9.880
 2771DOPG   GL055105   6.590  22.060  18.910
 2771DOPG   PO455106   6.840  22.290  19.000
 2771DOPG   GL155107   7.110  22.100  18.800
 2771DOPG   GL255108   7.050  21.710  18.830
 2771DOPG   C1A55109   7.280  22.100  18.420
 2771DOPG   D2A55110   7.570  22.210  18.180
 2771DOPG   C3A55111   7.660  22.640  18.110
 2771DOPG   C4A55112   7.740  22.980  18.250
 2771DOPG   C1B55113   7.500  21.780  18.740
 2771DOPG   D2B55114   7.870  21.860  18.470
 2771DOPG   C3B55115   8.060  22.170  18.230
 2771DOPG   C4B55116   8.160  22.350  17.890
 2772DOPG   GL055117   9.250  11.930  15.070
 2772DOPG   PO455118   9.440  11.620  15.270
 2772DOPG   GL155119   9.870  11.810  15.430
 2772DOPG   GL255120   9.760  11.960  15.640
 2772DOPG   C1A55121  10.360  11.860  15.610
 2772DOPG   D2A55122  10.630  12.070  15.440
 2772DOPG   C3A55123  10.600  12.520  15.590
 2772DOPG   C4A55124  10.750  13.000  15.680
 2772DOPG   C1B55125   9.620  12.300  15.330
 2772DOPG   D2B55126   9.610  12.750  15.320
 2772DOPG   C3B55127   9.130  12.950  15.420
 2772DOPG   C4B55128   8.970  13.390  15.210
 2773DOPG   GL055129  13.830  31.060  18.380
 2773DOPG   PO455130  13.900  31.030  18.860
 2773DOPG   GL155131  13.740  30.670  18.850
 2773DOPG   GL255132  13.750  30.490  19.050
 2773DOPG   C1A55133  13.810  30.350  18.520
 2773DOPG   D2A55134  13.790  29.830  18.260
 2773DOPG   C3A55135  13.580  29.540  17.910
 2773DOPG   C4A55136  13.410  29.180  17.700
 2773DOPG   C1B55137  13.570  30.180  18.950
 2773DOPG   D2B55138  13.340  29.950  18.620
 2773DOPG   C3B55139  13.200  29.520  18.750
 2773DOPG   C4B55140  13.310  29.120  18.670
 2774DOPG   GL055141  14.630   7.140  18.420
 2774DOPG   PO455142  14.770   7.600  18.230
 2774DOPG   GL155143  14.650   7.780  17.950
 2774DOPG   GL255144  14.480   7.700  17.700
 2774DOPG   C1A55145  14.750   8.090  17.710
 2774DOPG   D2A55146  14.660   8.310  17.370
 2774DOPG   C3A55147  14.640   8.560  17.100
 2774DOPG   C4A55148  14.970   8.810  16.960
 2774DOPG   C1B55149  14.210   7.990  17.530
 2774DOPG   D2B55150  14.200   8.300  17.210
 2774DOPG   C3B55151  14.210   8.770  17.050
 2774DOPG   C4B55152  14.160   9.040  16.710
 2775DOPG   GL055153   8.280  19.040  23.070
 2775DOPG   PO455154   8.440  19.350  22.960
 2775DOPG   GL155155   8.730  19.420  23.310
 2775DOPG   GL255156   9.150  19.350  23.240
 2775DOPG   C1A55157   9.080  19.540  23.690
 2775DOPG   D2A55158   9.070  19.610  24.140
 2775DOPG   C3A55159   9.000  19.660  24.560
 2775DOPG   C4A55160   9.230  19.470  25.010
 2775DOPG   C1B55161   9.030  19.060  23.650
 2775DOPG   D2B55162   8.960  18.900  24.130
 2775DOPG   C3B55163   9.220  19.070  24.370
 2775DOPG   C4B55164   9.460  19.030  24.740
 2776DOPG   GL055165   7.880  21.410  20.220
 2776DOPG   PO455166   7.910  21.830  20.270
 2776DOPG   GL155167   8.150  21.950  19.900
 2776DOPG   GL255168   8.110  21.620  19.730
 2776DOPG   C1A55169   8.410  21.960  19.500
 2776DOPG   D2A55170   8.520  21.760  19.080
 2776DOPG   C3A55171   8.940  21.810  19.080
 2776DOPG   C4A55172   9.250  21.580  18.690
 2776DOPG   C1B55173   8.120  21.520  19.260
 2776DOPG   D2B55174   8.090  21.550  18.790
 2776DOPG   C3B55175   8.350  21.300  18.530
 2776DOPG   C4B55176   8.480  21.070  18.190
 2777DOPG   GL055177  10.240  16.790   8.840
 2777DOPG   PO455178   9.830  16.640   9.010
 2777DOPG   GL155179   9.900  16.710   9.330
 2777DOPG   GL255180   9.650  16.990   9.450
 2777DOPG   C1A55181   9.910  16.610   9.730
 2777DOPG   D2A55182   9.990  16.890  10.160
 2777DOPG   C3A55183   9.700  17.210  10.290
 2777DOPG   C4A55184   9.430  17.050  10.550
 2777DOPG   C1B55185   9.450  16.710   9.730
 2777DOPG   D2B55186   9.570  16.380  10.070
 2777DOPG   C3B55187   9.630  16.620  10.420
 2777DOPG   C4B55188   9.950  16.680  10.720
 2778DOPG   GL055189  12.880  15.950  21.330
 2778DOPG   PO455190  12.770  15.950  21.710
 2778DOPG   GL155191  12.970  15.580  21.780
 2778DOPG   GL255192  12.870  15.230  21.730
 2778DOPG   C1A55193  12.940  15.510  22.130
 2778DOPG   D2A55194  13.180  15.240  22.410
 2778DOPG   C3A55195  13.620  15.090  22.300
 2778DOPG   C4A55196  13.890  15.310  22.470
 2778DOPG   C1B55197  12.860  15.010  22.110
 2778DOPG   D2B55198  12.870  14.910  22.630
 2778DOPG   C3B55199  13.310  14.790  22.820
 2778DOPG   C4B55200  13.660  14.700  22.680
 2779DOPG   GL055201  11.190  21.230  12.820
 2779DOPG   PO455202  11.460  21.480  12.670
 2779DOPG   GL155203  11.180  21.770  12.520
 2779DOPG   GL255204  11.250  22.020  12.670
 2779DOPG   C1A55205  11.070  22.130  12.200
 2779DOPG   D2A55206  10.980  22.260  11.770
 2779DOPG   C3A55207  11.270  22.580  11.770
 2779DOPG   C4A55208  11.500  22.460  12.220
 2779DOPG   C1B55209  11.070  22.400  12.670
 2779DOPG   D2B55210  10.700  22.740  12.730
 2779DOPG   C3B55211  10.750  23.070  13.080
 2779DOPG   C4B55212  11.010  23.310  13.270
 2780DOPG   GL055213  12.670  22.780  13.940
 2780DOPG   PO455214  12.660  22.730  14.470
 2780DOPG   GL155215  12.850  22.960  14.760
 2780DOPG   GL255216  13.110  22.770  14.690
 2780DOPG   C1A55217  12.860  23.330  14.880
 2780DOPG   D2A55218  12.870  23.720  14.930
 2780DOPG   C3A55219  13.220  23.710  14.660
 2780DOPG   C4A55220  13.640  23.730  14.410
 2780DOPG   C1B55221  13.190  23.220  14.550
 2780DOPG   D2B55222  13.350  23.370  14.170
 2780DOPG   C3B55223  13.170  23.730  14.030
 2780DOPG   C4B55224  12.980  23.990  13.790
 2781DOPG   GL055225   3.330  22.350   5.960
 2781DOPG   PO455226   2.820  22.410   5.950
 2781DOPG   GL155227   2.980  22.440   6.400
 2781DOPG   GL255228   2.990  22.130   6.610
 2781DOPG   C1A55229   3.310  22.510   6.740
 2781DOPG   D2A55230   3.700  22.350   7.120
 2781DOPG   C3A55231   3.890  22.120   6.950
 2781DOPG   C4A55232   3.650  21.780   6.720
 2781DOPG   C1B55233   3.310  22.070   6.920
 2781DOPG   D2B55234   3.540  21.930   7.210
 2781DOPG   C3B55235   3.710  21.960   7.620
 2781DOPG   C4B55236   3.980  22.130   7.930
 2782DOPG   GL055237   8.660  23.830  26.320
 2782DOPG   PO455238   8.530  24.370  26.380
 2782DOPG   GL155239   8.280  23.940  26.080
 2782DOPG   GL255240   8.550  24.050  25.840
 2782DOPG   C1A55241   8.150  23.660  25.900
 2782DOPG   D2A55242   8.190  23.270  25.800
 2782DOPG   C3A55243   8.040  23.180  25.380
 2782DOPG   C4A55244   8.070  23.420  25.060
 2782DOPG   C1B55245   8.670  23.600  25.830
 2782DOPG   D2B55246   8.580  23.300  26.180
 2782DOPG   C3B55247   8.180  23.190  26.330
 2782DOPG   C4B55248   7.930  22.820  26.450
 2783DOPG   GL055249  10.130  18.440  18.000
 2783DOPG   PO455250   9.970  18.320  17.600
 2783DOPG   GL155251   9.640  18.050  17.800
 2783DOPG   GL255252   9.300  18.120  17.560
 2783DOPG   C1A55253   9.370  17.830  18.070
 2783DOPG   D2A55254   9.230  17.620  18.410
 2783DOPG   C3A55255   9.540  17.540  18.780
 2783DOPG   C4A55256   9.730  17.680  19.150
 2783DOPG   C1B55257   8.880  18.310  17.730
 2783DOPG   D2B55258   8.550  18.440  17.960
 2783DOPG   C3B55259   8.370  18.130  18.270
 2783DOPG   C4B55260   8.160  18.000  18.510
 2784DOPG   GL055261  14.840  18.840  12.690
 2784DOPG   PO455262  14.980  18.420  12.710
 2784DOPG   GL155263  15.070  17.950  12.660
 2784DOPG   GL255264  15.080  18.030  12.340
 2784DOPG   C1A55265  15.430  17.710  12.570
 2784DOPG   D2A55266  15.470  17.500  12.200
 2784DOPG   C3A55267  15.880  17.670  12.030
 2784DOPG   C4A55268  15.960  17.850  11.580
 2784DOPG   C1B55269  15.530  18.040  12.190
 2784DOPG   D2B55270  15.990  18.170  12.030
 2784DOPG   C3B55271  16.010  18.410  11.650
 2784DOPG   C4B55272  16.330  18.510  11.560
 2785DOPG   GL055273  10.020  18.840  17.660
 2785DOPG   PO455274   9.630  19.110  17.650
 2785DOPG   GL155275   9.350  18.990  18.020
 2785DOPG   GL255276   9.400  19.310  18.060
 2785DOPG   C1A55277   9.030  18.740  18.120
 2785DOPG   D2A55278   8.870  18.390  18.340
 2785DOPG   C3A55279   8.880  17.990  18.250
 2785DOPG   C4A55280   8.830  17.530  18.060
 2785DOPG   C1B55281   9.300  19.240  18.520
 2785DOPG   D2B55282   8.940  19.240  18.860
 2785DOPG   C3B55283   8.850  19.660  19.050
 2785DOPG   C4B55284   8.750  20.120  19.190
 2786DOPG   GL055285  11.710  20.380  17.910
 2786DOPG   PO455286  12.130  20.420  17.830
 2786DOPG   GL155287  12.340  20.300  18.300
 2786DOPG   GL255288  12.300  20.560  18.550
 2786DOPG   C1A55289  12.350  20.100  18.780
 2786DOPG   D2A55290  12.230  20.260  19.280
 2786DOPG   C3A55291  12.140  20.010  19.630
 2786DOPG   C4A55292  12.250  19.590  19.960
 2786DOPG   C1B55293  12.280  20.940  18.750
 2786DOPG   D2B55294  12.360  21.180  19.150
 2786DOPG   C3B55295  12.560  21.560  19.160
 2786DOPG   C4B55296  12.920  21.610  18.930
 2787DOPG   GL055297  11.340  20.520  18.160
 2787DOPG   PO455298  10.990  20.750  17.960
 2787DOPG   GL155299  10.940  20.860  18.320
 2787DOPG   GL255300  10.970  20.580  18.610
 2787DOPG   C1A55301  10.910  21.220  18.530
 2787DOPG   D2A55302  10.580  21.640  18.460
 2787DOPG   C3A55303  10.210  21.680  18.470
 2787DOPG   C4A55304   9.720  21.520  18.540
 2787DOPG   C1B55305  11.070  20.840  18.920
 2787DOPG   D2B55306  11.210  20.760  19.350
 2787DOPG   C3B55307  11.320  20.310  19.610
 2787DOPG   C4B55308  11.510  20.030  19.750
 2788DOPG   GL055309  16.200  10.470   8.130
 2788DOPG   PO455310  16.060  10.170   7.910
 2788DOPG   GL155311  15.720  10.270   7.920
 2788DOPG   GL255312  15.790  10.640   7.860
 2788DOPG   C1A55313  15.350  10.440   8.130
 2788DOPG   D2A55314  15.280  10.680   8.540
 2788DOPG   C3A55315  15.260  10.340   8.910
 2788DOPG   C4A55316  14.840  10.040   8.960
 2788DOPG   C1B55317  15.680  11.060   7.800
 2788DOPG   D2B55318  15.590  11.410   7.980
 2788DOPG   C3B55319  15.180  11.490   8.000
 2788DOPG   C4B55320  14.840  11.560   8.230
 2789DOPG   GL055321  11.050  22.500  15.990
 2789DOPG   PO455322  10.630  22.720  15.730
 2789DOPG   GL155323  10.580  23.000  15.360
 2789DOPG   GL255324  10.090  23.010  15.430
 2789DOPG   C1A55325  10.540  23.420  15.120
 2789DOPG   D2A55326  10.620  23.950  15.090
 2789DOPG   C3A55327  10.960  24.160  15.140
 2789DOPG   C4A55328  11.220  24.300  15.560
 2789DOPG   C1B55329   9.900  23.140  15.030
 2789DOPG   D2B55330   9.890  23.550  14.960
 2789DOPG   C3B55331   9.480  23.780  14.980
 2789DOPG   C4B55332   9.130  24.020  14.820
 2790DOPG   GL055333  11.840  20.750  18.580
 2790DOPG   PO455334  11.990  20.800  18.150
 2790DOPG   GL155335  12.290  21.090  18.290
 2790DOPG   GL255336  12.360  21.400  18.360
 2790DOPG   C1A55337  12.640  21.020  18.500
 2790DOPG   D2A55338  12.650  21.220  18.770
 2790DOPG   C3A55339  12.960  21.170  19.210
 2790DOPG   C4A55340  13.050  21.650  19.410
 2790DOPG   C1B55341  12.150  21.730  18.420
 2790DOPG   D2B55342  11.770  21.830  18.710
 2790DOPG   C3B55343  11.470  21.520  18.820
 2790DOPG   C4B55344  11.050  21.330  18.990
 2791DOPG   GL055345  14.790  17.470  14.870
 2791DOPG   PO455346  14.980  17.390  14.380
 2791DOPG   GL155347  15.320  17.280  14.660
 2791DOPG   GL255348  15.330  16.900  14.810
 2791DOPG   C1A55349  15.520  17.210  15.130
 2791DOPG   D2A55350  15.880  17.240  15.370
 2791DOPG   C3A55351  16.050  17.560  15.510
 2791DOPG   C4A55352  16.260  17.850  15.810
 2791DOPG   C1B55353  15.830  16.910  14.880
 2791DOPG   D2B55354  16.260  17.080  14.800
 2791DOPG   C3B55355  16.370  17.030  14.360
 2791DOPG   C4B55356  16.320  17.370  13.940
 2792DOPG   GL055357  10.740  21.350  18.110
 2792DOPG   PO455358  10.370  21.540  17.830
 2792DOPG   GL155359  10.090  21.500  18.060
 2792DOPG   GL255360  10.160  21.230  18.320
 2792DOPG   C1A55361   9.710  21.500  18.000
 2792DOPG   D2A55362   9.310  21.350  18.240
 2792DOPG   C3A55363   8.940  21.090  18.490
 2792DOPG   C4A55364   8.820  21.260  18.770
 2792DOPG   C1B55365  10.050  21.260  18.790
 2792DOPG   D2B55366   9.830  21.620  19.040
 2792DOPG   C3B55367   9.910  21.800  19.400
 2792DOPG   C4B55368  10.010  21.920  19.780
 2793DOPG   GL055369  12.210  13.940   8.440
 2793DOPG   PO455370  12.310  13.690   8.290
 2793DOPG   GL155371  12.720  13.480   8.090
 2793DOPG   GL255372  12.790  13.560   7.800
 2793DOPG   C1A55373  12.880  13.090   7.760
 2793DOPG   D2A55374  12.850  13.090   7.220
 2793DOPG   C3A55375  13.210  13.140   7.080
 2793DOPG   C4A55376  13.700  13.250   7.180
 2793DOPG   C1B55377  12.420  13.200   7.540
 2793DOPG   D2B55378  12.280  13.040   7.160
 2793DOPG   C3B55379  12.080  12.740   6.940
 2793DOPG   C4B55380  12.090  12.370   6.950
 2794DOPG   GL055381   9.640  16.370  14.180
 2794DOPG   PO455382   9.320  16.200  14.490
 2794DOPG   GL155383   8.960  15.930  14.550
 2794DOPG   GL255384   9.080  15.550  14.750
 2794DOPG   C1A55385   8.560  15.620  14.570
 2794DOPG   D2A55386   8.280  15.710  14.190
 2794DOPG   C3A55387   7.850  15.710  14.280
 2794DOPG   C4A55388   7.640  15.980  14.600
 2794DOPG   C1B55389   8.980  15.230  14.570
 2794DOPG   D2B55390   8.820  14.780  14.560
 2794DOPG   C3B55391   8.890  14.450  14.260
 2794DOPG   C4B55392   9.280  14.090  14.090
 2795DOPG   GL055393   9.280  21.280  16.490
 2795DOPG   PO455394   9.620  21.440  16.430
 2795DOPG   GL155395   9.410  21.690  16.730
 2795DOPG   GL255396   9.370  22.050  16.800
 2795DOPG   C1A55397   9.010  21.780  16.670
 2795DOPG   D2A55398   8.500  21.840  16.940
 2795DOPG   C3A55399   8.160  21.780  16.670
 2795DOPG   C4A55400   7.860  21.680  16.430
 2795DOPG   C1B55401   9.030  22.300  16.700
 2795DOPG   D2B55402   8.760  22.590  16.560
 2795DOPG   C3B55403   8.510  22.530  16.210
 2795DOPG   C4B55404   8.510  22.760  15.740
 2796DOPG   GL055405  15.060  18.000  13.980
 2796DOPG   PO455406  15.400  17.710  13.790
 2796DOPG   GL155407  15.520  17.390  13.940
 2796DOPG   GL255408  15.550  17.470  14.290
 2796DOPG   C1A55409  15.870  17.240  13.900
 2796DOPG   D2A55410  16.160  16.840  13.950
 2796DOPG   C3A55411  16.010  16.430  13.870
 2796DOPG   C4A55412  15.780  16.110  13.940
 2796DOPG   C1B55413  15.900  17.220  14.460
 2796DOPG   D2B55414  16.000  16.790  14.430
 2796DOPG   C3B55415  16.390  16.630  14.720
 2796DOPG   C4B55416  16.700  16.950  14.980
 2797DOPG   GL055417   9.880  17.450  12.590
 2797DOPG   PO455418  10.000  17.050  12.360
 2797DOPG   GL155419   9.780  16.790  12.070
 2797DOPG   GL255420   9.870  16.870  11.810
 2797DOPG   C1A55421   9.480  16.390  12.080
 2797DOPG   D2A55422   9.150  16.110  11.930
 2797DOPG   C3A55423   9.030  15.740  11.740
 2797DOPG   C4A55424   8.930  15.340  11.480
 2797DOPG   C1B55425   9.480  16.900  11.610
 2797DOPG   D2B55426   9.190  16.630  11.380
 2797DOPG   C3B55427   8.890  16.580  11.120
 2797DOPG   C4B55428   8.590  16.350  10.850
 2798DOPG   GL055429   7.500  22.460  27.720
 2798DOPG   PO455430   7.780  22.400  27.440
 2798DOPG   GL155431   7.880  22.310  26.970
 2798DOPG   GL255432   8.230  22.270  26.920
 2798DOPG   C1A55433   7.890  22.030  26.590
 2798DOPG   D2A55434   8.260  21.960  26.230
 2798DOPG   C3A55435   8.040  21.800  25.870
 2798DOPG   C4A55436   7.960  21.950  25.380
 2798DOPG   C1B55437   8.290  22.480  26.570
 2798DOPG   D2B55438   8.250  22.500  26.110
 2798DOPG   C3B55439   8.460  22.840  25.870
 2798DOPG   C4B55440   8.760  23.130  25.740
 2799DOPG   GL055441   4.610  13.850  14.670
 2799DOPG   PO455442   4.290  13.770  14.820
 2799DOPG   GL155443   4.350  13.390  14.710
 2799DOPG   GL255444   4.300  13.280  14.430
 2799DOPG   C1A55445   4.400  12.950  14.880
 2799DOPG   D2A55446   4.170  12.600  14.960
 2799DOPG   C3A55447   3.920  12.340  14.850
 2799DOPG   C4A55448   3.950  11.920  14.800
 2799DOPG   C1B55449   3.960  12.940  14.670
 2799DOPG   D2B55450   3.730  12.810  14.960
 2799DOPG   C3B55451   3.310  12.570  14.830
 2799DOPG   C4B55452   2.880  12.460  14.790
 2800DOPG   GL055453   9.050  24.090  11.810
 2800DOPG   PO455454   9.400  24.150  11.450
 2800DOPG   GL155455   9.720  23.900  11.490
 2800DOPG   GL255456   9.640  23.690  11.480
 2800DOPG   C1A55457  10.030  23.920  11.810
 2800DOPG   D2A55458  10.200  23.960  12.200
 2800DOPG   C3A55459  10.610  24.010  12.420
 2800DOPG   C4A55460  10.720  24.150  12.830
 2800DOPG   C1B55461   9.940  23.410  11.760
 2800DOPG   D2B55462  10.120  23.310  12.180
 2800DOPG   C3B55463  10.430  23.580  12.460
 2800DOPG   C4B55464  10.790  23.580  12.760
 2801DOPG   GL055465   6.200  26.580  13.080
 2801DOPG   PO455466   6.280  26.710  13.480
 2801DOPG   GL155467   6.160  27.180  13.560
 2801DOPG   GL255468   6.330  27.350  13.810
 2801DOPG   C1A55469   6.100  27.480  13.090
 2801DOPG   D2A55470   5.820  27.430  12.770
 2801DOPG   C3A55471   5.780  27.670  12.400
 2801DOPG   C4A55472   5.640  28.040  12.150
 2801DOPG   C1B55473   6.120  27.680  13.780
 2801DOPG   D2B55474   5.850  28.040  13.590
 2801DOPG   C3B55475   5.910  28.530  13.520
 2801DOPG   C4B55476   5.920  28.830  13.170
 2802DOPG   GL055477  10.710  26.470  17.600
 2802DOPG   PO455478  10.750  26.360  18.030
 2802DOPG   GL155479  10.970  26.020  17.730
 2802DOPG   GL255480  11.280  25.840  17.770
 2802DOPG   C1A55481  10.810  25.700  17.500
 2802DOPG   D2A55482  11.090  25.320  17.600
 2802DOPG   C3A55483  11.120  25.020  17.170
 2802DOPG   C4A55484  11.200  24.870  16.870
 2802DOPG   C1B55485  11.570  25.520  17.670
 2802DOPG   D2B55486  11.640  25.130  17.770
 2802DOPG   C3B55487  11.830  24.760  17.590
 2802DOPG   C4B55488  11.850  24.370  17.320
 2803DOPG   GL055489  17.260  25.800   5.660
 2803DOPG   PO455490  16.970  25.690   5.960
 2803DOPG   GL155491  17.040  25.300   6.290
 2803DOPG   GL255492  17.090  25.480   6.510
 2803DOPG   C1A55493  17.130  24.950   6.540
 2803DOPG   D2A55494  16.930  24.610   6.600
 2803DOPG   C3A55495  16.860  24.350   7.000
 2803DOPG   C4A55496  16.630  24.030   7.240
 2803DOPG   C1B55497  17.170  25.400   6.900
 2803DOPG   D2B55498  17.030  25.350   7.370
 2803DOPG   C3B55499  17.010  24.980   7.540
 2803DOPG   C4B55500  16.750  24.550   7.510
 2804DOPG   GL055501   6.340   7.420  12.010
 2804DOPG   PO455502   6.480   7.280  12.430
 2804DOPG   GL155503   6.550   7.760  12.520
 2804DOPG   GL255504   6.300   7.950  12.360
 2804DOPG   C1A55505   6.870   8.080  12.500
 2804DOPG   D2A55506   7.050   8.370  12.660
 2804DOPG   C3A55507   6.890   8.580  13.010
 2804DOPG   C4A55508   6.930   8.400  13.490
 2804DOPG   C1B55509   6.570   8.190  12.040
 2804DOPG   D2B55510   6.570   8.630  11.960
 2804DOPG   C3B55511   6.700   8.970  12.080
 2804DOPG   C4B55512   7.110   9.170  12.030
 2805DOPG   GL055513  17.520  15.300  12.490
 2805DOPG   PO455514  17.320  14.930  12.490
 2805DOPG   GL155515  17.080  15.050  12.840
 2805DOPG   GL255516  16.910  15.270  12.620
 2805DOPG   C1A55517  16.610  14.850  12.940
 2805DOPG   D2A55518  16.140  14.870  13.000
 2805DOPG   C3A55519  15.800  15.200  12.970
 2805DOPG   C4A55520  15.760  15.670  12.960
 2805DOPG   C1B55521  16.520  15.340  12.790
 2805DOPG   D2B55522  16.230  15.480  13.110
 2805DOPG   C3B55523  16.240  15.870  13.110
 2805DOPG   C4B55524  16.080  16.220  13.440
 2806DOPG   GL055525   8.380  19.480   2.570
 2806DOPG   PO455526   8.400  19.520   3.090
 2806DOPG   GL155527   8.790  19.480   3.340
 2806DOPG   GL255528   9.030  19.830   3.290
 2806DOPG   C1A55529   9.050  19.480   3.690
 2806DOPG   D2A55530   9.410  19.240   3.910
 2806DOPG   C3A55531   9.820  19.320   3.680
 2806DOPG   C4A55532  10.090  19.070   3.490
 2806DOPG   C1B55533   8.800  19.920   3.690
 2806DOPG   D2B55534   8.420  19.880   3.720
 2806DOPG   C3B55535   8.250  20.100   4.010
 2806DOPG   C4B55536   7.860  20.120   4.350
 2807DOPG   GL055537   2.070  20.670  13.430
 2807DOPG   PO455538   1.580  20.540  13.440
 2807DOPG   GL155539   1.140  20.490  13.360
 2807DOPG   GL255540   1.080  20.180  13.310
 2807DOPG   C1A55541   0.750  20.670  13.210
 2807DOPG   D2A55542   0.700  20.950  12.840
 2807DOPG   C3A55543   0.440  20.910  12.620
 2807DOPG   C4A55544   0.340  21.100  12.240
 2807DOPG   C1B55545   0.610  20.250  13.300
 2807DOPG   D2B55546   0.340  20.520  13.360
 2807DOPG   C3B55547   0.080  20.300  13.570
 2807DOPG   C4B55548  36.240  20.420  13.860
 2808DOPG   GL055549   4.580  17.680  25.470
 2808DOPG   PO455550   4.180  17.670  25.250
 2808DOPG   GL155551   4.420  17.620  24.870
 2808DOPG   GL255552   4.250  17.740  24.620
 2808DOPG   C1A55553   4.850  17.750  25.000
 2808DOPG   D2A55554   5.220  17.700  25.220
 2808DOPG   C3A55555   5.490  17.450  25.060
 2808DOPG   C4A55556   5.650  17.890  24.850
 2808DOPG   C1B55557   4.650  17.890  24.500
 2808DOPG   D2B55558   4.970  17.870  24.140
 2808DOPG   C3B55559   4.960  18.010  23.690
 2808DOPG   C4B55560   4.810  18.030  23.220
 2809DOPG   GL055561  18.570  16.630   4.600
 2809DOPG   PO455562  18.450  16.520   5.010
 2809DOPG   GL155563  18.370  16.730   5.400
 2809DOPG   GL255564  18.070  17.000   5.520
 2809DOPG   C1A55565  18.390  16.700   5.820
 2809DOPG   D2A55566  18.160  16.830   6.160
 2809DOPG   C3A55567  17.790  16.640   6.440
 2809DOPG   C4A55568  17.480  16.440   6.780
 2809DOPG   C1B55569  17.780  17.070   5.880
 2809DOPG   D2B55570  17.430  17.410   5.800
 2809DOPG   C3B55571  17.160  17.350   6.190
 2809DOPG   C4B55572  17.110  17.340   6.620
 2810DOPG   GL055573  10.390  23.490   9.320
 2810DOPG   PO455574  10.640  23.120   9.240
 2810DOPG   GL155575  10.870  22.940   9.590
 2810DOPG   GL255576  10.800  22.690   9.720
 2810DOPG   C1A55577  11.080  23.130   9.940
 2810DOPG   D2A55578  11.010  22.890  10.290
 2810DOPG   C3A55579  10.680  22.960  10.560
 2810DOPG   C4A55580  10.230  22.780  10.630
 2810DOPG   C1B55581  10.900  22.470  10.060
 2810DOPG   D2B55582  11.010  22.500  10.620
 2810DOPG   C3B55583  10.980  22.170  10.800
 2810DOPG   C4B55584  10.990  21.730  10.700
 2811DOPG   GL055585  14.010  14.220   9.370
 2811DOPG   PO455586  13.680  14.360   9.230
 2811DOPG   GL155587  13.730  14.550   9.670
 2811DOPG   GL255588  13.620  14.790   9.580
 2811DOPG   C1A55589  13.730  14.790  10.130
 2811DOPG   D2A55590  13.670  15.180  10.340
 2811DOPG   C3A55591  13.370  15.420  10.600
 2811DOPG   C4A55592  13.310  15.610  11.010
 2811DOPG   C1B55593  13.230  14.770   9.890
 2811DOPG   D2B55594  13.200  15.030  10.270
 2811DOPG   C3B55595  12.770  15.170  10.480
 2811DOPG   C4B55596  12.360  15.020  10.330
 2812DOPG   GL055597   2.950  15.650  24.070
 2812DOPG   PO455598   2.900  15.990  23.940
 2812DOPG   GL155599   3.020  16.050  23.430
 2812DOPG   GL255600   2.880  16.350  23.380
 2812DOPG   C1A55601   3.110  16.100  23.000
 2812DOPG   D2A55602   3.110  16.210  22.620
 2812DOPG   C3A55603   3.580  16.000  22.610
 2812DOPG   C4A55604   3.760  15.690  22.860
 2812DOPG   C1B55605   2.960  16.890  23.280
 2812DOPG   D2B55606   3.340  17.100  23.230
 2812DOPG   C3B55607   3.540  17.070  22.930
 2812DOPG   C4B55608   3.560  17.580  22.700
 2813DOPG   GL055609  33.950  20.440  13.440
 2813DOPG   PO455610  34.350  20.270  13.200
 2813DOPG   GL155611  34.520  20.380  13.590
 2813DOPG   GL255612  34.650  20.160  13.860
 2813DOPG   C1A55613  34.810  20.700  13.860
 2813DOPG   D2A55614  34.900  20.700  14.350
 2813DOPG   C3A55615  35.170  20.970  14.580
 2813DOPG   C4A55616  35.270  21.030  15.000
 2813DOPG   C1B55617  34.970  19.830  13.690
 2813DOPG   D2B55618  35.450  19.690  13.620
 2813DOPG   C3B55619  35.660  19.640  13.320
 2813DOPG   C4B55620  35.770  19.380  13.370
 2814DOPG   GL055621   9.280  11.310  16.560
 2814DOPG   PO455622   9.390  10.850  16.500
 2814DOPG   GL155623   9.510  10.530  16.430
 2814DOPG   GL255624   9.620  10.420  16.150
 2814DOPG   C1A55625   9.330  10.130  16.660
 2814DOPG   D2A55626   9.350   9.850  16.880
 2814DOPG   C3A55627   9.590   9.650  17.120
 2814DOPG   C4A55628   9.550   9.320  16.920
 2814DOPG   C1B55629   9.430   9.920  16.240
 2814DOPG   D2B55630   9.170   9.510  16.100
 2814DOPG   C3B55631   8.870   9.260  16.210
 2814DOPG   C4B55632   8.750   8.850  16.280
 2815DOPG   GL055633  14.720  11.290   5.160
 2815DOPG   PO455634  14.690  11.550   5.550
 2815DOPG   GL155635  14.340  11.400   5.950
 2815DOPG   GL255636  14.090  11.410   5.920
 2815DOPG   C1A55637  14.310  11.290   6.380
 2815DOPG   D2A55638  14.060  11.190   6.600
 2815DOPG   C3A55639  13.840  11.370   6.930
 2815DOPG   C4A55640  13.470  11.610   7.160
 2815DOPG   C1B55641  14.160  11.790   6.130
 2815DOPG   D2B55642  14.110  11.810   6.500
 2815DOPG   C3B55643  14.400  11.500   6.800
 2815DOPG   C4B55644  14.690  11.830   7.120
 2816DOPG   GL055645  12.570  11.060   5.680
 2816DOPG   PO455646  12.960  11.110   5.480
 2816DOPG   GL155647  13.000  11.460   5.760
 2816DOPG   GL255648  12.860  11.340   5.990
 2816DOPG   C1A55649  12.780  11.880   5.840
 2816DOPG   D2A55650  12.630  12.180   6.150
 2816DOPG   C3A55651  12.300  12.320   6.280
 2816DOPG   C4A55652  12.150  12.670   6.430
 2816DOPG   C1B55653  12.390  11.280   6.080
 2816DOPG   D2B55654  12.050  11.490   6.300
 2816DOPG   C3B55655  12.060  11.450   6.760
 2816DOPG   C4B55656  12.090  11.170   7.100
 2817DOPG   GL055657  13.760  31.420  13.020
 2817DOPG   PO455658  14.140  31.100  13.010
 2817DOPG   GL155659  14.340  30.820  13.220
 2817DOPG   GL255660  14.460  30.550  13.010
 2817DOPG   C1A55661  14.130  30.520  13.530
 2817DOPG   D2A55662  14.260  30.350  13.820
 2817DOPG   C3A55663  13.950  29.970  13.730
 2817DOPG   C4A55664  13.650  29.570  13.970
 2817DOPG   C1B55665  14.600  30.090  12.980
 2817DOPG   D2B55666  14.570  29.680  13.150
 2817DOPG   C3B55667  14.530  29.290  13.000
 2817DOPG   C4B55668  14.540  28.930  13.160
 2818DOPG   GL055669  22.610  24.160  16.950
 2818DOPG   PO455670  22.480  24.390  16.660
 2818DOPG   GL155671  22.260  24.100  16.600
 2818DOPG   GL255672  22.200  23.970  16.320
 2818DOPG   C1A55673  21.880  23.910  16.740
 2818DOPG   D2A55674  21.530  23.640  16.680
 2818DOPG   C3A55675  21.100  23.830  16.740
 2818DOPG   C4A55676  20.630  23.850  16.720
 2818DOPG   C1B55677  22.000  23.550  16.420
 2818DOPG   D2B55678  21.670  23.240  16.440
 2818DOPG   C3B55679  21.570  23.090  16.090
 2818DOPG   C4B55680  21.250  22.860  15.890
 2819DOPG   GL055681  34.370  20.470  14.180
 2819DOPG   PO455682  34.210  20.630  14.450
 2819DOPG   GL155683  34.450  20.820  14.570
 2819DOPG   GL255684  34.470  21.050  14.260
 2819DOPG   C1A55685  34.750  21.260  14.690
 2819DOPG   D2A55686  35.150  21.470  14.750
 2819DOPG   C3A55687  35.570  21.300  14.700
 2819DOPG   C4A55688  35.990  21.150  14.780
 2819DOPG   C1B55689  34.880  21.120  14.160
 2819DOPG   D2B55690  35.300  20.950  14.070
 2819DOPG   C3B55691  35.550  20.730  14.330
 2819DOPG   C4B55692  35.670  20.500  14.650
 2820DOPG   GL055693   0.620  13.890  19.400
 2820DOPG   PO455694   0.560  13.900  19.870
 2820DOPG   GL155695   0.950  14.140  19.750
 2820DOPG   GL255696   1.160  13.930  19.650
 2820DOPG   C1A55697   1.070  14.590  19.560
 2820DOPG   D2A55698   1.370  14.910  19.450
 2820DOPG   C3A55699   1.210  15.140  19.650
 2820DOPG   C4A55700   1.370  15.330  20.070
 2820DOPG   C1B55701   1.520  13.870  19.290
 2820DOPG   D2B55702   1.530  14.100  18.960
 2820DOPG   C3B55703   1.660  14.230  18.600
 2820DOPG   C4B55704   1.790  14.110  18.230
 2821DOPG   GL055705   3.200  12.610   7.490
 2821DOPG   PO455706   3.450  12.390   7.760
 2821DOPG   GL155707   3.430  12.820   7.960
 2821DOPG   GL255708   3.170  12.740   8.140
 2821DOPG   C1A55709   3.680  13.010   8.330
 2821DOPG   D2A55710   3.630  13.070   8.870
 2821DOPG   C3A55711   3.700  13.510   8.890
 2821DOPG   C4A55712   3.990  13.660   9.120
 2821DOPG   C1B55713   3.190  13.010   8.460
 2821DOPG   D2B55714   3.280  13.380   8.620
 2821DOPG   C3B55715   3.090  13.660   8.360
 2821DOPG   C4B55716   3.050  14.160   8.350
 2822DOPG   GL055717   9.980  13.330  10.270
 2822DOPG   PO455718   9.600  13.010  10.410
 2822DOPG   GL155719   9.280  13.220  10.670
 2822DOPG   GL255720   9.140  13.210  11.020
 2822DOPG   C1A55721   9.390  13.650  10.860
 2822DOPG   D2A55722   9.300  14.040  10.680
 2822DOPG   C3A55723   9.090  14.320  10.890
 2822DOPG   C4A55724   8.670  14.430  11.000
 2822DOPG   C1B55725   9.080  13.400  11.430
 2822DOPG   D2B55726   8.980  13.760  11.700
 2822DOPG   C3B55727   9.250  13.930  12.080
 2822DOPG   C4B55728   9.760  13.990  12.070
 2823DOPG   GL055729   4.290  18.290   4.410
 2823DOPG   PO455730   4.400  18.760   4.380
 2823DOPG   GL155731   4.350  18.910   4.760
 2823DOPG   GL255732   4.200  19.150   4.850
 2823DOPG   C1A55733   4.650  18.780   5.180
 2823DOPG   D2A55734   4.890  18.830   5.490
 2823DOPG   C3A55735   5.150  19.170   5.780
 2823DOPG   C4A55736   5.370  19.470   6.170
 2823DOPG   C1B55737   4.170  18.900   5.200
 2823DOPG   D2B55738   4.320  18.860   5.630
 2823DOPG   C3B55739   4.450  18.460   5.940
 2823DOPG   C4B55740   4.460  18.130   5.810
 2824DOPG   GL055741  11.010  31.480  16.690
 2824DOPG   PO455742  10.680  31.820  16.560
 2824DOPG   GL155743  10.530  31.370  16.640
 2824DOPG   GL255744  10.370  31.210  16.480
 2824DOPG   C1A55745  10.760  30.970  16.700
 2824DOPG   D2A55746  11.100  30.620  16.830
 2824DOPG   C3A55747  10.960  30.190  17.120
 2824DOPG   C4A55748  10.810  29.750  17.290
 2824DOPG   C1B55749  10.330  31.080  16.130
 2824DOPG   D2B55750  10.430  31.060  15.690
 2824DOPG   C3B55751  10.690  31.090  15.310
 2824DOPG   C4B55752  10.760  31.030  14.950
 2825DOPG   GL055753   1.940  27.890  20.880
 2825DOPG   PO455754   1.730  27.480  20.780
 2825DOPG   GL155755   1.870  27.030  20.620
 2825DOPG   GL255756   2.040  26.940  20.880
 2825DOPG   C1A55757   1.820  26.710  20.360
 2825DOPG   D2A55758   1.550  26.460  20.100
 2825DOPG   C3A55759   1.430  26.590  19.710
 2825DOPG   C4A55760   1.150  26.590  19.490
 2825DOPG   C1B55761   2.380  26.600  20.890
 2825DOPG   D2B55762   2.780  26.330  21.050
 2825DOPG   C3B55763   3.010  26.040  20.860
 2825DOPG   C4B55764   3.160  25.900  20.490
 2826DOPG   GL055765   3.720  20.130  25.800
 2826DOPG   PO455766   3.930  20.380  25.610
 2826DOPG   GL155767   3.810  20.250  25.190
 2826DOPG   GL255768   3.540  20.370  25.030
 2826DOPG   C1A55769   4.000  20.030  24.780
 2826DOPG   D2A55770   4.060  19.720  24.530
 2826DOPG   C3A55771   3.880  19.640  24.060
 2826DOPG   C4A55772   3.830  19.780  23.820
 2826DOPG   C1B55773   3.710  20.620  24.670
 2826DOPG   D2B55774   3.960  20.520  24.410
 2826DOPG   C3B55775   4.140  20.550  23.940
 2826DOPG   C4B55776   4.370  20.250  23.600
 2827DOPG   GL055777  14.610  26.200  15.850
 2827DOPG   PO455778  14.190  25.850  16.050
 2827DOPG   GL155779  14.120  25.390  16.060
 2827DOPG   GL255780  13.850  25.430  15.730
 2827DOPG   C1A55781  13.990  25.030  16.070
 2827DOPG   D2A55782  14.050  24.700  15.770
 2827DOPG   C3A55783  13.710  24.730  15.350
 2827DOPG   C4A55784  13.540  24.490  15.060
 2827DOPG   C1B55785  14.060  25.130  15.540
 2827DOPG   D2B55786  13.980  25.090  15.080
 2827DOPG   C3B55787  13.970  24.700  14.890
 2827DOPG   C4B55788  13.710  24.320  14.600
 2828DOPG   GL055789  12.670   7.000  12.350
 2828DOPG   PO455790  13.160   6.920  12.210
 2828DOPG   GL155791  13.040   7.430  12.280
 2828DOPG   GL255792  12.940   7.580  12.000
 2828DOPG   C1A55793  12.890   7.840  12.380
 2828DOPG   D2A55794  12.590   8.100  12.220
 2828DOPG   C3A55795  12.370   8.400  12.510
 2828DOPG   C4A55796  11.930   8.430  12.490
 2828DOPG   C1B55797  12.910   7.980  11.730
 2828DOPG   D2B55798  13.220   8.290  11.420
 2828DOPG   C3B55799  13.000   8.650  11.440
 2828DOPG   C4B55800  12.960   9.170  11.560
 2829DOPG   GL055801  36.050  21.000  21.470
 2829DOPG   PO455802  36.070  21.020  21.090
 2829DOPG   GL155803   0.090  21.230  21.130
 2829DOPG   GL255804   0.220  21.590  21.300
 2829DOPG   C1A55805   0.540  21.090  21.270
 2829DOPG   D2A55806   0.920  21.120  21.180
 2829DOPG   C3A55807   0.980  20.880  20.810
 2829DOPG   C4A55808   0.850  20.560  20.330
 2829DOPG   C1B55809   0.360  21.900  20.980
 2829DOPG   D2B55810   0.720  22.120  20.920
 2829DOPG   C3B55811   1.150  21.890  20.820
 2829DOPG   C4B55812   1.530  21.790  20.680
 2830DOPG   GL055813  16.910  29.800  19.740
 2830DOPG   PO455814  16.510  29.920  19.420
 2830DOPG   GL155815  16.240  29.670  19.290
 2830DOPG   GL255816  16.300  29.280  19.400
 2830DOPG   C1A55817  16.080  29.450  18.990
 2830DOPG   D2A55818  15.930  29.120  18.610
 2830DOPG   C3A55819  16.160  28.760  18.430
 2830DOPG   C4A55820  16.340  28.390  18.660
 2830DOPG   C1B55821  15.940  29.050  19.230
 2830DOPG   D2B55822  15.620  29.130  19.110
 2830DOPG   C3B55823  15.460  28.980  18.740
 2830DOPG   C4B55824  15.630  28.770  18.370
 2831DOPG   GL055825   4.940  17.310  16.900
 2831DOPG   PO455826   5.380  17.320  16.890
 2831DOPG   GL155827   5.750  17.330  16.540
 2831DOPG   GL255828   5.570  17.470  16.260
 2831DOPG   C1A55829   6.230  17.250  16.400
 2831DOPG   D2A55830   6.590  17.050  16.150
 2831DOPG   C3A55831   7.040  17.240  16.330
 2831DOPG   C4A55832   7.400  17.010  16.500
 2831DOPG   C1B55833   5.890  17.110  16.110
 2831DOPG   D2B55834   6.120  17.190  15.700
 2831DOPG   C3B55835   6.510  17.310  15.750
 2831DOPG   C4B55836   6.930  17.390  15.420
 2832DOPG   GL055837  10.360  20.420  21.260
 2832DOPG   PO455838   9.990  20.780  21.390
 2832DOPG   GL155839  10.180  20.820  21.070
 2832DOPG   GL255840  10.360  20.960  21.090
 2832DOPG   C1A55841  10.140  20.730  20.480
 2832DOPG   D2A55842  10.020  20.580  20.050
 2832DOPG   C3A55843  10.090  20.670  19.640
 2832DOPG   C4A55844  10.250  20.850  19.250
 2832DOPG   C1B55845  10.520  20.930  20.620
 2832DOPG   D2B55846  10.470  20.700  20.130
 2832DOPG   C3B55847  10.770  20.570  19.720
 2832DOPG   C4B55848  10.820  20.170  19.560
 2833DOPG   GL055849   5.580  14.290  10.720
 2833DOPG   PO455850   5.380  14.100  10.410
 2833DOPG   GL155851   5.130  13.810  10.050
 2833DOPG   GL255852   4.790  13.730  10.160
 2833DOPG   C1A55853   5.050  13.440   9.830
 2833DOPG   D2A55854   5.070  12.970   9.590
 2833DOPG   C3A55855   5.350  12.860   9.340
 2833DOPG   C4A55856   5.480  12.650   8.920
 2833DOPG   C1B55857   4.530  13.490   9.830
 2833DOPG   D2B55858   4.230  13.220   9.460
 2833DOPG   C3B55859   3.780  13.280   9.420
 2833DOPG   C4B55860   3.290  13.290   9.140
 2834DOPG   GL055861  13.630   8.120  20.070
 2834DOPG   PO455862  13.650   8.270  20.480
 2834DOPG   GL155863  13.760   8.660  20.220
 2834DOPG   GL255864  13.980   8.850  20.360
 2834DOPG   C1A55865  13.680   9.100  19.970
 2834DOPG   D2A55866  13.780   9.550  19.980
 2834DOPG   C3A55867  13.840   9.780  19.710
 2834DOPG   C4A55868  13.550  10.120  19.710
 2834DOPG   C1B55869  14.150   9.250  20.320
 2834DOPG   D2B55870  14.110   9.720  20.390
 2834DOPG   C3B55871  13.780  10.020  20.190
 2834DOPG   C4B55872  13.500  10.360  20.160
 2835DOPG   GL055873   0.450  22.060   7.930
 2835DOPG   PO455874   0.190  22.250   8.270
 2835DOPG   GL155875   0.580  22.090   8.550
 2835DOPG   GL255876   0.380  21.830   8.790
 2835DOPG   C1A55877   0.810  22.020   9.080
 2835DOPG   D2A55878   1.110  21.930   9.250
 2835DOPG   C3A55879   1.210  22.370   9.520
 2835DOPG   C4A55880   1.250  22.660   9.910
 2835DOPG   C1B55881   0.630  21.550   8.930
 2835DOPG   D2B55882   0.850  21.540   9.230
 2835DOPG   C3B55883   1.180  21.370   9.340
 2835DOPG   C4B55884   1.610  21.210   9.220
 2836DOPG   GL055885  11.630  18.780  21.580
 2836DOPG   PO455886  11.220  18.530  21.700
 2836DOPG   GL155887  11.260  18.530  21.260
 2836DOPG   GL255888  11.250  18.830  21.170
 2836DOPG   C1A55889  11.540  18.330  20.940
 2836DOPG   D2A55890  11.610  17.890  20.760
 2836DOPG   C3A55891  11.470  17.720  20.380
 2836DOPG   C4A55892  11.440  17.500  20.030
 2836DOPG   C1B55893  11.350  18.780  20.800
 2836DOPG   D2B55894  11.550  19.040  20.440
 2836DOPG   C3B55895  11.240  19.130  20.200
 2836DOPG   C4B55896  10.780  19.230  19.980
 2837DOPG   GL055897   8.890  17.740   8.270
 2837DOPG   PO455898   8.470  17.630   8.270
 2837DOPG   GL155899   8.610  17.810   8.690
 2837DOPG   GL255900   9.000  17.790   8.800
 2837DOPG   C1A55901   8.770  18.010   9.150
 2837DOPG   D2A55902   8.790  18.510   9.300
 2837DOPG   C3A55903   8.960  18.810   9.690
 2837DOPG   C4A55904   9.010  18.890  10.110
 2837DOPG   C1B55905   9.340  17.880   9.110
 2837DOPG   D2B55906   9.730  17.750   9.340
 2837DOPG   C3B55907   9.710  17.990   9.660
 2837DOPG   C4B55908   9.640  17.820  10.050
 2838DOPG   GL055909  13.000  32.120  14.640
 2838DOPG   PO455910  12.990  31.750  14.790
 2838DOPG   GL155911  13.000  31.250  14.850
 2838DOPG   GL255912  12.680  31.210  14.790
 2838DOPG   C1A55913  13.080  30.790  14.680
 2838DOPG   D2A55914  12.900  30.560  14.390
 2838DOPG   C3A55915  12.510  30.600  14.150
 2838DOPG   C4A55916  12.100  30.400  14.140
 2838DOPG   C1B55917  12.740  31.060  14.370
 2838DOPG   D2B55918  13.010  30.990  14.150
 2838DOPG   C3B55919  13.120  30.960  13.740
 2838DOPG   C4B55920  13.250  30.560  13.450
 2839DOPG   GL055921   7.210  23.560  18.850
 2839DOPG   PO455922   7.550  23.540  18.830
 2839DOPG   GL155923   7.870  23.530  18.540
 2839DOPG   GL255924   8.120  23.240  18.420
 2839DOPG   C1A55925   8.100  23.610  18.090
 2839DOPG   D2A55926   8.440  23.820  17.910
 2839DOPG   C3A55927   8.550  23.770  17.460
 2839DOPG   C4A55928   8.680  23.850  17.130
 2839DOPG   C1B55929   8.470  23.260  18.110
 2839DOPG   D2B55930   8.490  23.120  17.650
 2839DOPG   C3B55931   8.840  23.370  17.580
 2839DOPG   C4B55932   9.110  23.400  17.270
 2840DOPG   GL055933   3.970  16.440  10.070
 2840DOPG   PO455934   3.910  16.120  10.330
 2840DOPG   GL155935   3.760  16.040   9.950
 2840DOPG   GL255936   3.420  16.010   9.980
 2840DOPG   C1A55937   3.470  15.990   9.540
 2840DOPG   D2A55938   3.390  16.180   9.230
 2840DOPG   C3A55939   3.280  15.870   8.870
 2840DOPG   C4A55940   3.390  15.570   8.590
 2840DOPG   C1B55941   3.150  15.660   9.960
 2840DOPG   D2B55942   2.930  15.390  10.140
 2840DOPG   C3B55943   2.610  15.180   9.970
 2840DOPG   C4B55944   2.300  14.970   9.720
 2841DOPG   GL055945   6.570  15.490  18.860
 2841DOPG   PO455946   6.520  15.890  19.010
 2841DOPG   GL155947   6.860  16.130  18.730
 2841DOPG   GL255948   6.820  16.450  18.690
 2841DOPG   C1A55949   7.300  16.130  18.660
 2841DOPG   D2A55950   7.660  16.150  18.830
 2841DOPG   C3A55951   7.640  16.180  19.340
 2841DOPG   C4A55952   7.800  16.520  19.480
 2841DOPG   C1B55953   6.810  16.800  18.610
 2841DOPG   D2B55954   7.040  17.180  18.590
 2841DOPG   C3B55955   7.450  17.270  18.810
 2841DOPG   C4B55956   7.890  17.210  18.680
 2842DOPG   GL055957   6.980  23.610  12.880
 2842DOPG   PO455958   7.360  23.500  13.230
 2842DOPG   GL155959   7.650  23.260  13.540
 2842DOPG   GL255960   7.500  23.000  13.790
 2842DOPG   C1A55961   7.970  23.390  13.740
 2842DOPG   D2A55962   8.260  23.520  14.060
 2842DOPG   C3A55963   8.580  23.250  14.110
 2842DOPG   C4A55964   8.920  23.190  14.310
 2842DOPG   C1B55965   7.760  22.750  13.610
 2842DOPG   D2B55966   7.870  22.470  13.300
 2842DOPG   C3B55967   7.970  22.000  13.390
 2842DOPG   C4B55968   8.350  21.820  13.350
 2843DOPG   GL055969   8.650  25.920  12.930
 2843DOPG   PO455970   8.450  25.470  12.970
 2843DOPG   GL155971   8.670  25.450  13.300
 2843DOPG   GL255972   8.740  25.650  13.550
 2843DOPG   C1A55973   8.810  25.060  13.530
 2843DOPG   D2A55974   8.950  24.670  13.440
 2843DOPG   C3A55975   9.480  24.700  13.340
 2843DOPG   C4A55976   9.830  24.880  13.120
 2843DOPG   C1B55977   9.070  25.360  13.910
 2843DOPG   D2B55978   9.560  25.300  13.890
 2843DOPG   C3B55979   9.820  24.960  13.650
 2843DOPG   C4B55980  10.160  24.650  13.440
 2844DOPG   GL055981  11.620  26.190  13.390
 2844DOPG   PO455982  11.330  25.820  13.410
 2844DOPG   GL155983  11.540  25.440  13.440
 2844DOPG   GL255984  11.870  25.340  13.390
 2844DOPG   C1A55985  11.550  25.160  13.870
 2844DOPG   D2A55986  11.780  24.810  13.980
 2844DOPG   C3A55987  11.610  24.500  13.820
 2844DOPG   C4A55988  11.710  24.110  13.750
 2844DOPG   C1B55989  12.050  25.070  13.600
 2844DOPG   D2B55990  12.240  24.650  13.720
 2844DOPG   C3B55991  12.130  24.320  14.100
 2844DOPG   C4B55992  11.880  23.970  14.260
 2845DOPG   GL055993   7.360  14.800  18.300
 2845DOPG   PO455994   7.100  14.990  18.090
 2845DOPG   GL155995   7.400  15.200  17.900
 2845DOPG   GL255996   7.680  15.120  18.120
 2845DOPG   C1A55997   7.540  15.450  17.540
 2845DOPG   D2A55998   7.960  15.550  17.310
 2845DOPG   C3A55999   8.100  15.890  17.330
 2845DOPG   C4A56000   8.560  16.070  17.310
 2845DOPG   C1B56001   7.970  15.300  17.790
 2845DOPG   D2B56002   8.440  15.140  17.630
 2845DOPG   C3B56003   8.420  15.330  17.230
 2845DOPG   C4B56004   8.520  15.670  16.860
 2846DOPG   GL056005  13.810  25.570  12.580
 2846DOPG   PO456006  14.160  25.590  12.660
 2846DOPG   GL156007  14.260  25.140  12.930
 2846DOPG   GL256008  14.440  25.050  13.170
 2846DOPG   C1A56009  14.350  24.720  12.790
 2846DOPG   D2A56010  14.150  24.480  12.520
 2846DOPG   C3A56011  13.840  24.190  12.680
 2846DOPG   C4A56012  13.750  23.710  12.660
 2846DOPG   C1B56013  14.530  24.590  13.420
 2846DOPG   D2B56014  14.510  24.400  13.830
 2846DOPG   C3B56015  14.840  24.110  13.730
 2846DOPG   C4B56016  15.320  24.210  13.660
 2847DOPG   GL056017   8.100  26.420  16.550
 2847DOPG   PO456018   8.570  26.390  16.550
 2847DOPG   GL156019   8.540  25.920  16.420
 2847DOPG   GL256020   8.840  25.770  16.470
 2847DOPG   C1A56021   8.550  25.550  16.140
 2847DOPG   D2A56022   8.830  25.480  15.780
 2847DOPG   C3A56023   9.060  25.030  15.780
 2847DOPG   C4A56024   9.160  24.580  15.950
 2847DOPG   C1B56025   9.120  25.440  16.210
 2847DOPG   D2B56026   9.560  25.410  15.970
 2847DOPG   C3B56027   9.650  25.010  15.720
 2847DOPG   C4B56028   9.510  24.620  15.550
 2848DOPG   GL056029  13.050  23.870  26.480
 2848DOPG   PO456030  13.040  23.910  26.030
 2848DOPG   GL156031  13.210  23.910  25.610
 2848DOPG   GL256032  13.470  23.890  25.430
 2848DOPG   C1A56033  13.060  23.490  25.420
 2848DOPG   D2A56034  12.940  23.340  24.960
 2848DOPG   C3A56035  12.900  23.740  24.710
 2848DOPG   C4A56036  12.780  24.090  24.470
 2848DOPG   C1B56037  13.420  23.920  24.960
 2848DOPG   D2B56038  13.250  24.100  24.680
 2848DOPG   C3B56039  13.200  24.030  24.240
 2848DOPG   C4B56040  12.950  24.010  23.990
 2849DOPG   GL056041  13.200  12.440  18.080
 2849DOPG   PO456042  13.120  12.890  17.880
 2849DOPG   GL156043  13.270  12.910  17.430
 2849DOPG   GL256044  13.580  13.080  17.520
 2849DOPG   C1A56045  13.370  13.150  17.090
 2849DOPG   D2A56046  13.200  13.590  17.070
 2849DOPG   C3A56047  13.270  13.860  16.790
 2849DOPG   C4A56048  12.910  13.960  16.610
 2849DOPG   C1B56049  13.480  13.570  17.480
 2849DOPG   D2B56050  13.780  13.840  17.130
 2849DOPG   C3B56051  13.630  14.180  16.910
 2849DOPG   C4B56052  13.790  14.430  16.520
 2850DOPG   GL056053  12.500  15.590   8.300
 2850DOPG   PO456054  12.140  15.760   8.370
 2850DOPG   GL156055  12.330  15.820   8.750
 2850DOPG   GL256056  12.580  16.000   8.610
 2850DOPG   C1A56057  12.450  15.780   9.120
 2850DOPG   D2A56058  12.180  15.700   9.500
 2850DOPG   C3A56059  11.860  15.340   9.590
 2850DOPG   C4A56060  11.940  14.950   9.890
 2850DOPG   C1B56061  12.570  16.310   9.010
 2850DOPG   D2B56062  12.230  16.640   9.210
 2850DOPG   C3B56063  12.180  17.030   9.430
 2850DOPG   C4B56064  12.030  17.210   9.840
 2851DOPG   GL056065   7.140  27.160  15.200
 2851DOPG   PO456066   6.980  27.540  15.110
 2851DOPG   GL156067   6.870  27.740  14.770
 2851DOPG   GL256068   6.710  27.470  14.690
 2851DOPG   C1A56069   6.910  28.160  14.640
 2851DOPG   D2A56070   6.590  28.560  14.660
 2851DOPG   C3A56071   6.350  28.740  14.330
 2851DOPG   C4A56072   6.260  29.100  13.980
 2851DOPG   C1B56073   6.490  27.770  14.330
 2851DOPG   D2B56074   6.650  28.240  14.250
 2851DOPG   C3B56075   6.540  28.400  13.930
 2851DOPG   C4B56076   6.650  28.780  13.770
 2852DOPG   GL056077   6.230  19.310   9.840
 2852DOPG   PO456078   6.380  19.670  10.180
 2852DOPG   GL156079   6.570  19.490  10.460
 2852DOPG   GL256080   6.440  19.620  10.760
 2852DOPG   C1A56081   6.980  19.470  10.550
 2852DOPG   D2A56082   7.430  19.390  10.620
 2852DOPG   C3A56083   7.780  19.340  10.920
 2852DOPG   C4A56084   8.140  19.510  11.010
 2852DOPG   C1B56085   6.810  19.490  11.030
 2852DOPG   D2B56086   7.180  19.610  11.060
 2852DOPG   C3B56087   7.510  19.560  11.390
 2852DOPG   C4B56088   7.920  19.670  11.420
 2853DOPG   GL056089   7.010  12.630  11.710
 2853DOPG   PO456090   7.080  12.230  11.880
 2853DOPG   GL156091   7.060  11.800  11.770
 2853DOPG   GL256092   7.300  11.660  11.800
 2853DOPG   C1A56093   6.800  11.430  11.880
 2853DOPG   D2A56094   6.520  11.210  11.690
 2853DOPG   C3A56095   6.350  11.220  11.320
 2853DOPG   C4A56096   6.060  11.010  11.150
 2853DOPG   C1B56097   7.260  11.210  11.790
 2853DOPG   D2B56098   7.110  10.810  11.520
 2853DOPG   C3B56099   7.070  10.360  11.600
 2853DOPG   C4B56100   7.350   9.980  11.630
 2854DOPG   GL056101   1.070  22.060  22.980
 2854DOPG   PO456102   1.040  21.550  22.890
 2854DOPG   GL156103   1.310  21.350  22.710
 2854DOPG   GL256104   1.520  21.440  22.490
 2854DOPG   C1A56105   1.750  21.010  22.630
 2854DOPG   D2A56106   1.950  21.050  22.310
 2854DOPG   C3A56107   2.160  20.830  22.020
 2854DOPG   C4A56108   2.560  20.570  21.960
 2854DOPG   C1B56109   2.000  21.570  22.590
 2854DOPG   D2B56110   2.390  21.650  22.560
 2854DOPG   C3B56111   2.670  21.590  22.370
 2854DOPG   C4B56112   2.920  21.940  22.160
 2855DOPG   GL056113  15.610  18.200  20.030
 2855DOPG   PO456114  15.870  17.970  19.970
 2855DOPG   GL156115  15.820  18.110  19.580
 2855DOPG   GL256116  15.530  18.390  19.590
 2855DOPG   C1A56117  15.960  17.740  19.220
 2855DOPG   D2A56118  15.860  17.590  18.920
 2855DOPG   C3A56119  15.400  17.510  18.800
 2855DOPG   C4A56120  14.950  17.620  18.790
 2855DOPG   C1B56121  15.460  18.440  19.260
 2855DOPG   D2B56122  15.370  18.490  18.800
 2855DOPG   C3B56123  15.410  18.430  18.370
 2855DOPG   C4B56124  15.370  18.270  18.000
 2856DOPG   GL056125  13.200  26.860  15.870
 2856DOPG   PO456126  12.990  26.460  15.720
 2856DOPG   GL156127  12.810  26.020  15.500
 2856DOPG   GL256128  12.540  25.960  15.230
 2856DOPG   C1A56129  12.630  25.580  15.550
 2856DOPG   D2A56130  12.550  25.180  15.620
 2856DOPG   C3A56131  12.540  24.930  15.940
 2856DOPG   C4A56132  12.680  24.850  16.250
 2856DOPG   C1B56133  12.510  25.550  15.000
 2856DOPG   D2B56134  12.460  25.140  14.960
 2856DOPG   C3B56135  12.670  24.830  15.250
 2856DOPG   C4B56136  12.710  24.470  15.350
 2857DOPG   GL056137   4.370  26.620   7.340
 2857DOPG   PO456138   4.750  26.390   7.400
 2857DOPG   GL156139   4.990  26.090   7.620
 2857DOPG   GL256140   5.280  26.090   7.440
 2857DOPG   C1A56141   4.970  25.760   8.030
 2857DOPG   D2A56142   5.100  25.350   8.210
 2857DOPG   C3A56143   5.060  25.230   8.580
 2857DOPG   C4A56144   4.970  25.030   8.990
 2857DOPG   C1B56145   5.430  26.150   7.850
 2857DOPG   D2B56146   5.660  26.050   8.270
 2857DOPG   C3B56147   5.560  26.020   8.700
 2857DOPG   C4B56148   5.560  26.460   8.960
 2858DOPG   GL056149  18.360  23.700  13.410
 2858DOPG   PO456150  18.490  23.790  13.810
 2858DOPG   GL156151  18.710  24.240  13.930
 2858DOPG   GL256152  18.560  24.550  14.030
 2858DOPG   C1A56153  19.130  24.390  14.070
 2858DOPG   D2A56154  19.350  24.690  13.990
 2858DOPG   C3A56155  19.590  25.040  13.980
 2858DOPG   C4A56156  19.920  24.820  13.990
 2858DOPG   C1B56157  18.810  24.750  13.810
 2858DOPG   D2B56158  19.160  24.730  13.530
 2858DOPG   C3B56159  19.450  24.950  13.530
 2858DOPG   C4B56160  19.710  25.160  13.220
 2859DOPG   GL056161  10.070  16.450  20.350
 2859DOPG   PO456162   9.670  16.260  20.420
 2859DOPG   GL156163   9.660  16.360  20.030
 2859DOPG   GL256164   9.760  16.640  19.890
 2859DOPG   C1A56165   9.510  16.370  19.540
 2859DOPG   D2A56166   9.490  16.260  19.070
 2859DOPG   C3A56167   9.700  16.390  18.810
 2859DOPG   C4A56168   9.710  16.550  18.510
 2859DOPG   C1B56169   9.770  16.960  19.730
 2859DOPG   D2B56170   9.870  17.150  19.360
 2859DOPG   C3B56171  10.320  17.130  19.190
 2859DOPG   C4B56172  10.580  16.870  18.930
 2860DOPG   GL056173   6.750  25.360  20.030
 2860DOPG   PO456174   6.820  25.800  20.010
 2860DOPG   GL156175   6.580  26.140  20.130
 2860DOPG   GL256176   6.630  26.180  19.720
 2860DOPG   C1A56177   6.440  26.490  20.260
 2860DOPG   D2A56178   6.210  26.810  20.500
 2860DOPG   C3A56179   5.950  27.150  20.300
 2860DOPG   C4A56180   5.730  27.520  20.260
 2860DOPG   C1B56181   6.460  26.610  19.800
 2860DOPG   D2B56182   6.290  26.960  20.010
 2860DOPG   C3B56183   6.150  27.350  19.840
 2860DOPG   C4B56184   6.360  27.790  19.810
 2861DOPG   GL056185  16.630  16.190  18.720
 2861DOPG   PO456186  16.350  16.280  19.120
 2861DOPG   GL156187  16.100  16.200  18.820
 2861DOPG   GL256188  16.190  16.340  18.570
 2861DOPG   C1A56189  15.720  16.200  18.780
 2861DOPG   D2A56190  15.410  16.330  18.420
 2861DOPG   C3A56191  15.040  16.450  18.580
 2861DOPG   C4A56192  14.680  16.590  18.700
 2861DOPG   C1B56193  16.090  16.090  18.190
 2861DOPG   D2B56194  15.980  15.680  17.960
 2861DOPG   C3B56195  15.750  15.620  17.610
 2861DOPG   C4B56196  15.810  15.380  17.270
 2862DOPG   GL056197  16.900  16.790   9.590
 2862DOPG   PO456198  16.460  16.830   9.560
 2862DOPG   GL156199  16.210  17.200   9.670
 2862DOPG   GL256200  16.290  17.260   9.960
 2862DOPG   C1A56201  15.760  17.340   9.840
 2862DOPG   D2A56202  15.530  17.270  10.270
 2862DOPG   C3A56203  15.170  17.030  10.470
 2862DOPG   C4A56204  14.980  16.920  10.800
 2862DOPG   C1B56205  15.960  17.000  10.220
 2862DOPG   D2B56206  15.740  16.820  10.590
 2862DOPG   C3B56207  15.670  16.880  10.960
 2862DOPG   C4B56208  15.420  16.980  11.360
 2863DOPG   GL056209  10.070  26.220  17.250
 2863DOPG   PO456210   9.610  26.260  16.930
 2863DOPG   GL156211   9.720  25.830  16.900
 2863DOPG   GL256212   9.910  25.730  17.260
 2863DOPG   C1A56213  10.010  25.470  16.830
 2863DOPG   D2A56214  10.140  25.060  17.040
 2863DOPG   C3A56215   9.990  24.590  16.880
 2863DOPG   C4A56216   9.650  24.350  16.590
 2863DOPG   C1B56217   9.920  25.320  17.420
 2863DOPG   D2B56218   9.960  24.920  17.500
 2863DOPG   C3B56219   9.850  24.600  17.830
 2863DOPG   C4B56220   9.770  24.750  18.210
 2864DOPG   GL056221  15.530  16.710  19.840
 2864DOPG   PO456222  15.550  17.130  20.040
 2864DOPG   GL156223  15.350  17.200  19.650
 2864DOPG   GL256224  15.000  17.350  19.570
 2864DOPG   C1A56225  15.390  17.480  19.340
 2864DOPG   D2A56226  15.490  17.890  19.240
 2864DOPG   C3A56227  15.160  18.130  19.080
 2864DOPG   C4A56228  15.010  18.190  18.720
 2864DOPG   C1B56229  14.680  17.010  19.580
 2864DOPG   D2B56230  14.390  16.860  19.880
 2864DOPG   C3B56231  14.210  16.540  19.660
 2864DOPG   C4B56232  14.190  16.100  19.570
 2865DOPG   GL056233  13.770  13.790  19.290
 2865DOPG   PO456234  14.020  13.900  18.900
 2865DOPG   GL156235  14.020  13.970  18.510
 2865DOPG   GL256236  13.890  14.260  18.600
 2865DOPG   C1A56237  13.870  14.230  18.080
 2865DOPG   D2A56238  13.960  14.630  17.910
 2865DOPG   C3A56239  13.700  14.550  17.570
 2865DOPG   C4A56240  13.530  14.510  17.200
 2865DOPG   C1B56241  13.650  14.690  18.390
 2865DOPG   D2B56242  13.500  14.970  18.040
 2865DOPG   C3B56243  13.040  15.010  18.010
 2865DOPG   C4B56244  12.620  15.180  18.080
 2866DOPG   GL056245  14.200  15.220  19.260
 2866DOPG   PO456246  14.650  15.320  19.200
 2866DOPG   GL156247  14.400  15.570  18.970
 2866DOPG   GL256248  14.060  15.780  19.140
 2866DOPG   C1A56249  14.400  15.870  18.590
 2866DOPG   D2A56250  14.210  16.160  18.210
 2866DOPG   C3A56251  14.180  16.540  18.320
 2866DOPG   C4A56252  14.360  17.020  18.410
 2866DOPG   C1B56253  13.920  15.960  18.690
 2866DOPG   D2B56254  13.690  16.290  18.640
 2866DOPG   C3B56255  13.660  16.380  18.240
 2866DOPG   C4B56256  13.620  16.630  17.900
 2867DOPG   GL056257  17.620  28.720  12.510
 2867DOPG   PO456258  17.690  29.120  12.710
 2867DOPG   GL156259  17.620  28.870  13.090
 2867DOPG   GL256260  17.890  28.740  13.370
 2867DOPG   C1A56261  17.400  28.700  13.500
 2867DOPG   D2A56262  17.410  28.390  13.730
 2867DOPG   C3A56263  17.060  28.170  13.830
 2867DOPG   C4A56264  16.710  28.140  14.180
 2867DOPG   C1B56265  18.110  28.290  13.310
 2867DOPG   D2B56266  18.410  28.000  13.230
 2867DOPG   C3B56267  18.310  27.690  12.850
 2867DOPG   C4B56268  18.150  27.390  12.920
 2868DOPG   GL056269  14.040  13.490  18.430
 2868DOPG   PO456270  13.610  13.570  18.570
 2868DOPG   GL156271  13.490  13.730  18.260
 2868DOPG   GL256272  13.450  14.050  18.370
 2868DOPG   C1A56273  13.290  13.620  17.920
 2868DOPG   D2A56274  12.980  13.770  17.560
 2868DOPG   C3A56275  12.530  13.560  17.680
 2868DOPG   C4A56276  12.270  13.130  17.490
 2868DOPG   C1B56277  13.080  14.040  18.170
 2868DOPG   D2B56278  12.660  13.980  17.910
 2868DOPG   C3B56279  12.590  14.020  17.470
 2868DOPG   C4B56280  12.480  13.890  17.030
 2869DOPG   GL056281   9.190  24.860  19.290
 2869DOPG   PO456282   8.880  24.950  19.180
 2869DOPG   GL156283   8.940  24.560  18.820
 2869DOPG   GL256284   9.280  24.670  18.830
 2869DOPG   C1A56285   9.000  24.080  18.600
 2869DOPG   D2A56286   8.830  23.730  18.810
 2869DOPG   C3A56287   8.750  23.330  18.560
 2869DOPG   C4A56288   8.490  22.890  18.540
 2869DOPG   C1B56289   9.300  24.440  18.450
 2869DOPG   D2B56290   9.580  24.210  18.410
 2869DOPG   C3B56291   9.790  23.920  18.140
 2869DOPG   C4B56292  10.290  23.770  18.310
 2870DOPG   GL056293  13.430  17.930  21.530
 2870DOPG   PO456294  13.110  18.070  21.310
 2870DOPG   GL156295  12.880  18.090  20.860
 2870DOPG   GL256296  12.660  18.110  20.870
 2870DOPG   C1A56297  12.880  18.400  20.550
 2870DOPG   D2A56298  12.880  18.930  20.600
 2870DOPG   C3A56299  12.890  19.260  20.220
 2870DOPG   C4A56300  12.960  19.350  19.790
 2870DOPG   C1B56301  12.510  18.120  20.460
 2870DOPG   D2B56302  12.290  18.330  20.130
 2870DOPG   C3B56303  12.120  18.820  20.110
 2870DOPG   C4B56304  11.960  19.210  20.180
 2871DOPG   GL056305   6.390   8.240  10.330
 2871DOPG   PO456306   6.050   8.360  10.540
 2871DOPG   GL156307   6.330   8.670  10.670
 2871DOPG   GL256308   6.230   8.870  10.970
 2871DOPG   C1A56309   6.360   9.080  10.490
 2871DOPG   D2A56310   6.310   9.380  10.210
 2871DOPG   C3A56311   6.440   9.850  10.190
 2871DOPG   C4A56312   6.700  10.290  10.040
 2871DOPG   C1B56313   6.650   9.160  10.990
 2871DOPG   D2B56314   7.060   9.320  10.940
 2871DOPG   C3B56315   7.410   9.660  10.770
 2871DOPG   C4B56316   7.260  10.030  10.610
 2872DOPG   GL056317  17.670  14.710  14.080
 2872DOPG   PO456318  17.410  14.600  14.460
 2872DOPG   GL156319  17.020  14.700  14.580
 2872DOPG   GL256320  16.970  15.000  14.400
 2872DOPG   C1A56321  16.530  14.680  14.690
 2872DOPG   D2A56322  16.110  14.710  14.650
 2872DOPG   C3A56323  15.890  15.000  14.450
 2872DOPG   C4A56324  15.960  15.310  14.150
 2872DOPG   C1B56325  16.910  15.410  14.340
 2872DOPG   D2B56326  17.030  15.860  14.500
 2872DOPG   C3B56327  17.220  15.830  14.890
 2872DOPG   C4B56328  17.480  15.850  15.340
 2873DOPG   GL056329   8.960  29.010   7.720
 2873DOPG   PO456330   9.000  28.870   8.070
 2873DOPG   GL156331   8.900  28.590   8.360
 2873DOPG   GL256332   8.550  28.690   8.400
 2873DOPG   C1A56333   9.100  28.290   8.650
 2873DOPG   D2A56334   8.910  27.900   8.950
 2873DOPG   C3A56335   8.590  27.810   8.700
 2873DOPG   C4A56336   8.260  27.780   8.310
 2873DOPG   C1B56337   8.490  28.580   8.730
 2873DOPG   D2B56338   8.610  28.300   9.000
 2873DOPG   C3B56339   8.430  27.970   9.160
 2873DOPG   C4B56340   8.510  27.630   9.200
 2874DOPG   GL056341  12.370  26.640  16.330
 2874DOPG   PO456342  12.350  26.200  16.370
 2874DOPG   GL156343  12.370  25.750  16.470
 2874DOPG   GL256344  12.630  25.770  16.500
 2874DOPG   C1A56345  12.260  25.290  16.490
 2874DOPG   D2A56346  12.450  24.950  16.750
 2874DOPG   C3A56347  12.350  24.680  16.570
 2874DOPG   C4A56348  12.410  24.420  16.210
 2874DOPG   C1B56349  12.790  25.300  16.400
 2874DOPG   D2B56350  13.000  25.180  15.970
 2874DOPG   C3B56351  13.030  24.770  15.890
 2874DOPG   C4B56352  12.780  24.460  15.860
 2875DOPG   GL056353   8.730  21.950  10.230
 2875DOPG   PO456354   8.820  22.340  10.210
 2875DOPG   GL156355   8.790  22.270  10.660
 2875DOPG   GL256356   8.390  22.240  10.670
 2875DOPG   C1A56357   8.970  21.900  10.890
 2875DOPG   D2A56358   8.950  21.760  11.360
 2875DOPG   C3A56359   9.370  21.530  11.550
 2875DOPG   C4A56360   9.610  21.650  11.960
 2875DOPG   C1B56361   8.500  21.730  10.670
 2875DOPG   D2B56362   8.670  21.470  11.100
 2875DOPG   C3B56363   8.540  21.490  11.550
 2875DOPG   C4B56364   8.150  21.370  11.750
 2876DOPG   GL056365   6.180  26.720  24.190
 2876DOPG   PO456366   5.880  27.010  24.100
 2876DOPG   GL156367   5.780  26.600  23.850
 2876DOPG   GL256368   5.530  26.600  23.670
 2876DOPG   C1A56369   6.210  26.370  23.620
 2876DOPG   D2A56370   6.080  25.950  23.310
 2876DOPG   C3A56371   6.440  25.640  23.330
 2876DOPG   C4A56372   6.830  25.500  23.510
 2876DOPG   C1B56373   5.600  26.330  23.440
 2876DOPG   D2B56374   5.540  25.960  23.070
 2876DOPG   C3B56375   5.820  25.730  22.870
 2876DOPG   C4B56376   6.120  25.530  22.980
 2877DOPG   GL056377  18.810  17.950  11.500
 2877DOPG   PO456378  18.580  18.320  11.380
 2877DOPG   GL156379  18.220  18.380  11.810
 2877DOPG   GL256380  17.950  18.680  11.900
 2877DOPG   C1A56381  17.840  18.140  11.720
 2877DOPG   D2A56382  17.350  18.070  11.590
 2877DOPG   C3A56383  17.190  18.390  11.540
 2877DOPG   C4A56384  16.780  18.530  11.860
 2877DOPG   C1B56385  17.670  18.840  12.220
 2877DOPG   D2B56386  17.170  18.870  12.150
 2877DOPG   C3B56387  17.060  18.420  12.270
 2877DOPG   C4B56388  16.870  18.070  12.630
 2878DOPG   GL056389   8.130  11.130  14.440
 2878DOPG   PO456390   7.800  11.120  14.460
 2878DOPG   GL156391   7.680  10.700  14.590
 2878DOPG   GL256392   7.790  10.470  14.800
 2878DOPG   C1A56393   7.370  10.430  14.890
 2878DOPG   D2A56394   7.440   9.890  14.940
 2878DOPG   C3A56395   7.370   9.750  15.480
 2878DOPG   C4A56396   7.280   9.330  15.660
 2878DOPG   C1B56397   7.670  10.110  14.540
 2878DOPG   D2B56398   7.360   9.850  14.330
 2878DOPG   C3B56399   7.290   9.520  14.090
 2878DOPG   C4B56400   7.070   9.140  14.390
 2879DOPG   GL056401  12.120  27.980   6.790
 2879DOPG   PO456402  12.400  27.820   6.650
 2879DOPG   GL156403  12.560  27.440   6.680
 2879DOPG   GL256404  12.220  27.370   6.810
 2879DOPG   C1A56405  12.750  26.940   6.670
 2879DOPG   D2A56406  13.120  26.730   6.780
 2879DOPG   C3A56407  13.310  26.830   7.010
 2879DOPG   C4A56408  13.520  27.010   7.280
 2879DOPG   C1B56409  11.870  27.090   6.680
 2879DOPG   D2B56410  11.700  26.750   6.900
 2879DOPG   C3B56411  11.690  26.520   7.340
 2879DOPG   C4B56412  12.180  26.410   7.380
 2880DOPG   GL056413  14.000  15.830   7.610
 2880DOPG   PO456414  14.140  15.570   7.270
 2880DOPG   GL156415  14.270  15.490   6.820
 2880DOPG   GL256416  14.240  15.210   6.880
 2880DOPG   C1A56417  14.730  15.370   6.570
 2880DOPG   D2A56418  14.640  15.400   6.090
 2880DOPG   C3A56419  14.310  15.350   5.820
 2880DOPG   C4A56420  14.160  14.980   5.670
 2880DOPG   C1B56421  14.450  14.960   6.620
 2880DOPG   D2B56422  14.610  14.940   6.210
 2880DOPG   C3B56423  14.250  14.580   6.030
 2880DOPG   C4B56424  14.020  14.450   5.730
 2881DOPG   GL056425  11.950  17.330   7.360
 2881DOPG   PO456426  11.900  17.390   7.730
 2881DOPG   GL156427  11.880  17.250   8.170
 2881DOPG   GL256428  12.200  17.100   8.290
 2881DOPG   C1A56429  11.520  17.370   8.310
 2881DOPG   D2A56430  11.170  17.590   8.230
 2881DOPG   C3A56431  10.770  17.810   8.140
 2881DOPG   C4A56432  10.490  18.010   8.290
 2881DOPG   C1B56433  12.120  16.780   8.610
 2881DOPG   D2B56434  12.100  16.330   8.630
 2881DOPG   C3B56435  11.970  16.160   9.090
 2881DOPG   C4B56436  12.100  16.190   9.540
 2882DOPG   GL056437   5.300  26.910  17.360
 2882DOPG   PO456438   5.190  26.670  16.960
 2882DOPG   GL156439   4.930  26.910  16.960
 2882DOPG   GL256440   4.690  26.690  16.840
 2882DOPG   C1A56441   4.640  27.250  17.020
 2882DOPG   D2A56442   4.450  27.750  17.030
 2882DOPG   C3A56443   4.120  27.970  16.730
 2882DOPG   C4A56444   4.030  28.370  16.650
 2882DOPG   C1B56445   4.290  26.960  16.770
 2882DOPG   D2B56446   4.060  27.310  16.830
 2882DOPG   C3B56447   3.980  27.630  16.420
 2882DOPG   C4B56448   3.860  27.990  16.290
 2883DOPG   GL056449   3.150  24.850  16.370
 2883DOPG   PO456450   2.980  25.020  16.620
 2883DOPG   GL156451   2.600  25.280  16.740
 2883DOPG   GL256452   2.770  25.580  16.560
 2883DOPG   C1A56453   2.220  25.570  16.760
 2883DOPG   D2A56454   1.920  25.990  16.860
 2883DOPG   C3A56455   1.530  25.870  16.620
 2883DOPG   C4A56456   1.300  26.080  16.300
 2883DOPG   C1B56457   2.530  25.920  16.390
 2883DOPG   D2B56458   2.450  26.070  16.060
 2883DOPG   C3B56459   2.210  26.370  16.170
 2883DOPG   C4B56460   1.970  26.760  16.320
 2884DOPG   GL056461   6.700  13.610  10.640
 2884DOPG   PO456462   6.350  13.360  10.790
 2884DOPG   GL156463   6.020  13.070  10.660
 2884DOPG   GL256464   6.040  12.900  10.480
 2884DOPG   C1A56465   5.680  12.770  10.820
 2884DOPG   D2A56466   5.250  12.670  10.590
 2884DOPG   C3A56467   4.990  12.380  10.470
 2884DOPG   C4A56468   4.610  12.190  10.290
 2884DOPG   C1B56469   5.860  13.150  10.130
 2884DOPG   D2B56470   5.490  13.030   9.890
 2884DOPG   C3B56471   5.490  13.330   9.600
 2884DOPG   C4B56472   5.550  13.620   9.210
 2885DOPG   GL056473  14.960  24.480  10.460
 2885DOPG   PO456474  14.920  23.990  10.470
 2885DOPG   GL156475  14.890  23.640  10.570
 2885DOPG   GL256476  14.970  23.390  10.400
 2885DOPG   C1A56477  14.710  23.340  10.930
 2885DOPG   D2A56478  14.450  23.350  11.320
 2885DOPG   C3A56479  14.410  23.110  11.650
 2885DOPG   C4A56480  14.180  22.730  11.840
 2885DOPG   C1B56481  14.680  23.060  10.430
 2885DOPG   D2B56482  14.380  22.990  10.730
 2885DOPG   C3B56483  14.260  22.660  10.910
 2885DOPG   C4B56484  14.590  22.340  10.950
 2886DOPG   GL056485   9.480  26.640  16.330
 2886DOPG   PO456486   9.860  26.360  16.400
 2886DOPG   GL156487   9.850  25.930  16.370
 2886DOPG   GL256488  10.120  25.750  16.350
 2886DOPG   C1A56489   9.670  25.500  16.450
 2886DOPG   D2A56490   9.460  25.200  16.440
 2886DOPG   C3A56491   9.500  24.910  16.230
 2886DOPG   C4A56492   9.670  24.480  16.080
 2886DOPG   C1B56493  10.070  25.620  15.930
 2886DOPG   D2B56494  10.170  25.750  15.560
 2886DOPG   C3B56495  10.400  25.450  15.360
 2886DOPG   C4B56496  10.680  25.230  15.500
 2887DOPG   GL056497  18.790  18.880  15.060
 2887DOPG   PO456498  18.930  18.460  15.090
 2887DOPG   GL156499  18.490  18.320  14.940
 2887DOPG   GL256500  18.310  18.390  15.170
 2887DOPG   C1A56501  18.130  18.270  14.710
 2887DOPG   D2A56502  18.000  18.080  14.400
 2887DOPG   C3A56503  17.950  17.730  14.070
 2887DOPG   C4A56504  17.950  17.520  13.740
 2887DOPG   C1B56505  18.010  18.490  15.450
 2887DOPG   D2B56506  17.600  18.640  15.560
 2887DOPG   C3B56507  17.550  18.610  15.970
 2887DOPG   C4B56508  17.500  18.930  16.270
 2888DOPG   GL056509   7.090  25.060  10.840
 2888DOPG   PO456510   7.240  25.500  10.710
 2888DOPG   GL156511   7.000  25.940  10.700
 2888DOPG   GL256512   6.670  26.030  10.650
 2888DOPG   C1A56513   7.070  26.390  10.720
 2888DOPG   D2A56514   7.050  26.780  10.710
 2888DOPG   C3A56515   7.260  27.140  10.840
 2888DOPG   C4A56516   7.560  27.500  10.740
 2888DOPG   C1B56517   6.410  26.210  10.450
 2888DOPG   D2B56518   6.280  26.510  10.220
 2888DOPG   C3B56519   6.130  26.890   9.950
 2888DOPG   C4B56520   6.020  26.870   9.540
 2889DOPG   GL056521  14.850  21.410   8.770
 2889DOPG   PO456522  14.470  21.370   8.680
 2889DOPG   GL156523  14.510  21.370   9.180
 2889DOPG   GL256524  14.590  21.010   9.210
 2889DOPG   C1A56525  14.360  21.640   9.480
 2889DOPG   D2A56526  14.250  21.420   9.930
 2889DOPG   C3A56527  14.080  21.720  10.260
 2889DOPG   C4A56528  13.760  21.910  10.510
 2889DOPG   C1B56529  14.360  21.040   9.510
 2889DOPG   D2B56530  14.130  20.820   9.840
 2889DOPG   C3B56531  14.020  21.090  10.240
 2889DOPG   C4B56532  13.990  21.330  10.510
 2890DOPG   GL056533  17.170  15.120  11.250
 2890DOPG   PO456534  16.750  15.190  11.110
 2890DOPG   GL156535  16.490  15.590  11.270
 2890DOPG   GL256536  16.610  15.810  11.550
 2890DOPG   C1A56537  16.220  15.940  11.340
 2890DOPG   D2A56538  15.920  16.110  11.520
 2890DOPG   C3A56539  15.890  15.950  12.010
 2890DOPG   C4A56540  16.020  15.870  12.390
 2890DOPG   C1B56541  16.180  15.620  11.690
 2890DOPG   D2B56542  15.800  15.430  11.970
 2890DOPG   C3B56543  15.590  15.530  12.470
 2890DOPG   C4B56544  15.410  15.280  12.750
 2891DOPG   GL056545  14.230  13.880  10.090
 2891DOPG   PO456546  14.690  13.900  10.200
 2891DOPG   GL156547  14.490  14.210  10.380
 2891DOPG   GL256548  14.640  14.480  10.420
 2891DOPG   C1A56549  14.170  14.330  10.630
 2891DOPG   D2A56550  13.950  14.340  10.900
 2891DOPG   C3A56551  13.990  14.740  11.100
 2891DOPG   C4A56552  14.090  14.890  11.530
 2891DOPG   C1B56553  14.410  14.720  10.730
 2891DOPG   D2B56554  14.470  15.020  11.010
 2891DOPG   C3B56555  14.950  15.200  11.180
 2891DOPG   C4B56556  15.320  15.190  10.880
 2892DOPG   GL056557   4.140   8.890  10.020
 2892DOPG   PO456558   4.340   9.190  10.300
 2892DOPG   GL156559   4.510   9.530  10.370
 2892DOPG   GL256560   4.750   9.420  10.420
 2892DOPG   C1A56561   4.600  10.070  10.210
 2892DOPG   D2A56562   4.600  10.450  10.490
 2892DOPG   C3A56563   4.980  10.610  10.760
 2892DOPG   C4A56564   5.030  11.040  10.700
 2892DOPG   C1B56565   5.160   9.310  10.630
 2892DOPG   D2B56566   5.390   9.510  10.940
 2892DOPG   C3B56567   5.720   9.760  10.860
 2892DOPG   C4B56568   6.080   9.890  11.070
 2893DOPG   GL056569  18.610  21.720  15.660
 2893DOPG   PO456570  18.400  21.550  15.240
 2893DOPG   GL156571  18.040  21.290  15.110
 2893DOPG   GL256572  17.800  21.500  14.860
 2893DOPG   C1A56573  17.750  20.880  15.010
 2893DOPG   D2A56574  17.310  21.010  14.880
 2893DOPG   C3A56575  17.070  21.210  15.150
 2893DOPG   C4A56576  16.710  21.240  15.450
 2893DOPG   C1B56577  17.330  21.520  14.700
 2893DOPG   D2B56578  16.930  21.440  14.570
 2893DOPG   C3B56579  16.690  21.350  14.900
 2893DOPG   C4B56580  16.310  21.190  14.730
 2894DOPG   GL056581   7.990  24.680  13.370
 2894DOPG   PO456582   7.960  24.490  13.750
 2894DOPG   GL156583   8.250  24.240  13.890
 2894DOPG   GL256584   8.130  23.930  13.660
 2894DOPG   C1A56585   8.540  23.920  14.020
 2894DOPG   D2A56586   8.860  23.620  13.990
 2894DOPG   C3A56587   9.070  23.880  13.860
 2894DOPG   C4A56588   9.010  24.300  13.760
 2894DOPG   C1B56589   8.540  24.000  13.530
 2894DOPG   D2B56590   8.920  23.880  13.300
 2894DOPG   C3B56591   9.280  23.600  13.490
 2894DOPG   C4B56592   9.520  23.190  13.480
 2895DOPG   GL056593  13.670  19.960  21.900
 2895DOPG   PO456594  13.390  20.150  21.580
 2895DOPG   GL156595  13.520  20.200  21.070
 2895DOPG   GL256596  13.250  20.400  20.900
 2895DOPG   C1A56597  13.450  20.270  20.490
 2895DOPG   D2A56598  13.590  20.520  20.080
 2895DOPG   C3A56599  13.200  20.540  19.790
 2895DOPG   C4A56600  12.980  20.440  19.460
 2895DOPG   C1B56601  12.890  20.210  20.660
 2895DOPG   D2B56602  12.590  20.030  20.490
 2895DOPG   C3B56603  12.430  20.100  20.110
 2895DOPG   C4B56604  12.200  20.450  19.850
 2896DOPG   GL056605  15.690  24.080  13.040
 2896DOPG   PO456606  15.910  24.110  12.640
 2896DOPG   GL156607  15.840  23.670  12.720
 2896DOPG   GL256608  15.920  23.580  13.130
 2896DOPG   C1A56609  15.570  23.310  12.650
 2896DOPG   D2A56610  15.270  22.850  12.660
 2896DOPG   C3A56611  14.890  22.720  12.700
 2896DOPG   C4A56612  14.650  22.510  13.130
 2896DOPG   C1B56613  15.430  23.660  13.050
 2896DOPG   D2B56614  15.020  23.790  12.910
 2896DOPG   C3B56615  14.780  23.530  13.170
 2896DOPG   C4B56616  14.390  23.470  13.320
 2897DOPG   GL056617  15.290  24.480  16.530
 2897DOPG   PO456618  15.430  24.900  16.360
 2897DOPG   GL156619  15.270  24.670  16.080
 2897DOPG   GL256620  15.010  24.840  15.900
 2897DOPG   C1A56621  15.300  24.370  15.840
 2897DOPG   D2A56622  15.470  23.980  15.620
 2897DOPG   C3A56623  15.790  23.880  15.260
 2897DOPG   C4A56624  15.850  23.940  14.860
 2897DOPG   C1B56625  14.810  24.450  15.970
 2897DOPG   D2B56626  14.560  24.190  15.800
 2897DOPG   C3B56627  14.550  23.720  15.700
 2897DOPG   C4B56628  14.860  23.370  15.910
 2898DOPG   GL056629  13.660  11.320  18.250
 2898DOPG   PO456630  13.240  11.570  18.150
 2898DOPG   GL156631  13.070  11.290  18.350
 2898DOPG   GL256632  12.760  11.140  18.540
 2898DOPG   C1A56633  13.320  11.030  18.500
 2898DOPG   D2A56634  13.340  10.710  18.720
 2898DOPG   C3A56635  13.660  10.570  18.940
 2898DOPG   C4A56636  13.830  10.240  19.330
 2898DOPG   C1B56637  12.840  10.870  18.890
 2898DOPG   D2B56638  12.810  10.890  19.290
 2898DOPG   C3B56639  12.850  10.530  19.470
 2898DOPG   C4B56640  13.190  10.250  19.420
 2899DOPG   GL056641   4.300  25.750  15.450
 2899DOPG   PO456642   3.840  25.990  15.470
 2899DOPG   GL156643   3.810  26.500  15.520
 2899DOPG   GL256644   3.890  26.580  15.200
 2899DOPG   C1A56645   3.370  26.800  15.650
 2899DOPG   D2A56646   3.220  27.220  15.700
 2899DOPG   C3A56647   3.340  27.600  15.710
 2899DOPG   C4A56648   2.940  27.940  15.540
 2899DOPG   C1B56649   3.400  26.730  15.070
 2899DOPG   D2B56650   3.030  26.640  15.270
 2899DOPG   C3B56651   2.830  26.950  15.650
 2899DOPG   C4B56652   2.640  27.210  15.860
 2900DOPG   GL056653  15.830  23.210  19.270
 2900DOPG   PO456654  15.920  23.370  18.790
 2900DOPG   GL156655  15.580  23.430  18.430
 2900DOPG   GL256656  15.460  23.130  18.530
 2900DOPG   C1A56657  15.360  23.470  17.990
 2900DOPG   D2A56658  15.460  23.290  17.490
 2900DOPG   C3A56659  15.440  22.890  17.250
 2900DOPG   C4A56660  15.350  22.580  16.940
 2900DOPG   C1B56661  15.250  23.030  18.170
 2900DOPG   D2B56662  14.950  22.760  18.030
 2900DOPG   C3B56663  15.040  22.360  18.260
 2900DOPG   C4B56664  15.140  21.950  18.170
 2901DOPG   GL056665   2.460  21.100  18.100
 2901DOPG   PO456666   2.450  20.780  18.360
 2901DOPG   GL156667   2.240  20.770  18.760
 2901DOPG   GL256668   1.960  21.110  18.890
 2901DOPG   C1A56669   1.930  20.660  18.970
 2901DOPG   D2A56670   1.490  20.600  19.200
 2901DOPG   C3A56671   1.370  20.800  19.520
 2901DOPG   C4A56672   1.060  20.890  19.870
 2901DOPG   C1B56673   1.650  21.160  19.240
 2901DOPG   D2B56674   1.310  21.410  19.490
 2901DOPG   C3B56675   1.400  21.800  19.440
 2901DOPG   C4B56676   1.790  22.040  19.360
 2902DOPG   GL056677   6.970  14.980  18.740
 2902DOPG   PO456678   7.530  15.000  18.800
 2902DOPG   GL156679   7.880  15.150  18.590
 2902DOPG   GL256680   8.220  14.900  18.440
 2902DOPG   C1A56681   8.060  15.490  18.280
 2902DOPG   D2A56682   8.360  15.900  18.220
 2902DOPG   C3A56683   8.770  15.800  18.120
 2902DOPG   C4A56684   9.180  15.860  18.210
 2902DOPG   C1B56685   8.660  15.010  18.060
 2902DOPG   D2B56686   9.040  15.130  17.840
 2902DOPG   C3B56687   9.230  15.500  17.870
 2902DOPG   C4B56688   9.050  15.860  17.730
 2903DOPG   GL056689  10.610  12.640  10.200
 2903DOPG   PO456690  10.540  13.100  10.210
 2903DOPG   GL156691  10.790  13.520  10.430
 2903DOPG   GL256692  10.690  13.660  10.730
 2903DOPG   C1A56693  11.170  13.490  10.590
 2903DOPG   D2A56694  11.400  13.750  10.860
 2903DOPG   C3A56695  11.210  14.190  10.910
 2903DOPG   C4A56696  11.130  14.420  11.190
 2903DOPG   C1B56697  10.650  13.450  11.080
 2903DOPG   D2B56698  10.350  13.300  11.370
 2903DOPG   C3B56699  10.140  13.530  11.590
 2903DOPG   C4B56700  10.170  13.680  11.900
 2904DOPG   GL056701   7.030  18.650   7.930
 2904DOPG   PO456702   7.090  18.370   7.580
 2904DOPG   GL156703   7.080  18.310   7.140
 2904DOPG   GL256704   6.840  18.660   7.040
 2904DOPG   C1A56705   7.140  18.310   6.690
 2904DOPG   D2A56706   7.220  18.360   6.230
 2904DOPG   C3A56707   7.360  17.920   6.140
 2904DOPG   C4A56708   7.400  17.480   6.030
 2904DOPG   C1B56709   6.780  18.630   6.540
 2904DOPG   D2B56710   6.540  18.530   6.260
 2904DOPG   C3B56711   6.130  18.630   6.280
 2904DOPG   C4B56712   5.770  18.760   6.120
 2905DOPG   GL056713   9.480  23.860   4.110
 2905DOPG   PO456714   9.450  24.370   4.020
 2905DOPG   GL156715   9.310  24.430   4.520
 2905DOPG   GL256716   9.210  24.640   4.670
 2905DOPG   C1A56717   9.020  24.020   4.730
 2905DOPG   D2A56718   8.800  23.970   5.190
 2905DOPG   C3A56719   8.980  23.700   5.510
 2905DOPG   C4A56720   9.390  23.700   5.840
 2905DOPG   C1B56721   8.980  24.470   5.060
 2905DOPG   D2B56722   8.970  24.650   5.420
 2905DOPG   C3B56723   8.810  24.480   5.770
 2905DOPG   C4B56724   8.800  24.450   6.280
 2906DOPG   GL056725  10.220  16.840   7.140
 2906DOPG   PO456726  10.440  16.660   6.770
 2906DOPG   GL156727  10.240  16.750   6.340
 2906DOPG   GL256728  10.100  16.500   6.160
 2906DOPG   C1A56729  10.040  16.940   5.910
 2906DOPG   D2A56730  10.190  17.140   5.460
 2906DOPG   C3A56731   9.880  17.080   5.130
 2906DOPG   C4A56732   9.560  16.880   4.840
 2906DOPG   C1B56733  10.210  16.020   6.150
 2906DOPG   D2B56734  10.200  15.620   5.970
 2906DOPG   C3B56735  10.330  15.290   5.580
 2906DOPG   C4B56736  10.500  15.000   5.360
 2907DOPG   GL056737  17.070  25.310  17.200
 2907DOPG   PO456738  16.960  25.200  17.560
 2907DOPG   GL156739  17.220  25.600  17.640
 2907DOPG   GL256740  17.420  25.620  17.430
 2907DOPG   C1A56741  17.260  26.040  17.760
 2907DOPG   D2A56742  17.290  26.170  18.200
 2907DOPG   C3A56743  17.150  26.630  18.280
 2907DOPG   C4A56744  17.510  26.930  18.250
 2907DOPG   C1B56745  17.260  26.050  17.270
 2907DOPG   D2B56746  17.490  26.450  17.200
 2907DOPG   C3B56747  17.480  26.760  16.850
 2907DOPG   C4B56748  17.580  27.260  16.860
 2908DOPG   GL056749  17.980  11.710  22.140
 2908DOPG   PO456750  17.890  11.650  21.720
 2908DOPG   GL156751  17.680  11.760  21.440
 2908DOPG   GL256752  17.370  11.780  21.500
 2908DOPG   C1A56753  17.800  12.010  21.130
 2908DOPG   D2A56754  18.120  11.910  20.820
 2908DOPG   C3A56755  17.970  11.710  20.390
 2908DOPG   C4A56756  18.020  11.720  20.000
 2908DOPG   C1B56757  17.280  12.090  21.380
 2908DOPG   D2B56758  17.120  12.490  21.380
 2908DOPG   C3B56759  16.900  12.500  21.050
 2908DOPG   C4B56760  16.540  12.540  20.780
 2909DOPG   GL056761  12.250  14.490  19.820
 2909DOPG   PO456762  12.550  14.400  19.430
 2909DOPG   GL156763  12.420  14.540  19.020
 2909DOPG   GL256764  12.730  14.400  18.980
 2909DOPG   C1A56765  12.290  14.550  18.640
 2909DOPG   D2A56766  12.120  14.660  18.440
 2909DOPG   C3A56767  12.200  14.800  18.040
 2909DOPG   C4A56768  12.210  15.130  17.760
 2909DOPG   C1B56769  12.770  14.710  18.680
 2909DOPG   D2B56770  12.750  14.730  18.270
 2909DOPG   C3B56771  12.900  14.440  17.980
 2909DOPG   C4B56772  12.980  14.300  17.640
 2910DOPG   GL056773  18.090  22.960  13.690
 2910DOPG   PO456774  17.730  22.710  13.610
 2910DOPG   GL156775  17.340  22.450  13.580
 2910DOPG   GL256776  16.990  22.500  13.840
 2910DOPG   C1A56777  17.030  22.340  13.260
 2910DOPG   D2A56778  16.630  22.070  13.010
 2910DOPG   C3A56779  16.470  21.690  13.230
 2910DOPG   C4A56780  16.120  21.480  13.390
 2910DOPG   C1B56781  16.630  22.410  14.090
 2910DOPG   D2B56782  16.300  22.610  13.860
 2910DOPG   C3B56783  15.970  22.550  14.150
 2910DOPG   C4B56784  15.690  22.490  14.550
 2911DOPG   GL056785   5.860  18.020  21.640
 2911DOPG   PO456786   5.750  18.050  21.240
 2911DOPG   GL156787   5.390  18.140  21.630
 2911DOPG   GL256788   5.530  18.180  22.000
 2911DOPG   C1A56789   5.040  18.010  21.950
 2911DOPG   D2A56790   4.980  17.620  22.130
 2911DOPG   C3A56791   4.930  17.300  22.330
 2911DOPG   C4A56792   4.570  16.970  22.510
 2911DOPG   C1B56793   5.470  17.740  22.000
 2911DOPG   D2B56794   5.340  17.240  22.030
 2911DOPG   C3B56795   5.200  16.890  22.330
 2911DOPG   C4B56796   5.540  16.610  22.550
 2912DOPG   GL056797  11.990  22.170  21.780
 2912DOPG   PO456798  12.190  22.290  21.390
 2912DOPG   GL156799  12.430  22.270  20.930
 2912DOPG   GL256800  12.270  22.300  20.590
 2912DOPG   C1A56801  12.690  21.980  20.680
 2912DOPG   D2A56802  13.130  21.860  20.550
 2912DOPG   C3A56803  13.440  21.800  20.300
 2912DOPG   C4A56804  13.820  22.070  20.220
 2912DOPG   C1B56805  12.280  22.110  20.200
 2912DOPG   D2B56806  12.010  21.960  19.920
 2912DOPG   C3B56807  11.850  21.670  19.730
 2912DOPG   C4B56808  11.850  21.530  19.300
 2913DOPG   GL056809  14.980  27.030  15.570
 2913DOPG   PO456810  15.300  26.910  15.380
 2913DOPG   GL156811  15.220  27.340  15.200
 2913DOPG   GL256812  15.110  27.400  14.810
 2913DOPG   C1A56813  15.420  27.730  15.110
 2913DOPG   D2A56814  15.600  27.970  14.870
 2913DOPG   C3A56815  15.410  28.200  14.600
 2913DOPG   C4A56816  15.480  28.230  14.150
 2913DOPG   C1B56817  15.100  27.740  14.700
 2913DOPG   D2B56818  15.120  27.940  14.310
 2913DOPG   C3B56819  15.020  28.260  14.230
 2913DOPG   C4B56820  14.770  28.680  13.980
 2914DOPG   GL056821   7.530  13.680  17.680
 2914DOPG   PO456822   7.720  13.910  18.020
 2914DOPG   GL156823   7.980  14.140  17.810
 2914DOPG   GL256824   8.020  14.170  17.570
 2914DOPG   C1A56825   8.400  14.310  17.920
 2914DOPG   D2A56826   8.520  14.480  18.420
 2914DOPG   C3A56827   8.760  14.740  18.490
 2914DOPG   C4A56828   9.230  14.820  18.510
 2914DOPG   C1B56829   8.360  14.380  17.190
 2914DOPG   D2B56830   8.270  14.810  17.050
 2914DOPG   C3B56831   8.700  14.960  16.930
 2914DOPG   C4B56832   8.970  15.320  16.790
 2915DOPG   GL056833   9.290  19.910  22.720
 2915DOPG   PO456834   9.490  19.670  22.950
 2915DOPG   GL156835   9.470  19.650  23.430
 2915DOPG   GL256836   9.410  20.000  23.590
 2915DOPG   C1A56837   9.670  19.710  23.870
 2915DOPG   D2A56838   9.590  20.040  24.250
 2915DOPG   C3A56839   9.390  20.000  24.660
 2915DOPG   C4A56840   9.080  20.010  25.020
 2915DOPG   C1B56841   9.030  20.060  23.870
 2915DOPG   D2B56842   8.690  19.980  24.190
 2915DOPG   C3B56843   8.700  20.110  24.600
 2915DOPG   C4B56844   8.500  20.380  24.890
 2916DOPG   GL056845   5.640  18.250  18.040
 2916DOPG   PO456846   5.980  18.040  18.120
 2916DOPG   GL156847   6.250  18.030  17.880
 2916DOPG   GL256848   6.090  18.160  17.610
 2916DOPG   C1A56849   6.620  17.970  17.730
 2916DOPG   D2A56850   6.870  17.600  17.930
 2916DOPG   C3A56851   7.150  17.680  18.280
 2916DOPG   C4A56852   7.530  17.670  18.420
 2916DOPG   C1B56853   6.470  18.260  17.360
 2916DOPG   D2B56854   6.890  18.080  17.250
 2916DOPG   C3B56855   6.980  18.260  16.800
 2916DOPG   C4B56856   7.150  18.350  16.410
 2917DOPG   GL056857  11.770  26.840  16.490
 2917DOPG   PO456858  11.610  26.520  16.190
 2917DOPG   GL156859  11.500  26.110  16.250
 2917DOPG   GL256860  11.440  26.090  15.920
 2917DOPG   C1A56861  11.510  25.710  16.460
 2917DOPG   D2A56862  11.790  25.320  16.630
 2917DOPG   C3A56863  11.830  24.810  16.590
 2917DOPG   C4A56864  11.650  24.490  16.830
 2917DOPG   C1B56865  11.530  25.620  15.930
 2917DOPG   D2B56866  11.720  25.380  15.600
 2917DOPG   C3B56867  11.650  24.950  15.590
 2917DOPG   C4B56868  11.680  24.540  15.650
 2918DOPG   GL056869   3.070  17.660  10.920
 2918DOPG   PO456870   3.350  17.330  10.930
 2918DOPG   GL156871   2.980  17.150  10.740
 2918DOPG   GL256872   2.900  16.930  10.980
 2918DOPG   C1A56873   2.860  16.840  10.480
 2918DOPG   D2A56874   2.600  16.380  10.410
 2918DOPG   C3A56875   2.330  16.010  10.560
 2918DOPG   C4A56876   1.940  15.760  10.410
 2918DOPG   C1B56877   2.480  17.070  10.880
 2918DOPG   D2B56878   2.100  17.080  10.870
 2918DOPG   C3B56879   1.710  17.170  10.730
 2918DOPG   C4B56880   1.330  17.490  10.690
 2919DOPG   GL056881   8.600  16.170   8.860
 2919DOPG   PO456882   8.900  16.020   9.190
 2919DOPG   GL156883   8.840  16.440   9.490
 2919DOPG   GL256884   8.520  16.540   9.650
 2919DOPG   C1A56885   8.960  16.820   9.790
 2919DOPG   D2A56886   9.180  16.980  10.120
 2919DOPG   C3A56887   9.180  17.470  10.260
 2919DOPG   C4A56888   9.210  17.970  10.140
 2919DOPG   C1B56889   8.650  16.600  10.090
 2919DOPG   D2B56890   8.700  16.660  10.510
 2919DOPG   C3B56891   8.890  17.080  10.610
 2919DOPG   C4B56892   8.820  17.470  10.910
 2920DOPG   GL056893  11.550  11.950  12.570
 2920DOPG   PO456894  11.880  12.120  12.240
 2920DOPG   GL156895  11.800  12.380  12.610
 2920DOPG   GL256896  12.020  12.440  12.760
 2920DOPG   C1A56897  11.370  12.600  12.760
 2920DOPG   D2A56898  11.190  12.750  13.160
 2920DOPG   C3A56899  11.340  12.530  13.580
 2920DOPG   C4A56900  11.360  12.790  14.000
 2920DOPG   C1B56901  12.190  12.750  13.000
 2920DOPG   D2B56902  12.300  12.880  13.450
 2920DOPG   C3B56903  12.150  13.150  13.800
 2920DOPG   C4B56904  12.230  13.530  14.040
 2921DOPG   GL056905  23.370  14.950  15.880
 2921DOPG   PO456906  23.060  15.090  16.100
 2921DOPG   GL156907  22.670  15.320  16.280
 2921DOPG   GL256908  22.450  15.160  16.260
 2921DOPG   C1A56909  22.420  15.510  16.670
 2921DOPG   D2A56910  22.070  15.730  16.830
 2921DOPG   C3A56911  21.950  15.820  17.210
 2921DOPG   C4A56912  21.600  15.730  17.260
 2921DOPG   C1B56913  22.200  15.440  16.060
 2921DOPG   D2B56914  21.920  15.760  16.020
 2921DOPG   C3B56915  22.080  16.030  15.920
 2921DOPG   C4B56916  22.090  16.440  15.790
 2922DOPG   GL056917  12.650  16.650  20.590
 2922DOPG   PO456918  12.370  16.250  20.610
 2922DOPG   GL156919  12.250  16.550  20.350
 2922DOPG   GL256920  12.340  16.410  20.060
 2922DOPG   C1A56921  11.980  16.730  20.160
 2922DOPG   D2A56922  11.780  17.130  20.080
 2922DOPG   C3A56923  11.910  17.570  20.260
 2922DOPG   C4A56924  12.090  17.880  20.600
 2922DOPG   C1B56925  12.820  16.390  19.890
 2922DOPG   D2B56926  13.270  16.500  19.770
 2922DOPG   C3B56927  13.510  16.520  19.380
 2922DOPG   C4B56928  13.420  16.630  18.910
 2923DOPG   GL056929  15.480  22.910  20.430
 2923DOPG   PO456930  15.580  22.560  20.600
 2923DOPG   GL156931  15.660  22.590  21.100
 2923DOPG   GL256932  15.490  22.540  21.300
 2923DOPG   C1A56933  16.070  22.780  21.340
 2923DOPG   D2A56934  16.390  23.090  21.330
 2923DOPG   C3A56935  16.550  23.030  21.730
 2923DOPG   C4A56936  16.640  22.980  22.150
 2923DOPG   C1B56937  15.750  22.620  21.710
 2923DOPG   D2B56938  16.170  22.640  21.860
 2923DOPG   C3B56939  16.570  22.350  21.920
 2923DOPG   C4B56940  16.610  21.960  21.870
 2924DOPG   GL056941   9.130  15.920  20.610
 2924DOPG   PO456942   9.430  15.780  20.410
 2924DOPG   GL156943   9.220  16.200  20.210
 2924DOPG   GL256944   9.180  16.430  20.550
 2924DOPG   C1A56945   9.130  16.350  19.800
 2924DOPG   D2A56946   9.280  16.810  19.680
 2924DOPG   C3A56947   9.490  16.770  19.240
 2924DOPG   C4A56948   9.650  16.870  18.930
 2924DOPG   C1B56949   9.160  16.720  20.190
 2924DOPG   D2B56950   8.970  17.030  19.970
 2924DOPG   C3B56951   8.920  17.280  19.600
 2924DOPG   C4B56952   9.080  17.630  19.400
 2925DOPG   GL056953   2.690  22.190  16.890
 2925DOPG   PO456954   2.330  22.210  16.620
 2925DOPG   GL156955   1.930  22.330  16.930
 2925DOPG   GL256956   1.830  22.720  17.050
 2925DOPG   C1A56957   1.530  22.290  16.980
 2925DOPG   D2A56958   1.220  22.320  17.290
 2925DOPG   C3A56959   0.800  22.340  17.120
 2925DOPG   C4A56960   0.340  22.240  17.240
 2925DOPG   C1B56961   1.460  22.770  17.030
 2925DOPG   D2B56962   1.050  22.830  17.160
 2925DOPG   C3B56963   0.810  23.170  16.980
 2925DOPG   C4B56964   0.370  23.220  17.060
 2926DOPG   GL056965  11.750  18.600   7.480
 2926DOPG   PO456966  11.920  18.260   7.500
 2926DOPG   GL156967  11.700  18.280   7.860
 2926DOPG   GL256968  11.430  18.180   8.070
 2926DOPG   C1A56969  11.890  18.130   8.300
 2926DOPG   D2A56970  11.900  18.090   8.700
 2926DOPG   C3A56971  12.150  17.860   8.970
 2926DOPG   C4A56972  12.290  18.030   9.330
 2926DOPG   C1B56973  11.490  18.330   8.470
 2926DOPG   D2B56974  11.440  18.150   8.900
 2926DOPG   C3B56975  11.770  18.040   9.210
 2926DOPG   C4B56976  11.820  18.090   9.680
 2927DOPG   GL056977  20.010  17.550   6.130
 2927DOPG   PO456978  20.270  17.320   6.350
 2927DOPG   GL156979  20.000  17.210   6.510
 2927DOPG   GL256980  19.810  17.440   6.650
 2927DOPG   C1A56981  19.670  16.910   6.600
 2927DOPG   D2A56982  19.360  16.520   6.690
 2927DOPG   C3A56983  19.010  16.440   6.430
 2927DOPG   C4A56984  18.720  16.200   6.380
 2927DOPG   C1B56985  19.540  17.640   6.790
 2927DOPG   D2B56986  19.140  17.930   6.690
 2927DOPG   C3B56987  18.810  17.970   7.040
 2927DOPG   C4B56988  18.690  18.140   7.440
 2928DOPG   GL056989   6.320  15.400  18.320
 2928DOPG   PO456990   6.770  15.330  18.370
 2928DOPG   GL156991   6.960  15.540  18.050
 2928DOPG   GL256992   7.170  15.690  18.230
 2928DOPG   C1A56993   7.140  15.670  17.690
 2928DOPG   D2A56994   7.350  16.100  17.660
 2928DOPG   C3A56995   7.590  16.170  17.270
 2928DOPG   C4A56996   7.980  16.320  17.030
 2928DOPG   C1B56997   7.560  15.640  18.000
 2928DOPG   D2B56998   7.830  15.820  17.770
 2928DOPG   C3B56999   8.130  15.770  17.780
 2928DOPG   C4B57000   8.520  16.080  17.800
 2929DOPG   GL057001   5.560  17.770  11.850
 2929DOPG   PO457002   5.710  18.090  11.980
 2929DOPG   GL157003   6.070  17.990  11.900
 2929DOPG   GL257004   6.260  17.790  12.190
 2929DOPG   C1A57005   6.530  18.050  11.850
 2929DOPG   D2A57006   6.780  17.890  12.200
 2929DOPG   C3A57007   6.540  17.780  12.600
 2929DOPG   C4A57008   6.390  17.480  12.860
 2929DOPG   C1B57009   6.400  18.210  12.350
 2929DOPG   D2B57010   6.740  18.430  12.220
 2929DOPG   C3B57011   7.160  18.330  12.360
 2929DOPG   C4B57012   7.460  18.110  12.640
 2930DOPG   GL057013  10.820  26.660  18.380
 2930DOPG   PO457014  10.680  26.780  18.760
 2930DOPG   GL157015  10.750  26.990  19.080
 2930DOPG   GL257016  10.880  27.230  18.830
 2930DOPG   C1A57017  10.590  27.470  19.180
 2930DOPG   D2A57018  10.550  27.840  19.040
 2930DOPG   C3A57019  10.890  28.180  19.100
 2930DOPG   C4A57020  11.180  28.620  19.180
 2930DOPG   C1B57021  11.020  27.640  19.110
 2930DOPG   D2B57022  11.280  27.850  19.360
 2930DOPG   C3B57023  11.500  28.310  19.370
 2930DOPG   C4B57024  11.500  28.600  19.710
 2931DOPG   GL057025   6.440  19.890  12.240
 2931DOPG   PO457026   6.440  19.920  12.710
 2931DOPG   GL157027   6.800  19.660  12.850
 2931DOPG   GL257028   7.000  19.780  12.610
 2931DOPG   C1A57029   7.050  19.840  13.140
 2931DOPG   D2A57030   7.450  19.910  13.140
 2931DOPG   C3A57031   7.680  19.710  12.880
 2931DOPG   C4A57032   8.100  19.650  12.710
 2931DOPG   C1B57033   7.260  19.530  12.820
 2931DOPG   D2B57034   7.440  19.320  13.150
 2931DOPG   C3B57035   7.400  19.220  13.580
 2931DOPG   C4B57036   7.720  19.150  13.700
 2932DOPG   GL057037   8.440  20.050   7.890
 2932DOPG   PO457038   8.280  20.240   7.430
 2932DOPG   GL157039   8.010  19.990   7.060
 2932DOPG   GL257040   8.130  19.760   7.090
 2932DOPG   C1A57041   7.660  20.140   6.680
 2932DOPG   D2A57042   7.400  20.360   6.340
 2932DOPG   C3A57043   7.260  20.250   6.040
 2932DOPG   C4A57044   7.020  20.160   5.690
 2932DOPG   C1B57045   8.150  19.460   6.820
 2932DOPG   D2B57046   7.760  19.120   6.640
 2932DOPG   C3B57047   7.510  19.250   6.370
 2932DOPG   C4B57048   7.530  19.080   5.890
 2933DOPG   GL057049   9.810  27.600  13.790
 2933DOPG   PO457050   9.870  27.870  14.020
 2933DOPG   GL157051   9.680  28.270  14.140
 2933DOPG   GL257052   9.770  28.350  14.490
 2933DOPG   C1A57053   9.520  28.720  14.220
 2933DOPG   D2A57054   9.680  29.100  14.260
 2933DOPG   C3A57055   9.650  29.400  13.930
 2933DOPG   C4A57056   9.560  29.760  13.660
 2933DOPG   C1B57057   9.380  28.560  14.650
 2933DOPG   D2B57058   9.140  28.920  14.480
 2933DOPG   C3B57059   9.210  29.330  14.570
 2933DOPG   C4B57060   9.690  29.510  14.570
 2934DOPG   GL057061  11.640  22.290  21.350
 2934DOPG   PO457062  11.460  22.450  20.990
 2934DOPG   GL157063  11.530  22.120  20.760
 2934DOPG   GL257064  11.600  22.180  20.510
 2934DOPG   C1A57065  11.210  21.870  20.580
 2934DOPG   D2A57066  10.920  21.740  20.170
 2934DOPG   C3A57067  10.600  21.840  19.940
 2934DOPG   C4A57068  10.390  21.610  19.760
 2934DOPG   C1B57069  11.750  22.420  20.250
 2934DOPG   D2B57070  11.670  22.470  19.840
 2934DOPG   C3B57071  11.620  22.090  19.620
 2934DOPG   C4B57072  11.710  22.010  19.190
 2935DOPG   GL057073  13.450  24.890  20.410
 2935DOPG   PO457074  13.220  24.760  20.770
 2935DOPG   GL157075  13.160  25.000  21.170
 2935DOPG   GL257076  13.510  25.090  21.290
 2935DOPG   C1A57077  13.080  25.260  21.550
 2935DOPG   D2A57078  12.880  25.370  22.010
 2935DOPG   C3A57079  13.190  25.500  22.390
 2935DOPG   C4A57080  13.220  25.650  22.720
 2935DOPG   C1B57081  13.560  25.340  21.640
 2935DOPG   D2B57082  13.440  25.560  21.960
 2935DOPG   C3B57083  13.740  25.600  22.240
 2935DOPG   C4B57084  14.010  25.950  22.340
 2936DOPG   GL057085  14.020  18.860  20.620
 2936DOPG   PO457086  14.440  18.760  20.680
 2936DOPG   GL157087  14.620  18.890  20.310
 2936DOPG   GL257088  14.760  19.150  20.080
 2936DOPG   C1A57089  14.500  18.810  19.890
 2936DOPG   D2A57090  14.510  18.850  19.420
 2936DOPG   C3A57091  14.340  18.520  19.190
 2936DOPG   C4A57092  14.150  18.380  18.740
 2936DOPG   C1B57093  14.710  19.240  19.730
 2936DOPG   D2B57094  14.450  19.500  19.490
 2936DOPG   C3B57095  14.420  19.280  19.120
 2936DOPG   C4B57096  14.480  19.380  18.660
 2937DOPG   GL057097  10.830  15.090  20.430
 2937DOPG   PO457098  10.840  15.180  20.030
 2937DOPG   GL157099  10.840  15.620  19.940
 2937DOPG   GL257100  11.130  15.780  19.980
 2937DOPG   C1A57101  10.590  15.840  19.610
 2937DOPG   D2A57102  10.500  16.250  19.380
 2937DOPG   C3A57103  10.730  16.600  19.460
 2937DOPG   C4A57104  11.180  16.710  19.410
 2937DOPG   C1B57105  11.130  15.910  19.570
 2937DOPG   D2B57106  11.150  16.190  19.220
 2937DOPG   C3B57107  11.080  16.070  18.830
 2937DOPG   C4B57108  10.980  15.950  18.440
 2938DOPG   GL057109   8.980  11.410  15.140
 2938DOPG   PO457110   8.720  11.680  14.910
 2938DOPG   GL157111   8.820  12.120  14.810
 2938DOPG   GL257112   8.620  12.430  14.790
 2938DOPG   C1A57113   9.160  12.390  14.690
 2938DOPG   D2A57114   9.480  12.540  14.470
 2938DOPG   C3A57115   9.560  12.800  14.190
 2938DOPG   C4A57116   9.640  13.040  14.010
 2938DOPG   C1B57117   8.860  12.800  14.960
 2938DOPG   D2B57118   9.240  12.890  14.950
 2938DOPG   C3B57119   9.450  13.380  14.910
 2938DOPG   C4B57120   9.560  13.700  15.110
 2939DOPG   GL057121   7.680  22.930   9.530
 2939DOPG   PO457122   7.350  23.320   9.530
 2939DOPG   GL157123   7.350  23.510   9.070
 2939DOPG   GL257124   7.060  23.580   9.070
 2939DOPG   C1A57125   7.500  23.720   8.630
 2939DOPG   D2A57126   7.700  24.040   8.520
 2939DOPG   C3A57127   7.660  24.330   8.190
 2939DOPG   C4A57128   7.670  24.840   7.910
 2939DOPG   C1B57129   6.980  23.840   8.700
 2939DOPG   D2B57130   7.110  23.880   8.290
 2939DOPG   C3B57131   7.510  23.870   8.090
 2939DOPG   C4B57132   7.840  23.990   7.840
 2940DOPG   GL057133   8.300  27.260  14.600
 2940DOPG   PO457134   7.860  27.560  14.760
 2940DOPG   GL157135   7.910  28.010  14.540
 2940DOPG   GL257136   7.850  28.020  14.230
 2940DOPG   C1A57137   7.670  28.530  14.460
 2940DOPG   D2A57138   7.350  28.870  14.390
 2940DOPG   C3A57139   7.430  29.290  14.180
 2940DOPG   C4A57140   7.700  29.690  13.970
 2940DOPG   C1B57141   7.520  28.070  14.070
 2940DOPG   D2B57142   7.600  28.220  13.710
 2940DOPG   C3B57143   7.400  28.480  13.440
 2940DOPG   C4B57144   7.390  28.630  12.990
 2941DOPG   GL057145   5.520  23.190  20.860
 2941DOPG   PO457146   5.440  23.630  20.740
 2941DOPG   GL157147   5.170  23.460  21.160
 2941DOPG   GL257148   5.070  23.280  21.360
 2941DOPG   C1A57149   5.070  23.830  21.400
 2941DOPG   D2A57150   4.960  24.210  21.260
 2941DOPG   C3A57151   4.670  24.460  21.460
 2941DOPG   C4A57152   4.250  24.290  21.520
 2941DOPG   C1B57153   4.720  23.390  21.680
 2941DOPG   D2B57154   4.640  23.590  22.030
 2941DOPG   C3B57155   4.610  23.390  22.340
 2941DOPG   C4B57156   4.900  23.130  22.490
 2942DOPG   GL057157  16.970  30.210  12.990
 2942DOPG   PO457158  16.630  30.010  12.830
 2942DOPG   GL157159  16.640  29.740  13.110
 2942DOPG   GL257160  16.390  29.880  13.340
 2942DOPG   C1A57161  16.760  29.330  13.120
 2942DOPG   D2A57162  16.650  28.890  13.190
 2942DOPG   C3A57163  16.620  28.630  13.370
 2942DOPG   C4A57164  16.930  28.360  13.430
 2942DOPG   C1B57165  16.100  29.520  13.140
 2942DOPG   D2B57166  15.940  29.110  13.100
 2942DOPG   C3B57167  16.170  28.680  13.020
 2942DOPG   C4B57168  16.140  28.190  13.110
 2943DOPG   GL057169   3.020  23.380  12.630
 2943DOPG   PO457170   2.980  23.680  12.410
 2943DOPG   GL157171   2.520  23.760  12.150
 2943DOPG   GL257172   2.340  23.460  12.190
 2943DOPG   C1A57173   2.200  23.950  11.990
 2943DOPG   D2A57174   1.730  23.960  12.150
 2943DOPG   C3A57175   1.420  24.080  11.910
 2943DOPG   C4A57176   1.000  24.300  11.920
 2943DOPG   C1B57177   1.970  23.520  12.020
 2943DOPG   D2B57178   1.710  23.640  11.630
 2943DOPG   C3B57179   1.690  24.060  11.510
 2943DOPG   C4B57180   1.720  24.550  11.270
 2944DOPG   GL057181  34.220  17.860  18.150
 2944DOPG   PO457182  34.550  17.780  18.380
 2944DOPG   GL157183  34.930  17.690  18.070
 2944DOPG   GL257184  34.970  17.320  17.890
 2944DOPG   C1A57185  35.370  17.640  18.090
 2944DOPG   D2A57186  35.830  17.750  17.930
 2944DOPG   C3A57187  36.260  17.480  18.050
 2944DOPG   C4A57188   0.110  17.280  18.420
 2944DOPG   C1B57189  35.420  17.160  17.940
 2944DOPG   D2B57190  35.810  17.320  17.680
 2944DOPG   C3B57191  35.860  17.160  17.270
 2944DOPG   C4B57192  36.050  17.130  16.840
 2945DOPG   GL057193   8.730  27.570  16.910
 2945DOPG   PO457194   9.180  27.540  16.880
 2945DOPG   GL157195   9.190  27.910  16.900
 2945DOPG   GL257196   9.320  28.200  16.950
 2945DOPG   C1A57197   8.890  28.150  17.000
 2945DOPG   D2A57198   8.800  28.290  17.450
 2945DOPG   C3A57199   8.590  28.710  17.410
 2945DOPG   C4A57200   8.280  28.850  17.330
 2945DOPG   C1B57201   9.610  28.510  17.100
 2945DOPG   D2B57202   9.830  29.010  17.190
 2945DOPG   C3B57203  10.190  29.160  17.080
 2945DOPG   C4B57204  10.530  28.960  17.130
 2946DOPG   GL057205  14.140  24.530  10.770
 2946DOPG   PO457206  14.100  24.870  11.060
 2946DOPG   GL157207  13.840  24.560  11.240
 2946DOPG   GL257208  13.610  24.590  11.070
 2946DOPG   C1A57209  13.610  24.680  11.540
 2946DOPG   D2A57210  13.370  24.780  11.890
 2946DOPG   C3A57211  12.890  24.750  11.780
 2946DOPG   C4A57212  12.570  24.660  12.000
 2946DOPG   C1B57213  13.570  24.170  11.090
 2946DOPG   D2B57214  13.850  23.830  11.110
 2946DOPG   C3B57215  13.770  23.620  11.490
 2946DOPG   C4B57216  13.410  23.400  11.830
 2947DOPG   GL057217  36.280  27.650  15.010
 2947DOPG   PO457218  36.270  27.630  15.380
 2947DOPG   GL157219   0.330  27.440  15.410
 2947DOPG   GL257220   0.430  27.360  15.660
 2947DOPG   C1A57221   0.830  27.410  15.270
 2947DOPG   D2A57222   1.020  27.000  15.370
 2947DOPG   C3A57223   0.990  26.530  15.250
 2947DOPG   C4A57224   1.210  26.300  15.120
 2947DOPG   C1B57225   0.630  27.070  15.710
 2947DOPG   D2B57226   0.920  26.760  15.760
 2947DOPG   C3B57227   1.310  26.770  15.710
 2947DOPG   C4B57228   1.590  27.120  15.630
 2948DOPG   GL057229   6.530  26.150  12.890
 2948DOPG   PO457230   6.160  26.270  12.650
 2948DOPG   GL157231   5.910  26.500  12.540
 2948DOPG   GL257232   5.880  26.820  12.720
 2948DOPG   C1A57233   5.880  26.770  12.210
 2948DOPG   D2A57234   5.790  26.790  11.720
 2948DOPG   C3A57235   5.430  26.950  11.340
 2948DOPG   C4A57236   5.310  26.900  10.980
 2948DOPG   C1B57237   5.590  27.120  12.440
 2948DOPG   D2B57238   5.360  27.420  12.340
 2948DOPG   C3B57239   5.140  27.650  12.000
 2948DOPG   C4B57240   4.880  27.890  12.150
 2949DOPG   GL057241  13.700  17.150  21.070
 2949DOPG   PO457242  13.260  17.060  20.990
 2949DOPG   GL157243  13.090  17.340  20.690
 2949DOPG   GL257244  13.100  17.690  20.580
 2949DOPG   C1A57245  13.060  17.360  20.260
 2949DOPG   D2A57246  12.760  17.280  20.030
 2949DOPG   C3A57247  12.750  17.560  19.670
 2949DOPG   C4A57248  12.600  17.870  19.380
 2949DOPG   C1B57249  13.190  18.040  20.360
 2949DOPG   D2B57250  13.040  18.440  20.080
 2949DOPG   C3B57251  12.700  18.650  20.170
 2949DOPG   C4B57252  12.430  18.730  20.540
 2950DOPG   GL057253  17.600  20.840  18.730
 2950DOPG   PO457254  17.160  21.020  18.850
 2950DOPG   GL157255  16.940  21.040  18.500
 2950DOPG   GL257256  16.780  21.270  18.350
 2950DOPG   C1A57257  16.740  20.750  18.180
 2950DOPG   D2A57258  16.560  20.370  17.910
 2950DOPG   C3A57259  16.170  20.100  17.900
 2950DOPG   C4A57260  15.780  20.060  17.650
 2950DOPG   C1B57261  16.540  21.210  18.040
 2950DOPG   D2B57262  16.430  21.280  17.560
 2950DOPG   C3B57263  16.350  20.900  17.280
 2950DOPG   C4B57264  16.440  20.710  16.920
 2951DOPG   GL057265   2.300  15.750  13.880
 2951DOPG   PO457266   1.940  15.570  13.730
 2951DOPG   GL157267   1.510  15.670  13.720
 2951DOPG   GL257268   1.440  15.810  13.980
 2951DOPG   C1A57269   1.060  15.720  13.620
 2951DOPG   D2A57270   0.810  15.490  13.300
 2951DOPG   C3A57271   0.440  15.490  13.120
 2951DOPG   C4A57272   0.040  15.430  13.260
 2951DOPG   C1B57273   1.130  15.480  14.160
 2951DOPG   D2B57274   0.670  15.230  14.290
 2951DOPG   C3B57275   0.310  15.420  14.280
 2951DOPG   C4B57276   0.050  15.680  14.060
 2952DOPG   GL057277  10.940  11.720  15.630
 2952DOPG   PO457278  11.340  11.520  15.590
 2952DOPG   GL157279  11.430  11.880  15.440
 2952DOPG   GL257280  11.190  12.050  15.210
 2952DOPG   C1A57281  11.790  12.170  15.390
 2952DOPG   D2A57282  12.140  12.340  15.250
 2952DOPG   C3A57283  12.520  12.450  14.970
 2952DOPG   C4A57284  12.890  12.500  14.710
 2952DOPG   C1B57285  10.950  12.450  15.230
 2952DOPG   D2B57286  11.110  12.860  15.320
 2952DOPG   C3B57287  10.990  13.260  15.370
 2952DOPG   C4B57288  10.890  13.710  15.270
 2953DOPG   GL057289   4.980  18.110   8.950
 2953DOPG   PO457290   4.700  18.050   8.740
 2953DOPG   GL157291   4.580  18.020   8.290
 2953DOPG   GL257292   4.610  18.280   8.210
 2953DOPG   C1A57293   4.440  18.050   7.820
 2953DOPG   D2A57294   4.510  18.100   7.320
 2953DOPG   C3A57295   4.360  18.230   6.820
 2953DOPG   C4A57296   4.380  18.500   6.500
 2953DOPG   C1B57297   4.370  18.620   8.040
 2953DOPG   D2B57298   4.030  18.750   7.900
 2953DOPG   C3B57299   3.590  18.760   8.120
 2953DOPG   C4B57300   3.170  18.710   7.840
 2954DOPG   GL057301  13.840  24.970  10.090
 2954DOPG   PO457302  13.750  25.270  10.360
 2954DOPG   GL157303  13.670  25.760  10.160
 2954DOPG   GL257304  13.710  25.900  10.390
 2954DOPG   C1A57305  13.770  25.950   9.740
 2954DOPG   D2A57306  14.010  26.180   9.440
 2954DOPG   C3A57307  14.050  26.600   9.460
 2954DOPG   C4A57308  14.050  27.060   9.790
 2954DOPG   C1B57309  13.430  26.260  10.210
 2954DOPG   D2B57310  13.200  26.690  10.130
 2954DOPG   C3B57311  13.220  27.020   9.950
 2954DOPG   C4B57312  13.220  27.450   9.920
 2955DOPG   GL057313  10.410  18.440  21.750
 2955DOPG   PO457314  10.380  18.010  21.500
 2955DOPG   GL157315  10.510  18.190  20.990
 2955DOPG   GL257316  10.370  18.430  21.070
 2955DOPG   C1A57317  10.580  18.310  20.490
 2955DOPG   D2A57318  11.010  18.440  20.210
 2955DOPG   C3A57319  11.110  18.800  19.900
 2955DOPG   C4A57320  11.040  18.920  19.630
 2955DOPG   C1B57321  10.720  18.820  21.100
 2955DOPG   D2B57322  10.850  19.210  21.110
 2955DOPG   C3B57323  10.960  19.600  20.950
 2955DOPG   C4B57324  11.200  19.890  20.710
 2956DOPG   GL057325   3.160  15.470  15.850
 2956DOPG   PO457326   2.730  15.580  15.840
 2956DOPG   GL157327   2.330  15.460  16.060
 2956DOPG   GL257328   2.090  15.380  15.770
 2956DOPG   C1A57329   2.180  15.390  16.360
 2956DOPG   D2A57330   2.090  15.690  16.710
 2956DOPG   C3A57331   1.900  15.370  16.920
 2956DOPG   C4A57332   1.380  15.470  17.050
 2956DOPG   C1B57333   2.000  15.030  16.060
 2956DOPG   D2B57334   2.000  14.910  16.460
 2956DOPG   C3B57335   1.960  14.560  16.650
 2956DOPG   C4B57336   1.850  14.220  16.530
 2957DOPG   GL057337   3.940  18.090  20.010
 2957DOPG   PO457338   4.190  18.250  20.330
 2957DOPG   GL157339   3.970  17.920  20.500
 2957DOPG   GL257340   3.640  18.020  20.400
 2957DOPG   C1A57341   3.730  17.860  20.870
 2957DOPG   D2A57342   3.400  17.670  20.920
 2957DOPG   C3A57343   2.970  17.480  21.030
 2957DOPG   C4A57344   2.530  17.310  21.150
 2957DOPG   C1B57345   3.560  17.530  20.470
 2957DOPG   D2B57346   3.520  17.230  20.730
 2957DOPG   C3B57347   3.370  17.170  21.070
 2957DOPG   C4B57348   2.950  16.880  21.190
 2958DOPG   GL057349  13.480  19.400  21.460
 2958DOPG   PO457350  12.980  19.430  21.490
 2958DOPG   GL157351  12.930  19.760  21.250
 2958DOPG   GL257352  13.250  19.800  21.300
 2958DOPG   C1A57353  12.700  19.890  20.960
 2958DOPG   D2A57354  12.340  19.670  20.750
 2958DOPG   C3A57355  12.070  19.710  20.400
 2958DOPG   C4A57356  11.570  19.640  20.240
 2958DOPG   C1B57357  13.250  19.810  20.810
 2958DOPG   D2B57358  13.030  19.780  20.460
 2958DOPG   C3B57359  12.780  19.540  20.600
 2958DOPG   C4B57360  12.650  19.300  20.890
 2959DOPG   GL057361   7.340  26.370  13.930
 2959DOPG   PO457362   7.430  26.710  13.790
 2959DOPG   GL157363   7.400  27.130  13.550
 2959DOPG   GL257364   7.610  27.260  13.430
 2959DOPG   C1A57365   7.010  27.430  13.450
 2959DOPG   D2A57366   7.130  27.800  13.490
 2959DOPG   C3A57367   7.010  28.090  13.180
 2959DOPG   C4A57368   7.130  28.290  12.870
 2959DOPG   C1B57369   7.460  27.580  13.200
 2959DOPG   D2B57370   7.470  28.020  13.160
 2959DOPG   C3B57371   7.700  28.190  12.830
 2959DOPG   C4B57372   7.870  28.520  13.010
 2960DOPG   GL057373  34.570  18.280  10.450
 2960DOPG   PO457374  34.930  17.930  10.440
 2960DOPG   GL157375  35.240  17.920  10.690
 2960DOPG   GL257376  35.490  18.190  10.650
 2960DOPG   C1A57377  35.600  17.950  11.040
 2960DOPG   D2A57378  36.020  17.830  11.170
 2960DOPG   C3A57379  36.340  18.140  11.500
 2960DOPG   C4A57380   0.330  18.100  11.840
 2960DOPG   C1B57381  35.860  18.100  10.690
 2960DOPG   D2B57382  36.190  18.320  10.980
 2960DOPG   C3B57383   0.120  18.510  10.840
 2960DOPG   C4B57384   0.470  18.820  10.700
 2961DOPG   GL057385  17.130  23.550  12.390
 2961DOPG   PO457386  16.980  23.080  12.470
 2961DOPG   GL157387  16.600  22.900  12.580
 2961DOPG   GL257388  16.400  22.930  12.400
 2961DOPG   C1A57389  16.410  22.710  12.900
 2961DOPG   D2A57390  16.060  22.600  13.250
 2961DOPG   C3A57391  15.740  22.200  13.210
 2961DOPG   C4A57392  15.700  21.800  13.550
 2961DOPG   C1B57393  15.920  22.880  12.490
 2961DOPG   D2B57394  15.770  22.580  12.830
 2961DOPG   C3B57395  15.740  22.150  12.690
 2961DOPG   C4B57396  15.640  21.720  12.580
 2962DOPG   GL057397   5.450  23.410  21.680
 2962DOPG   PO457398   5.760  23.600  21.990
 2962DOPG   GL157399   5.750  23.390  22.340
 2962DOPG   GL257400   5.410  23.160  22.430
 2962DOPG   C1A57401   5.690  23.520  22.800
 2962DOPG   D2A57402   5.430  23.790  23.060
 2962DOPG   C3A57403   5.030  23.830  22.970
 2962DOPG   C4A57404   4.620  23.740  22.740
 2962DOPG   C1B57405   5.170  23.410  22.770
 2962DOPG   D2B57406   4.800  23.340  22.950
 2962DOPG   C3B57407   4.650  23.610  23.230
 2962DOPG   C4B57408   4.480  23.860  23.540
 2963DOPG   GL057409  13.800  11.950  12.630
 2963DOPG   PO457410  13.770  12.440  12.640
 2963DOPG   GL157411  13.640  12.720  12.850
 2963DOPG   GL257412  13.730  12.750  13.260
 2963DOPG   C1A57413  13.500  13.060  13.040
 2963DOPG   D2A57414  13.280  13.430  13.200
 2963DOPG   C3A57415  13.590  13.770  13.440
 2963DOPG   C4A57416  13.490  13.910  13.810
 2963DOPG   C1B57417  13.490  12.990  13.610
 2963DOPG   D2B57418  13.190  13.190  13.970
 2963DOPG   C3B57419  13.350  13.220  14.390
 2963DOPG   C4B57420  13.380  13.040  14.690
 2964DOPG   GL057421   7.490  21.820  19.810
 2964DOPG   PO457422   7.120  21.590  19.720
 2964DOPG   GL157423   7.410  21.290  19.610
 2964DOPG   GL257424   7.700  21.390  19.760
 2964DOPG   C1A57425   7.780  21.200  19.270
 2964DOPG   D2A57426   7.980  21.040  18.850
 2964DOPG   C3A57427   7.990  20.590  18.870
 2964DOPG   C4A57428   8.300  20.330  19.250
 2964DOPG   C1B57429   7.880  20.940  19.760
 2964DOPG   D2B57430   8.020  20.690  19.410
 2964DOPG   C3B57431   8.310  20.870  19.260
 2964DOPG   C4B57432   8.460  21.090  19.100
 2965DOPG   GL057433   3.850  17.600   9.250
 2965DOPG   PO457434   3.800  18.010   9.340
 2965DOPG   GL157435   3.800  18.030   8.910
 2965DOPG   GL257436   3.810  18.380   8.930
 2965DOPG   C1A57437   3.690  17.900   8.470
 2965DOPG   D2A57438   3.560  17.980   8.080
 2965DOPG   C3A57439   3.250  18.200   7.940
 2965DOPG   C4A57440   2.960  18.320   7.650
 2965DOPG   C1B57441   3.400  18.260   8.910
 2965DOPG   D2B57442   3.110  18.030   8.660
 2965DOPG   C3B57443   2.870  17.670   8.810
 2965DOPG   C4B57444   2.510  17.160   8.780
 2966DOPG   GL057445   7.030  16.350  25.610
 2966DOPG   PO457446   6.620  16.100  25.630
 2966DOPG   GL157447   6.640  16.370  25.270
 2966DOPG   GL257448   6.220  16.280  25.130
 2966DOPG   C1A57449   6.910  16.280  24.920
 2966DOPG   D2A57450   7.380  16.160  24.840
 2966DOPG   C3A57451   7.720  16.120  25.130
 2966DOPG   C4A57452   8.110  16.050  25.330
 2966DOPG   C1B57453   5.990  16.500  24.790
 2966DOPG   D2B57454   6.150  16.630  24.360
 2966DOPG   C3B57455   6.430  16.510  24.170
 2966DOPG   C4B57456   6.800  16.300  24.170
 2967DOPG   GL057457  16.390  22.400   9.950
 2967DOPG   PO457458  16.800  22.440  10.140
 2967DOPG   GL157459  16.530  22.240  10.390
 2967DOPG   GL257460  16.370  22.080  10.260
 2967DOPG   C1A57461  16.250  22.280  10.750
 2967DOPG   D2A57462  16.350  22.130  11.200
 2967DOPG   C3A57463  16.040  21.930  11.450
 2967DOPG   C4A57464  15.740  21.620  11.440
 2967DOPG   C1B57465  15.970  21.830  10.400
 2967DOPG   D2B57466  15.890  21.290  10.420
 2967DOPG   C3B57467  15.850  21.090  10.720
 2967DOPG   C4B57468  15.890  21.160  11.210
 2968DOPG   GL057469   4.530  13.370  16.280
 2968DOPG   PO457470   4.880  13.380  16.570
 2968DOPG   GL157471   4.790  13.010  16.540
 2968DOPG   GL257472   4.730  12.770  16.310
 2968DOPG   C1A57473   4.360  12.810  16.690
 2968DOPG   D2A57474   3.920  12.660  16.620
 2968DOPG   C3A57475   3.560  12.490  16.840
 2968DOPG   C4A57476   3.180  12.530  17.040
 2968DOPG   C1B57477   4.970  12.370  16.380
 2968DOPG   D2B57478   4.900  12.090  16.700
 2968DOPG   C3B57479   5.220  11.840  16.750
 2968DOPG   C4B57480   5.570  11.680  16.600
 2969DOPG   GL057481  34.480  18.280  11.800
 2969DOPG   PO457482  34.220  18.550  12.080
 2969DOPG   GL157483  34.610  18.700  12.040
 2969DOPG   GL257484  34.700  19.090  12.040
 2969DOPG   C1A57485  35.010  18.760  12.210
 2969DOPG   D2A57486  35.500  18.680  12.060
 2969DOPG   C3A57487  35.740  18.330  11.920
 2969DOPG   C4A57488  36.140  18.230  11.940
 2969DOPG   C1B57489  35.080  19.250  12.290
 2969DOPG   D2B57490  35.030  19.550  12.700
 2969DOPG   C3B57491  35.240  19.330  13.090
 2969DOPG   C4B57492  35.120  19.360  13.440
 2970DOPG   GL057493   6.950  25.990  20.470
 2970DOPG   PO457494   6.890  25.560  20.550
 2970DOPG   GL157495   6.610  25.720  20.740
 2970DOPG   GL257496   6.440  25.910  20.520
 2970DOPG   C1A57497   6.410  25.860  21.120
 2970DOPG   D2A57498   6.270  26.270  21.470
 2970DOPG   C3A57499   6.420  26.600  21.270
 2970DOPG   C4A57500   6.500  26.940  21.090
 2970DOPG   C1B57501   6.160  26.300  20.620
 2970DOPG   D2B57502   5.740  26.400  20.760
 2970DOPG   C3B57503   5.440  26.150  21.020
 2970DOPG   C4B57504   5.130  26.090  21.400
 2971DOPG   GL057505  12.890  15.150   8.460
 2971DOPG   PO457506  12.800  14.770   8.790
 2971DOPG   GL157507  12.600  14.930   9.100
 2971DOPG   GL257508  12.490  14.530   9.150
 2971DOPG   C1A57509  12.330  15.230   9.280
 2971DOPG   D2A57510  12.010  15.520   9.050
 2971DOPG   C3A57511  11.710  15.760   9.290
 2971DOPG   C4A57512  11.530  16.190   9.480
 2971DOPG   C1B57513  12.310  14.710   9.510
 2971DOPG   D2B57514  12.350  14.610  10.010
 2971DOPG   C3B57515  12.570  14.250  10.060
 2971DOPG   C4B57516  12.740  14.070  10.340
 2972DOPG   GL057517  10.480  11.420  14.290
 2972DOPG   PO457518  10.230  11.500  14.060
 2972DOPG   GL157519  10.240  11.930  13.990
 2972DOPG   GL257520  10.480  12.150  14.180
 2972DOPG   C1A57521  10.000  12.160  13.610
 2972DOPG   D2A57522  10.050  12.430  13.270
 2972DOPG   C3A57523  10.110  12.820  13.270
 2972DOPG   C4A57524  10.050  13.290  13.190
 2972DOPG   C1B57525  10.460  12.580  14.110
 2972DOPG   D2B57526  10.550  13.020  14.130
 2972DOPG   C3B57527  10.620  13.210  14.450
 2972DOPG   C4B57528  10.250  13.440  14.640
 2973DOPG   GL057529  17.810  20.580  18.350
 2973DOPG   PO457530  17.700  20.850  18.110
 2973DOPG   GL157531  17.510  20.730  17.820
 2973DOPG   GL257532  17.640  20.660  17.510
 2973DOPG   C1A57533  17.140  20.570  17.760
 2973DOPG   D2A57534  16.890  20.350  17.470
 2973DOPG   C3A57535  16.560  20.430  17.400
 2973DOPG   C4A57536  16.160  19.980  17.340
 2973DOPG   C1B57537  17.280  20.540  17.120
 2973DOPG   D2B57538  16.880  20.500  17.000
 2973DOPG   C3B57539  16.800  20.340  16.670
 2973DOPG   C4B57540  16.520  20.260  16.360
 2974DOPG   GL057541  18.710  19.810  11.000
 2974DOPG   PO457542  18.360  19.630  11.280
 2974DOPG   GL157543  18.180  19.700  11.650
 2974DOPG   GL257544  17.890  19.680  11.500
 2974DOPG   C1A57545  17.890  20.090  11.840
 2974DOPG   D2A57546  17.540  20.360  12.050
 2974DOPG   C3A57547  17.410  20.790  11.970
 2974DOPG   C4A57548  17.200  21.210  12.060
 2974DOPG   C1B57549  17.590  19.420  11.430
 2974DOPG   D2B57550  17.340  19.100  11.610
 2974DOPG   C3B57551  16.930  18.770  11.470
 2974DOPG   C4B57552  16.550  18.930  11.470
 2975DOPG   GL057553  14.700  12.340  13.730
 2975DOPG   PO457554  15.000  12.410  13.990
 2975DOPG   GL157555  14.820  12.850  14.040
 2975DOPG   GL257556  14.600  13.010  13.740
 2975DOPG   C1A57557  15.000  13.250  13.940
 2975DOPG   D2A57558  15.380  13.570  13.930
 2975DOPG   C3A57559  15.270  14.000  13.790
 2975DOPG   C4A57560  14.850  14.240  13.670
 2975DOPG   C1B57561  14.490  13.390  14.030
 2975DOPG   D2B57562  14.190  13.480  14.440
 2975DOPG   C3B57563  14.260  13.810  14.790
 2975DOPG   C4B57564  14.060  14.080  15.090
 2976DOPG   GL057565   9.450  20.550   8.060
 2976DOPG   PO457566   9.160  20.390   8.420
 2976DOPG   GL157567   9.290  20.110   8.830
 2976DOPG   GL257568   9.530  20.300   8.870
 2976DOPG   C1A57569   9.680  19.870   8.910
 2976DOPG   D2A57570  10.080  19.820   8.850
 2976DOPG   C3A57571  10.390  20.130   9.030
 2976DOPG   C4A57572  10.760  20.090   9.220
 2976DOPG   C1B57573   9.860  20.330   9.210
 2976DOPG   D2B57574  10.180  20.430   9.440
 2976DOPG   C3B57575  10.230  20.760   9.630
 2976DOPG   C4B57576  10.160  21.200   9.870
 2977DOPG   GL057577  11.320  12.340  10.720
 2977DOPG   PO457578  11.460  12.650  11.010
 2977DOPG   GL157579  11.490  13.010  11.120
 2977DOPG   GL257580  11.630  13.280  10.870
 2977DOPG   C1A57581  11.160  13.220  11.320
 2977DOPG   D2A57582  10.770  13.360  11.620
 2977DOPG   C3A57583  10.710  13.730  11.860
 2977DOPG   C4A57584  10.750  14.110  12.190
 2977DOPG   C1B57585  11.950  13.670  10.850
 2977DOPG   D2B57586  12.030  13.900  11.220
 2977DOPG   C3B57587  12.260  13.890  11.450
 2977DOPG   C4B57588  12.530  14.050  11.470
 2978DOPG   GL057589  13.940  20.720   7.630
 2978DOPG   PO457590  13.780  20.550   7.380
 2978DOPG   GL157591  14.000  20.490   6.960
 2978DOPG   GL257592  13.860  20.430   6.700
 2978DOPG   C1A57593  14.350  20.500   6.600
 2978DOPG   D2A57594  14.460  20.550   6.140
 2978DOPG   C3A57595  14.270  20.640   5.770
 2978DOPG   C4A57596  14.090  20.710   5.410
 2978DOPG   C1B57597  13.960  20.680   6.450
 2978DOPG   D2B57598  13.830  20.980   6.160
 2978DOPG   C3B57599  14.240  21.140   5.900
 2978DOPG   C4B57600  14.460  21.040   5.520
 2979DOPG   GL057601   7.930   9.200  21.380
 2979DOPG   PO457602   7.960   9.570  21.130
 2979DOPG   GL157603   8.280   9.720  20.800
 2979DOPG   GL257604   8.620   9.670  20.830
 2979DOPG   C1A57605   8.180  10.080  20.610
 2979DOPG   D2A57606   8.430  10.360  20.350
 2979DOPG   C3A57607   8.850  10.540  20.540
 2979DOPG   C4A57608   9.180  10.250  20.520
 2979DOPG   C1B57609   9.020   9.880  20.830
 2979DOPG   D2B57610   9.340  10.110  21.030
 2979DOPG   C3B57611   9.590  10.440  20.710
 2979DOPG   C4B57612   9.900  10.300  20.450
 2980DOPG   GL057613  12.340  19.590   7.490
 2980DOPG   PO457614  12.250  19.190   7.660
 2980DOPG   GL157615  12.370  19.080   7.990
 2980DOPG   GL257616  12.220  19.270   8.170
 2980DOPG   C1A57617  12.570  18.830   8.280
 2980DOPG   D2A57618  12.380  18.440   8.430
 2980DOPG   C3A57619  12.050  18.580   8.450
 2980DOPG   C4A57620  11.700  18.780   8.360
 2980DOPG   C1B57621  12.320  19.160   8.570
 2980DOPG   D2B57622  12.560  19.210   9.000
 2980DOPG   C3B57623  12.800  18.900   9.260
 2980DOPG   C4B57624  12.720  18.940   9.680
 2981DOPG   GL057625   7.290  24.240  18.120
 2981DOPG   PO457626   7.110  23.760  18.050
 2981DOPG   GL157627   7.280  23.530  17.930
 2981DOPG   GL257628   7.610  23.420  18.000
 2981DOPG   C1A57629   7.230  23.110  17.940
 2981DOPG   D2A57630   7.600  22.910  17.650
 2981DOPG   C3A57631   7.660  22.910  17.240
 2981DOPG   C4A57632   8.040  22.710  17.020
 2981DOPG   C1B57633   7.570  23.500  17.580
 2981DOPG   D2B57634   7.690  23.770  17.250
 2981DOPG   C3B57635   7.900  23.640  16.870
 2981DOPG   C4B57636   8.270  23.550  16.750
 2982DOPG   GL057637   9.980  23.000  20.750
 2982DOPG   PO457638  10.350  23.300  20.810
 2982DOPG   GL157639  10.300  23.030  20.370
 2982DOPG   GL257640  10.300  22.720  20.520
 2982DOPG   C1A57641  10.220  22.800  19.990
 2982DOPG   D2A57642  10.300  22.300  19.900
 2982DOPG   C3A57643  10.370  22.100  19.450
 2982DOPG   C4A57644  10.660  21.820  19.310
 2982DOPG   C1B57645  10.690  22.750  20.320
 2982DOPG   D2B57646  10.800  22.400  19.970
 2982DOPG   C3B57647  10.670  22.480  19.520
 2982DOPG   C4B57648  10.810  22.280  19.200
 2983DOPG   GL057649  15.220  23.900  11.890
 2983DOPG   PO457650  15.120  24.150  11.440
 2983DOPG   GL157651  14.690  24.120  11.760
 2983DOPG   GL257652  14.710  24.450  11.840
 2983DOPG   C1A57653  14.250  24.140  11.880
 2983DOPG   D2A57654  14.020  24.000  12.270
 2983DOPG   C3A57655  14.220  23.900  12.620
 2983DOPG   C4A57656  14.460  23.790  12.960
 2983DOPG   C1B57657  14.400  24.760  11.980
 2983DOPG   D2B57658  14.060  24.550  11.750
 2983DOPG   C3B57659  13.800  24.380  12.080
 2983DOPG   C4B57660  13.390  24.280  11.960
 2984DOPG   GL057661   4.550  15.020  10.740
 2984DOPG   PO457662   4.550  14.510  10.640
 2984DOPG   GL157663   4.240  14.190  10.500
 2984DOPG   GL257664   3.960  13.870  10.610
 2984DOPG   C1A57665   4.090  13.980  10.030
 2984DOPG   D2A57666   3.980  13.760   9.640
 2984DOPG   C3A57667   4.050  14.080   9.330
 2984DOPG   C4A57668   4.030  14.310   8.950
 2984DOPG   C1B57669   3.840  13.430  10.780
 2984DOPG   D2B57670   3.720  13.020  10.840
 2984DOPG   C3B57671   3.210  13.040  10.950
 2984DOPG   C4B57672   2.790  13.050  10.860
 2985DOPG   GL057673   4.150  12.750  22.570
 2985DOPG   PO457674   4.360  12.740  22.230
 2985DOPG   GL157675   4.750  12.840  22.100
 2985DOPG   GL257676   4.850  12.680  21.940
 2985DOPG   C1A57677   4.850  13.180  21.900
 2985DOPG   D2A57678   5.240  13.540  21.700
 2985DOPG   C3A57679   5.110  13.940  21.550
 2985DOPG   C4A57680   4.940  14.370  21.470
 2985DOPG   C1B57681   5.110  12.650  21.640
 2985DOPG   D2B57682   5.450  12.640  21.460
 2985DOPG   C3B57683   5.480  12.800  21.100
 2985DOPG   C4B57684   5.640  12.850  20.710
 2986DOPG   GL057685  22.190  26.440  14.460
 2986DOPG   PO457686  22.180  25.910  14.350
 2986DOPG   GL157687  21.820  25.690  14.230
 2986DOPG   GL257688  22.090  25.440  14.140
 2986DOPG   C1A57689  21.490  25.490  14.410
 2986DOPG   D2A57690  21.210  25.210  14.160
 2986DOPG   C3A57691  20.640  25.080  14.220
 2986DOPG   C4A57692  20.410  24.690  14.160
 2986DOPG   C1B57693  21.760  25.210  14.130
 2986DOPG   D2B57694  21.520  24.810  14.200
 2986DOPG   C3B57695  21.060  24.650  14.060
 2986DOPG   C4B57696  20.810  24.460  14.230
 2987DOPG   GL057697  16.370  25.000  13.980
 2987DOPG   PO457698  16.170  24.540  13.760
 2987DOPG   GL157699  15.830  24.300  13.830
 2987DOPG   GL257700  15.730  24.060  13.580
 2987DOPG   C1A57701  15.440  24.360  14.060
 2987DOPG   D2A57702  15.090  24.210  14.240
 2987DOPG   C3A57703  14.940  23.840  14.240
 2987DOPG   C4A57704  15.220  23.460  14.250
 2987DOPG   C1B57705  15.660  23.630  13.550
 2987DOPG   D2B57706  15.290  23.350  13.530
 2987DOPG   C3B57707  14.900  23.380  13.640
 2987DOPG   C4B57708  14.660  23.630  13.660
 2988DOPG   GL057709   5.670  28.630  22.460
 2988DOPG   PO457710   5.880  28.320  22.390
 2988DOPG   GL157711   6.090  28.130  22.200
 2988DOPG   GL257712   6.140  28.280  21.910
 2988DOPG   C1A57713   6.140  27.740  22.200
 2988DOPG   D2A57714   5.980  27.300  22.250
 2988DOPG   C3A57715   6.150  26.910  22.390
 2988DOPG   C4A57716   6.140  26.480  22.450
 2988DOPG   C1B57717   6.180  27.870  21.750
 2988DOPG   D2B57718   6.230  27.480  21.670
 2988DOPG   C3B57719   6.470  27.360  21.440
 2988DOPG   C4B57720   6.950  27.320  21.360
 2989DOPG   GL057721  17.380  18.700  10.430
 2989DOPG   PO457722  17.810  18.970  10.450
 2989DOPG   GL157723  17.730  18.950  10.890
 2989DOPG   GL257724  17.620  18.950  11.220
 2989DOPG   C1A57725  17.270  18.670  10.960
 2989DOPG   D2A57726  16.810  18.600  10.950
 2989DOPG   C3A57727  16.820  18.350  11.250
 2989DOPG   C4A57728  16.930  17.920  11.470
 2989DOPG   C1B57729  17.640  18.600  11.560
 2989DOPG   D2B57730  17.480  18.340  11.990
 2989DOPG   C3B57731  17.540  17.890  12.050
 2989DOPG   C4B57732  17.620  17.660  12.360
 2990DOPG   GL057733  11.200  25.830  18.480
 2990DOPG   PO457734  11.390  25.680  18.270
 2990DOPG   GL157735  11.050  25.480  18.060
 2990DOPG   GL257736  11.190  25.180  18.150
 2990DOPG   C1A57737  10.720  25.290  18.000
 2990DOPG   D2A57738  10.760  24.910  17.820
 2990DOPG   C3A57739  11.140  24.690  17.640
 2990DOPG   C4A57740  11.350  24.640  17.320
 2990DOPG   C1B57741  11.390  24.810  18.050
 2990DOPG   D2B57742  11.470  24.400  17.870
 2990DOPG   C3B57743  11.660  24.060  18.060
 2990DOPG   C4B57744  11.580  23.680  17.870
 2991DOPG   GL057745   7.210  16.650   9.890
 2991DOPG   PO457746   7.230  16.530  10.270
 2991DOPG   GL157747   7.540  16.920  10.300
 2991DOPG   GL257748   7.810  16.750  10.360
 2991DOPG   C1A57749   7.720  17.290  10.460
 2991DOPG   D2A57750   7.760  17.610  10.360
 2991DOPG   C3A57751   8.130  17.800  10.300
 2991DOPG   C4A57752   8.370  18.030  10.650
 2991DOPG   C1B57753   7.910  16.950  10.710
 2991DOPG   D2B57754   7.930  17.230  11.060
 2991DOPG   C3B57755   7.740  17.560  10.920
 2991DOPG   C4B57756   7.790  17.920  10.800
 2992DOPG   GL057757   9.260  11.070  15.570
 2992DOPG   PO457758   9.000  10.750  15.590
 2992DOPG   GL157759   8.770  10.400  15.630
 2992DOPG   GL257760   8.410  10.540  15.530
 2992DOPG   C1A57761   8.610  10.060  15.800
 2992DOPG   D2A57762   8.370   9.770  16.130
 2992DOPG   C3A57763   8.040   9.920  16.340
 2992DOPG   C4A57764   7.690   9.740  16.510
 2992DOPG   C1B57765   8.160  10.180  15.660
 2992DOPG   D2B57766   7.700  10.020  15.750
 2992DOPG   C3B57767   7.450   9.710  16.040
 2992DOPG   C4B57768   7.360   9.340  16.160
 2993DOPG   GL057769   6.170  27.770   8.200
 2993DOPG   PO457770   6.400  28.200   8.200
 2993DOPG   GL157771   6.280  27.970   8.650
 2993DOPG   GL257772   6.410  27.920   8.940
 2993DOPG   C1A57773   6.110  27.530   8.870
 2993DOPG   D2A57774   6.270  27.120   9.140
 2993DOPG   C3A57775   6.740  27.060   9.060
 2993DOPG   C4A57776   7.080  26.780   8.980
 2993DOPG   C1B57777   6.600  27.540   9.080
 2993DOPG   D2B57778   6.900  27.360   9.490
 2993DOPG   C3B57779   7.060  26.960   9.510
 2993DOPG   C4B57780   6.970  26.570   9.520
 2994DOPG   GL057781  14.260  26.040  17.080
 2994DOPG   PO457782  13.990  25.780  16.890
 2994DOPG   GL157783  13.860  25.400  16.900
 2994DOPG   GL257784  13.590  25.500  17.090
 2994DOPG   C1A57785  14.000  24.930  17.010
 2994DOPG   D2A57786  13.910  24.740  17.350
 2994DOPG   C3A57787  14.170  24.380  17.320
 2994DOPG   C4A57788  14.260  23.990  17.320
 2994DOPG   C1B57789  13.550  25.020  17.080
 2994DOPG   D2B57790  13.350  24.630  17.300
 2994DOPG   C3B57791  13.310  24.600  17.770
 2994DOPG   C4B57792  13.030  24.290  18.010
 2995DOPG   GL057793  11.000  19.820   7.490
 2995DOPG   PO457794  10.750  19.570   7.660
 2995DOPG   GL157795  10.730  19.610   8.040
 2995DOPG   GL257796  11.010  19.820   8.090
 2995DOPG   C1A57797  10.800  19.500   8.490
 2995DOPG   D2A57798  10.630  19.370   8.880
 2995DOPG   C3A57799  10.480  19.680   9.200
 2995DOPG   C4A57800  10.290  19.940   9.470
 2995DOPG   C1B57801  11.280  19.890   8.470
 2995DOPG   D2B57802  11.560  19.790   8.800
 2995DOPG   C3B57803  11.480  19.550   9.190
 2995DOPG   C4B57804  11.270  19.240   9.520
 2996DOPG   GL057805  35.400  20.140   9.240
 2996DOPG   PO457806  35.440  20.040   9.590
 2996DOPG   GL157807  35.810  19.980   9.680
 2996DOPG   GL257808  35.840  20.210  10.020
 2996DOPG   C1A57809  36.140  19.800   9.860
 2996DOPG   D2A57810   0.170  19.610   9.990
 2996DOPG   C3A57811   0.320  19.860  10.320
 2996DOPG   C4A57812   0.380  20.100  10.670
 2996DOPG   C1B57813  36.330  20.160  10.190
 2996DOPG   D2B57814   0.360  20.340  10.120
 2996DOPG   C3B57815   0.270  20.790  10.200
 2996DOPG   C4B57816   0.060  21.160  10.080
 2997DOPG   GL057817   5.540  20.390  14.690
 2997DOPG   PO457818   5.330  20.050  15.000
 2997DOPG   GL157819   5.770  20.120  15.060
 2997DOPG   GL257820   5.670  20.210  15.430
 2997DOPG   C1A57821   5.980  20.530  15.080
 2997DOPG   D2A57822   6.250  20.720  15.390
 2997DOPG   C3A57823   6.730  20.480  15.460
 2997DOPG   C4A57824   6.980  20.220  15.670
 2997DOPG   C1B57825   5.920  19.720  15.440
 2997DOPG   D2B57826   6.150  19.420  15.630
 2997DOPG   C3B57827   6.540  19.510  15.770
 2997DOPG   C4B57828   6.900  19.660  15.570
 2998DOPG   GL057829   8.770  18.070  20.910
 2998DOPG   PO457830   9.260  18.070  20.990
 2998DOPG   GL157831   9.520  18.110  20.700
 2998DOPG   GL257832   9.730  18.330  20.760
 2998DOPG   C1A57833   9.670  18.290  20.250
 2998DOPG   D2A57834   9.810  18.240  19.820
 2998DOPG   C3A57835   9.620  18.560  19.750
 2998DOPG   C4A57836   9.420  18.640  19.420
 2998DOPG   C1B57837  10.170  18.610  20.590
 2998DOPG   D2B57838  10.260  18.980  20.500
 2998DOPG   C3B57839  10.250  19.160  20.040
 2998DOPG   C4B57840  10.390  19.280  19.620
 2999DOPG   GL057841   9.670  11.410  15.730
 2999DOPG   PO457842   9.720  10.920  15.540
 2999DOPG   GL157843   9.630  10.470  15.630
 2999DOPG   GL257844   9.300  10.330  15.710
 2999DOPG   C1A57845   9.720  10.040  15.850
 2999DOPG   D2A57846   9.610   9.610  15.800
 2999DOPG   C3A57847   9.970   9.250  15.800
 2999DOPG   C4A57848   9.900   8.950  15.550
 2999DOPG   C1B57849   9.180   9.810  15.730
 2999DOPG   D2B57850   8.760   9.600  15.820
 2999DOPG   C3B57851   8.650   9.220  15.660
 2999DOPG   C4B57852   8.540   8.830  15.760
 3000DOPG   GL057853  11.930  26.050  14.180
 3000DOPG   PO457854  11.810  25.760  13.780
 3000DOPG   GL157855  12.230  25.590  13.740
 3000DOPG   GL257856  12.380  25.380  13.470
 3000DOPG   C1A57857  12.230  25.230  14.030
 3000DOPG   D2A57858  12.060  25.100  14.310
 3000DOPG   C3A57859  12.190  24.700  14.450
 3000DOPG   C4A57860  12.090  24.360  14.670
 3000DOPG   C1B57861  12.580  25.040  13.660
 3000DOPG   D2B57862  12.510  24.780  14.090
 3000DOPG   C3B57863  12.820  24.480  14.410
 3000DOPG   C4B57864  13.250  24.290  14.400
 3001DOPG   GL057865   8.040  22.520  10.350
 3001DOPG   PO457866   7.970  22.020  10.480
 3001DOPG   GL157867   8.020  21.970  10.970
 3001DOPG   GL257868   7.940  21.770  11.330
 3001DOPG   C1A57869   8.390  21.870  11.190
 3001DOPG   D2A57870   8.770  22.280  11.240
 3001DOPG   C3A57871   9.190  22.180  11.400
 3001DOPG   C4A57872   9.580  22.010  11.630
 3001DOPG   C1B57873   8.150  21.460  11.100
 3001DOPG   D2B57874   8.300  21.150  10.800
 3001DOPG   C3B57875   8.290  20.750  10.870
 3001DOPG   C4B57876   8.580  20.450  11.240
 3002DOPG   GL057877  35.800  15.470   9.500
 3002DOPG   PO457878  36.170  15.500   9.400
 3002DOPG   GL157879   0.170  15.420   9.650
 3002DOPG   GL257880  36.310  15.620   9.960
 3002DOPG   C1A57881   0.690  15.410   9.780
 3002DOPG   D2A57882   1.130  15.450   9.740
 3002DOPG   C3A57883   1.350  15.820   9.880
 3002DOPG   C4A57884   1.580  16.130  10.140
 3002DOPG   C1B57885   0.360  15.520  10.120
 3002DOPG   D2B57886   0.600  15.470  10.440
 3002DOPG   C3B57887   0.550  15.430  10.880
 3002DOPG   C4B57888   0.560  15.200  11.280
 3003DOPG   GL057889   6.610  21.600  19.140
 3003DOPG   PO457890   6.450  21.210  18.960
 3003DOPG   GL157891   6.800  20.910  19.110
 3003DOPG   GL257892   7.090  21.040  19.000
 3003DOPG   C1A57893   7.320  20.780  19.340
 3003DOPG   D2A57894   7.710  20.350  19.250
 3003DOPG   C3A57895   7.940  20.030  19.420
 3003DOPG   C4A57896   8.000  19.720  19.100
 3003DOPG   C1B57897   7.450  21.320  18.720
 3003DOPG   D2B57898   7.700  21.240  18.410
 3003DOPG   C3B57899   7.880  20.950  18.340
 3003DOPG   C4B57900   8.270  20.630  18.390
 3004DOPG   GL057901  13.530  24.420  19.530
 3004DOPG   PO457902  13.480  24.160  19.860
 3004DOPG   GL157903  13.180  24.020  19.580
 3004DOPG   GL257904  13.250  23.710  19.690
 3004DOPG   C1A57905  13.130  23.670  19.210
 3004DOPG   D2A57906  12.960  23.370  18.840
 3004DOPG   C3A57907  12.740  23.500  18.520
 3004DOPG   C4A57908  12.610  23.220  18.160
 3004DOPG   C1B57909  13.410  23.310  19.420
 3004DOPG   D2B57910  13.640  23.120  19.140
 3004DOPG   C3B57911  13.480  22.990  18.780
 3004DOPG   C4B57912  13.180  23.070  18.540
 3005DOPG   GL057913  15.650  16.600   7.870
 3005DOPG   PO457914  15.440  16.950   8.000
 3005DOPG   GL157915  15.380  16.940   7.640
 3005DOPG   GL257916  15.420  17.090   7.250
 3005DOPG   C1A57917  15.670  16.590   7.400
 3005DOPG   D2A57918  15.680  16.220   7.190
 3005DOPG   C3A57919  15.830  16.110   6.770
 3005DOPG   C4A57920  16.190  15.960   6.500
 3005DOPG   C1B57921  15.550  17.090   6.760
 3005DOPG   D2B57922  15.390  17.200   6.360
 3005DOPG   C3B57923  15.390  16.950   6.010
 3005DOPG   C4B57924  15.210  16.770   5.710
 3006DOPG   GL057925   5.100  29.490  10.940
 3006DOPG   PO457926   5.320  29.340  10.610
 3006DOPG   GL157927   5.530  29.020  10.820
 3006DOPG   GL257928   5.620  28.710  10.610
 3006DOPG   C1A57929   5.600  28.770  11.140
 3006DOPG   D2A57930   5.440  28.630  11.510
 3006DOPG   C3A57931   5.020  28.420  11.660
 3006DOPG   C4A57932   4.870  28.380  11.950
 3006DOPG   C1B57933   5.870  28.470  10.790
 3006DOPG   D2B57934   5.820  28.220  11.100
 3006DOPG   C3B57935   5.380  28.180  11.340
 3006DOPG   C4B57936   5.350  28.050  11.760
 3007DOPG   GL057937   5.230  19.390  13.870
 3007DOPG   PO457938   5.650  19.330  13.650
 3007DOPG   GL157939   5.940  19.110  13.760
 3007DOPG   GL257940   6.050  19.360  13.940
 3007DOPG   C1A57941   6.030  18.720  13.860
 3007DOPG   D2A57942   6.080  18.340  14.020
 3007DOPG   C3A57943   6.360  18.170  14.360
 3007DOPG   C4A57944   6.390  17.820  14.590
 3007DOPG   C1B57945   6.280  19.130  14.130
 3007DOPG   D2B57946   6.590  18.950  14.450
 3007DOPG   C3B57947   6.930  18.560  14.280
 3007DOPG   C4B57948   7.280  18.330  13.990
 3008DOPG   GL057949   9.770  26.700  18.790
 3008DOPG   PO457950   9.790  27.090  18.810
 3008DOPG   GL157951   9.840  27.330  19.170
 3008DOPG   GL257952   9.610  27.410  19.340
 3008DOPG   C1A57953  10.110  27.600  19.320
 3008DOPG   D2A57954  10.060  27.990  19.550
 3008DOPG   C3A57955   9.930  28.290  19.280
 3008DOPG   C4A57956   9.810  28.440  18.890
 3008DOPG   C1B57957   9.670  27.630  19.650
 3008DOPG   D2B57958   9.630  27.950  20.050
 3008DOPG   C3B57959   9.550  28.350  19.960
 3008DOPG   C4B57960   9.590  28.760  20.120
 3009DOPG   GL057961  14.240  21.610   7.970
 3009DOPG   PO457962  14.040  21.700   7.610
 3009DOPG   GL157963  14.430  21.630   7.240
 3009DOPG   GL257964  14.820  21.520   7.160
 3009DOPG   C1A57965  14.560  22.050   6.960
 3009DOPG   D2A57966  14.420  22.310   6.600
 3009DOPG   C3A57967  14.590  22.370   6.270
 3009DOPG   C4A57968  14.740  22.550   5.880
 3009DOPG   C1B57969  14.920  21.770   6.880
 3009DOPG   D2B57970  15.230  21.850   6.550
 3009DOPG   C3B57971  15.100  22.070   6.250
 3009DOPG   C4B57972  14.800  22.010   5.960
 3010DOPG   GL057973  13.740  11.900  17.120
 3010DOPG   PO457974  13.640  12.300  16.810
 3010DOPG   GL157975  13.480  12.550  16.550
 3010DOPG   GL257976  13.440  12.910  16.640
 3010DOPG   C1A57977  13.150  12.560  16.340
 3010DOPG   D2A57978  12.720  12.700  16.070
 3010DOPG   C3A57979  12.410  12.550  15.850
 3010DOPG   C4A57980  12.530  12.700  15.450
 3010DOPG   C1B57981  13.370  13.350  16.530
 3010DOPG   D2B57982  12.980  13.540  16.330
 3010DOPG   C3B57983  12.680  13.310  16.220
 3010DOPG   C4B57984  12.480  13.080  15.940
 3011DOPG   GL057985   4.940  25.600  19.070
 3011DOPG   PO457986   4.960  25.760  18.670
 3011DOPG   GL157987   4.850  26.050  18.920
 3011DOPG   GL257988   4.970  26.320  18.990
 3011DOPG   C1A57989   4.770  25.960  19.350
 3011DOPG   D2A57990   4.700  25.610  19.590
 3011DOPG   C3A57991   4.810  25.740  19.980
 3011DOPG   C4A57992   4.770  26.030  20.380
 3011DOPG   C1B57993   4.880  26.810  18.940
 3011DOPG   D2B57994   4.450  27.060  18.740
 3011DOPG   C3B57995   4.440  27.410  18.530
 3011DOPG   C4B57996   4.620  27.870  18.400
 3012DOPG   GL057997   6.560  18.610   8.070
 3012DOPG   PO457998   6.120  18.590   8.200
 3012DOPG   GL157999   6.180  18.580   7.680
 3012DOPG   GL258000   6.480  18.560   7.570
 3012DOPG   C1A58001   5.990  18.780   7.340
 3012DOPG   D2A58002   5.730  18.650   7.030
 3012DOPG   C3A58003   5.800  18.780   6.620
 3012DOPG   C4A58004   5.530  19.070   6.380
 3012DOPG   C1B58005   6.330  18.470   7.160
 3012DOPG   D2B58006   6.270  18.480   6.700
 3012DOPG   C3B58007   6.140  18.110   6.490
 3012DOPG   C4B58008   5.910  17.820   6.280
 3013DOPG   GL058009  34.190  19.470  13.190
 3013DOPG   PO458010  34.240  19.090  13.450
 3013DOPG   GL158011  34.660  19.000  13.700
 3013DOPG   GL258012  34.700  18.700  13.820
 3013DOPG   C1A58013  35.220  19.040  13.820
 3013DOPG   D2A58014  35.680  19.220  13.890
 3013DOPG   C3A58015  35.740  19.350  14.330
 3013DOPG   C4A58016  35.920  19.650  14.540
 3013DOPG   C1B58017  35.030  18.510  13.720
 3013DOPG   D2B58018  35.430  18.480  13.540
 3013DOPG   C3B58019  35.790  18.730  13.730
 3013DOPG   C4B58020  36.150  18.680  13.970
 3014DOPG   GL058021   7.780  25.980  19.880
 3014DOPG   PO458022   7.840  26.290  19.540
 3014DOPG   GL158023   7.750  26.580  19.750
 3014DOPG   GL258024   7.710  26.490  20.090
 3014DOPG   C1A58025   7.640  27.040  19.970
 3014DOPG   D2A58026   7.400  27.330  19.830
 3014DOPG   C3A58027   7.110  27.680  19.690
 3014DOPG   C4A58028   6.780  27.820  19.410
 3014DOPG   C1B58029   7.610  26.630  20.540
 3014DOPG   D2B58030   7.650  26.990  20.890
 3014DOPG   C3B58031   8.010  26.920  21.240
 3014DOPG   C4B58032   8.080  26.580  21.470
 3015DOPG   GL058033  18.440  16.370  17.900
 3015DOPG   PO458034  18.660  16.760  17.910
 3015DOPG   GL158035  19.080  16.960  18.060
 3015DOPG   GL258036  19.120  16.730  18.310
 3015DOPG   C1A58037  19.510  17.090  17.980
 3015DOPG   D2A58038  19.940  17.170  17.970
 3015DOPG   C3A58039  20.010  17.150  18.320
 3015DOPG   C4A58040  20.190  17.340  18.750
 3015DOPG   C1B58041  19.560  16.740  18.460
 3015DOPG   D2B58042  19.950  16.640  18.600
 3015DOPG   C3B58043  20.140  16.840  18.960
 3015DOPG   C4B58044  19.990  17.150  19.220
 3016DOPG   GL058045  13.320  13.810  19.390
 3016DOPG   PO458046  13.050  13.820  19.030
 3016DOPG   GL158047  12.980  13.900  18.710
 3016DOPG   GL258048  13.170  14.200  18.690
 3016DOPG   C1A58049  12.690  14.190  18.540
 3016DOPG   D2A58050  12.400  14.320  18.180
 3016DOPG   C3A58051  12.470  14.500  17.720
 3016DOPG   C4A58052  12.690  14.850  17.730
 3016DOPG   C1B58053  13.180  14.510  18.390
 3016DOPG   D2B58054  13.380  14.490  17.970
 3016DOPG   C3B58055  13.200  14.760  17.600
 3016DOPG   C4B58056  12.970  14.670  17.230
 3017DOPG   GL058057  13.560  20.590  21.400
 3017DOPG   PO458058  13.690  21.000  21.150
 3017DOPG   GL158059  13.370  20.890  20.990
 3017DOPG   GL258060  13.130  21.100  20.900
 3017DOPG   C1A58061  13.350  20.830  20.500
 3017DOPG   D2A58062  13.590  21.050  20.140
 3017DOPG   C3A58063  14.030  21.150  20.170
 3017DOPG   C4A58064  14.420  21.130  20.020
 3017DOPG   C1B58065  12.920  20.710  20.740
 3017DOPG   D2B58066  13.030  20.520  20.300
 3017DOPG   C3B58067  12.970  20.160  20.080
 3017DOPG   C4B58068  12.770  19.800  19.880
 3018DOPG   GL058069   6.360  15.910   9.050
 3018DOPG   PO458070   5.940  16.120   8.980
 3018DOPG   GL158071   5.760  16.030   8.560
 3018DOPG   GL258072   5.760  15.830   8.270
 3018DOPG   C1A58073   5.370  16.150   8.280
 3018DOPG   D2A58074   5.230  16.410   8.030
 3018DOPG   C3A58075   5.480  16.300   7.760
 3018DOPG   C4A58076   5.620  16.180   7.360
 3018DOPG   C1B58077   5.530  15.790   7.900
 3018DOPG   D2B58078   5.250  15.810   7.530
 3018DOPG   C3B58079   5.110  16.240   7.350
 3018DOPG   C4B58080   5.190  16.650   6.940
 3019DOPG   GL058081   8.340  12.590  12.150
 3019DOPG   PO458082   8.520  12.290  12.410
 3019DOPG   GL158083   8.540  12.540  12.730
 3019DOPG   GL258084   8.760  12.480  12.900
 3019DOPG   C1A58085   8.680  12.930  12.680
 3019DOPG   D2A58086   8.650  13.240  12.930
 3019DOPG   C3A58087   8.880  13.670  12.860
 3019DOPG   C4A58088   9.080  14.040  13.000
 3019DOPG   C1B58089   8.830  12.460  13.360
 3019DOPG   D2B58090   8.890  12.850  13.630
 3019DOPG   C3B58091   9.060  12.550  13.940
 3019DOPG   C4B58092   9.240  12.190  14.140
 3020DOPG   GL058093   4.920  28.180   8.960
 3020DOPG   PO458094   4.730  27.920   8.780
 3020DOPG   GL158095   4.990  27.680   9.130
 3020DOPG   GL258096   5.210  27.370   8.980
 3020DOPG   C1A58097   5.060  27.430   9.520
 3020DOPG   D2A58098   5.020  27.310   9.910
 3020DOPG   C3A58099   4.670  27.200  10.030
 3020DOPG   C4A58100   4.480  27.270  10.370
 3020DOPG   C1B58101   5.570  27.290   9.270
 3020DOPG   D2B58102   5.660  27.310   9.690
 3020DOPG   C3B58103   5.460  26.950   9.830
 3020DOPG   C4B58104   5.210  26.610   9.930
 3021DOPG   GL058105  16.630  20.420   9.440
 3021DOPG   PO458106  16.730  20.360   9.800
 3021DOPG   GL158107  16.630  20.350  10.150
 3021DOPG   GL258108  16.600  20.650  10.170
 3021DOPG   C1A58109  16.340  20.310  10.580
 3021DOPG   D2A58110  15.920  20.400  10.690
 3021DOPG   C3A58111  15.800  20.640  11.080
 3021DOPG   C4A58112  15.670  20.740  11.480
 3021DOPG   C1B58113  16.190  20.790  10.360
 3021DOPG   D2B58114  15.710  20.690  10.310
 3021DOPG   C3B58115  15.440  20.650  10.480
 3021DOPG   C4B58116  15.260  20.810  10.890
 3022DOPG   GL058117  12.240  24.400  10.130
 3022DOPG   PO458118  12.030  24.490  10.510
 3022DOPG   GL158119  12.280  23.990  10.480
 3022DOPG   GL258120  12.580  24.060  10.480
 3022DOPG   C1A58121  12.270  23.700  10.710
 3022DOPG   D2A58122  12.370  23.290  10.780
 3022DOPG   C3A58123  12.630  22.990  10.780
 3022DOPG   C4A58124  12.830  22.670  10.910
 3022DOPG   C1B58125  12.740  23.790  10.780
 3022DOPG   D2B58126  12.820  23.460  11.010
 3022DOPG   C3B58127  12.530  23.540  11.380
 3022DOPG   C4B58128  12.580  23.690  11.730
 3023DOPG   GL058129   8.010  14.400   9.810
 3023DOPG   PO458130   8.290  14.580  10.130
 3023DOPG   GL158131   8.410  14.720  10.570
 3023DOPG   GL258132   8.660  14.860  10.460
 3023DOPG   C1A58133   8.520  15.100  10.880
 3023DOPG   D2A58134   8.900  15.310  10.920
 3023DOPG   C3A58135   9.350  15.150  11.020
 3023DOPG   C4A58136   9.450  15.180  11.430
 3023DOPG   C1B58137   8.950  14.830  10.790
 3023DOPG   D2B58138   8.970  14.820  11.250
 3023DOPG   C3B58139   9.060  14.450  11.400
 3023DOPG   C4B58140   9.300  14.260  11.660
 3024DOPG   GL058141  21.820  26.070  13.510
 3024DOPG   PO458142  21.770  25.720  13.730
 3024DOPG   GL158143  21.460  25.370  13.650
 3024DOPG   GL258144  21.260  25.580  13.770
 3024DOPG   C1A58145  21.180  24.990  13.560
 3024DOPG   D2A58146  20.730  24.790  13.760
 3024DOPG   C3A58147  20.370  25.040  13.760
 3024DOPG   C4A58148  20.040  25.290  13.700
 3024DOPG   C1B58149  20.850  25.460  13.990
 3024DOPG   D2B58150  20.620  25.700  14.100
 3024DOPG   C3B58151  20.300  25.570  14.170
 3024DOPG   C4B58152  20.120  25.170  14.190
 3025DOPG   GL058153   6.330  24.620  11.250
 3025DOPG   PO458154   5.990  24.730  11.190
 3025DOPG   GL158155   5.810  25.020  10.910
 3025DOPG   GL258156   5.770  24.770  10.600
 3025DOPG   C1A58157   5.720  25.470  10.870
 3025DOPG   D2A58158   5.680  25.710  10.500
 3025DOPG   C3A58159   5.550  26.150  10.390
 3025DOPG   C4A58160   5.140  26.370  10.380
 3025DOPG   C1B58161   5.560  25.160  10.470
 3025DOPG   D2B58162   5.240  25.360  10.350
 3025DOPG   C3B58163   4.840  25.280  10.070
 3025DOPG   C4B58164   4.550  25.450   9.890
 3026DOPG   GL058165   1.930  17.830   6.000
 3026DOPG   PO458166   1.920  18.250   6.050
 3026DOPG   GL158167   1.920  18.250   6.400
 3026DOPG   GL258168   2.040  18.030   6.590
 3026DOPG   C1A58169   1.770  18.530   6.690
 3026DOPG   D2A58170   1.730  18.650   7.060
 3026DOPG   C3A58171   2.070  18.900   7.270
 3026DOPG   C4A58172   2.070  19.090   7.630
 3026DOPG   C1B58173   2.290  18.240   6.850
 3026DOPG   D2B58174   2.660  18.460   6.700
 3026DOPG   C3B58175   2.970  18.360   7.020
 3026DOPG   C4B58176   3.440  18.210   7.290
 3027DOPG   GL058177  10.750  11.210  17.510
 3027DOPG   PO458178  10.870  10.820  17.470
 3027DOPG   GL158179  11.080  10.520  17.860
 3027DOPG   GL258180  11.460  10.560  17.880
 3027DOPG   C1A58181  11.030  10.060  17.800
 3027DOPG   D2A58182  10.770   9.720  17.610
 3027DOPG   C3A58183  10.860   9.300  17.490
 3027DOPG   C4A58184  10.600   9.000  17.470
 3027DOPG   C1B58185  11.460  10.180  17.580
 3027DOPG   D2B58186  11.670   9.710  17.640
 3027DOPG   C3B58187  11.750   9.510  18.050
 3027DOPG   C4B58188  11.450   9.440  18.240
 3028DOPG   GL058189  12.670  14.060   9.360
 3028DOPG   PO458190  12.890  13.770   9.590
 3028DOPG   GL158191  13.060  14.160   9.880
 3028DOPG   GL258192  13.220  14.300   9.640
 3028DOPG   C1A58193  13.140  14.420  10.310
 3028DOPG   D2A58194  13.440  14.710  10.620
 3028DOPG   C3A58195  13.120  14.990  10.780
 3028DOPG   C4A58196  12.860  15.030  10.970
 3028DOPG   C1B58197  12.840  14.550   9.610
 3028DOPG   D2B58198  12.760  14.990   9.590
 3028DOPG   C3B58199  12.430  15.080   9.760
 3028DOPG   C4B58200  12.340  15.400   9.950
 3029DOPG   GL058201   9.600  23.650  10.240
 3029DOPG   PO458202   9.640  23.790  10.600
 3029DOPG   GL158203   9.710  23.540  10.990
 3029DOPG   GL258204   9.810  23.180  11.000
 3029DOPG   C1A58205  10.080  23.470  11.290
 3029DOPG   D2A58206  10.380  23.310  11.550
 3029DOPG   C3A58207  10.450  23.090  11.920
 3029DOPG   C4A58208  10.520  23.090  12.410
 3029DOPG   C1B58209  10.020  23.030  11.410
 3029DOPG   D2B58210   9.990  22.880  11.900
 3029DOPG   C3B58211   9.700  22.620  12.160
 3029DOPG   C4B58212   9.300  22.480  12.310
 3030DOPG   GL058213  15.020  22.230   8.990
 3030DOPG   PO458214  15.350  22.030   9.320
 3030DOPG   GL158215  15.380  21.600   9.550
 3030DOPG   GL258216  15.480  21.310   9.540
 3030DOPG   C1A58217  15.160  21.600   9.940
 3030DOPG   D2A58218  14.980  21.370  10.320
 3030DOPG   C3A58219  14.590  21.340  10.470
 3030DOPG   C4A58220  14.470  21.550  10.840
 3030DOPG   C1B58221  15.470  20.820   9.770
 3030DOPG   D2B58222  15.190  20.600  10.030
 3030DOPG   C3B58223  14.950  20.780  10.400
 3030DOPG   C4B58224  14.730  20.890  10.700
 3031DOPG   GL058225   8.810  25.870  14.650
 3031DOPG   PO458226   9.180  25.870  14.630
 3031DOPG   GL158227   9.300  25.510  14.320
 3031DOPG   GL258228   9.510  25.720  14.090
 3031DOPG   C1A58229   9.480  25.080  14.310
 3031DOPG   D2A58230   9.630  24.610  14.220
 3031DOPG   C3A58231   9.910  24.440  14.390
 3031DOPG   C4A58232  10.060  24.010  14.370
 3031DOPG   C1B58233   9.790  25.440  14.450
 3031DOPG   D2B58234   9.830  25.090  14.760
 3031DOPG   C3B58235   9.460  24.750  14.700
 3031DOPG   C4B58236   9.400  24.390  14.610
 3032DOPG   GL058237   6.280  23.980  20.750
 3032DOPG   PO458238   5.840  23.950  20.860
 3032DOPG   GL158239   5.830  24.150  21.190
 3032DOPG   GL258240   5.820  24.380  21.390
 3032DOPG   C1A58241   5.370  24.310  21.470
 3032DOPG   D2A58242   5.210  24.480  21.890
 3032DOPG   C3A58243   4.780  24.470  21.990
 3032DOPG   C4A58244   4.390  24.690  22.270
 3032DOPG   C1B58245   5.700  24.710  21.760
 3032DOPG   D2B58246   5.500  24.860  22.100
 3032DOPG   C3B58247   5.250  24.650  22.370
 3032DOPG   C4B58248   4.820  24.670  22.530
 3033DOPG   GL058249  21.320  19.240   6.210
 3033DOPG   PO458250  21.080  19.560   6.460
 3033DOPG   GL158251  20.870  19.770   6.770
 3033DOPG   GL258252  20.530  19.470   6.880
 3033DOPG   C1A58253  20.790  19.720   7.180
 3033DOPG   D2A58254  20.960  19.540   7.530
 3033DOPG   C3A58255  20.620  19.510   7.930
 3033DOPG   C4A58256  20.200  19.510   8.120
 3033DOPG   C1B58257  20.460  19.380   7.360
 3033DOPG   D2B58258  20.140  19.240   7.700
 3033DOPG   C3B58259  20.230  19.040   8.150
 3033DOPG   C4B58260  20.090  19.140   8.460
 3034DOPG   GL058261   6.480  23.540  13.850
 3034DOPG   PO458262   6.450  23.340  14.180
 3034DOPG   GL158263   6.910  23.140  14.160
 3034DOPG   GL258264   6.990  23.270  14.440
 3034DOPG   C1A58265   7.060  22.800  14.440
 3034DOPG   D2A58266   7.290  22.420  14.550
 3034DOPG   C3A58267   7.610  22.190  14.860
 3034DOPG   C4A58268   7.800  21.770  14.840
 3034DOPG   C1B58269   7.070  23.080  14.870
 3034DOPG   D2B58270   7.040  23.180  15.150
 3034DOPG   C3B58271   7.470  23.310  15.300
 3034DOPG   C4B58272   7.790  23.490  15.500
 3035DOPG   GL058273  14.880  17.090  20.600
 3035DOPG   PO458274  15.260  17.240  20.540
 3035DOPG   GL158275  15.070  17.350  20.120
 3035DOPG   GL258276  14.910  17.120  20.080
 3035DOPG   C1A58277  14.870  17.700  19.950
 3035DOPG   D2A58278  14.620  18.160  19.950
 3035DOPG   C3A58279  14.650  18.290  19.510
 3035DOPG   C4A58280  14.630  18.140  19.060
 3035DOPG   C1B58281  14.970  16.740  19.810
 3035DOPG   D2B58282  14.720  16.450  19.560
 3035DOPG   C3B58283  14.470  16.530  19.260
 3035DOPG   C4B58284  14.480  16.980  19.100
 3036DOPG   GL058285  14.480  29.170   8.680
 3036DOPG   PO458286  14.900  29.090   8.830
 3036DOPG   GL158287  14.700  28.660   8.830
 3036DOPG   GL258288  14.750  28.430   8.640
 3036DOPG   C1A58289  14.290  28.650   8.800
 3036DOPG   D2A58290  14.050  28.530   9.200
 3036DOPG   C3A58291  13.900  28.150   9.360
 3036DOPG   C4A58292  14.130  27.720   9.420
 3036DOPG   C1B58293  14.840  28.280   9.030
 3036DOPG   D2B58294  15.050  28.190   9.320
 3036DOPG   C3B58295  15.200  27.730   9.360
 3036DOPG   C4B58296  15.010  27.290   9.400
 3037DOPG   GL058297   5.920  14.130  15.320
 3037DOPG   PO458298   6.160  14.540  15.310
 3037DOPG   GL158299   6.300  14.980  15.220
 3037DOPG   GL258300   6.240  15.250  15.420
 3037DOPG   C1A58301   6.690  15.060  15.050
 3037DOPG   D2A58302   7.080  15.200  15.040
 3037DOPG   C3A58303   7.320  14.960  14.680
 3037DOPG   C4A58304   7.700  14.950  14.410
 3037DOPG   C1B58305   6.550  15.490  15.250
 3037DOPG   D2B58306   6.820  15.670  14.970
 3037DOPG   C3B58307   7.220  15.560  14.730
 3037DOPG   C4B58308   7.390  15.400  14.360
 3038DOPG   GL058309   7.530  12.550  13.760
 3038DOPG   PO458310   7.320  12.630  14.140
 3038DOPG   GL158311   7.500  13.000  14.170
 3038DOPG   GL258312   7.470  13.150  13.930
 3038DOPG   C1A58313   7.580  13.280  14.440
 3038DOPG   D2A58314   7.620  13.600  14.430
 3038DOPG   C3A58315   7.460  13.650  14.050
 3038DOPG   C4A58316   7.530  13.610  13.600
 3038DOPG   C1B58317   7.900  13.150  14.020
 3038DOPG   D2B58318   7.920  13.570  13.920
 3038DOPG   C3B58319   8.170  13.800  14.130
 3038DOPG   C4B58320   8.340  14.240  14.350
 3039DOPG   GL058321   5.890  21.730  14.220
 3039DOPG   PO458322   5.660  21.630  14.600
 3039DOPG   GL158323   6.130  21.420  14.550
 3039DOPG   GL258324   6.070  21.460  14.860
 3039DOPG   C1A58325   6.410  21.160  14.430
 3039DOPG   D2A58326   6.790  21.150  14.290
 3039DOPG   C3A58327   6.990  21.510  14.410
 3039DOPG   C4A58328   7.370  21.740  14.510
 3039DOPG   C1B58329   6.340  21.200  15.080
 3039DOPG   D2B58330   6.730  20.940  15.220
 3039DOPG   C3B58331   7.090  21.010  15.390
 3039DOPG   C4B58332   7.260  20.580  15.350
 3040DOPG   GL058333  16.560  24.200  11.000
 3040DOPG   PO458334  16.400  24.350  10.670
 3040DOPG   GL158335  16.710  24.640  10.560
 3040DOPG   GL258336  17.050  24.330  10.620
 3040DOPG   C1A58337  17.010  24.650  10.210
 3040DOPG   D2A58338  17.170  24.830   9.750
 3040DOPG   C3A58339  17.480  24.760   9.440
 3040DOPG   C4A58340  17.860  24.660   9.310
 3040DOPG   C1B58341  17.370  24.620  10.620
 3040DOPG   D2B58342  17.550  25.000  10.780
 3040DOPG   C3B58343  17.930  25.160  10.750
 3040DOPG   C4B58344  17.940  25.640  10.840
 3041DOPG   GL058345  15.130  17.690   8.410
 3041DOPG   PO458346  14.820  17.910   8.570
 3041DOPG   GL158347  14.650  18.190   8.850
 3041DOPG   GL258348  14.410  18.090   8.840
 3041DOPG   C1A58349  14.680  18.210   9.360
 3041DOPG   D2A58350  14.550  18.160   9.750
 3041DOPG   C3A58351  14.550  18.540   9.880
 3041DOPG   C4A58352  14.850  18.720  10.170
 3041DOPG   C1B58353  14.310  17.910   9.210
 3041DOPG   D2B58354  14.190  17.830   9.540
 3041DOPG   C3B58355  14.250  17.470   9.820
 3041DOPG   C4B58356  14.400  17.410  10.230
 3042DOPG   GL058357  13.060  18.030   2.840
 3042DOPG   PO458358  12.590  18.030   2.720
 3042DOPG   GL158359  12.650  17.820   3.100
 3042DOPG   GL258360  12.670  17.470   3.180
 3042DOPG   C1A58361  12.610  18.000   3.520
 3042DOPG   D2A58362  12.630  17.870   3.960
 3042DOPG   C3A58363  12.420  17.720   4.380
 3042DOPG   C4A58364  12.600  17.460   4.690
 3042DOPG   C1B58365  12.720  17.490   3.640
 3042DOPG   D2B58366  12.700  17.410   3.980
 3042DOPG   C3B58367  13.020  17.540   4.210
 3042DOPG   C4B58368  13.070  17.960   4.190
 3043DOPG   GL058369   9.020  21.360  26.710
 3043DOPG   PO458370   9.150  20.900  26.890
 3043DOPG   GL158371   9.100  20.880  26.370
 3043DOPG   GL258372   8.830  20.860  26.420
 3043DOPG   C1A58373   9.070  21.130  26.080
 3043DOPG   D2A58374   8.860  21.150  25.820
 3043DOPG   C3A58375   8.790  21.360  25.410
 3043DOPG   C4A58376   8.580  21.250  25.160
 3043DOPG   C1B58377   8.380  20.910  26.290
 3043DOPG   D2B58378   7.920  20.820  26.030
 3043DOPG   C3B58379   7.980  20.680  25.570
 3043DOPG   C4B58380   7.750  20.590  25.220
 3044DOPG   GL058381   9.830  19.780  21.630
 3044DOPG   PO458382   9.500  20.080  21.640
 3044DOPG   GL158383   9.350  19.790  21.360
 3044DOPG   GL258384   9.070  19.550  21.460
 3044DOPG   C1A58385   9.380  19.740  20.920
 3044DOPG   D2A58386   9.670  19.840  20.560
 3044DOPG   C3A58387   9.890  19.840  20.190
 3044DOPG   C4A58388   9.850  19.940  19.730
 3044DOPG   C1B58389   8.980  19.430  21.060
 3044DOPG   D2B58390   8.770  19.390  20.610
 3044DOPG   C3B58391   8.780  19.710  20.370
 3044DOPG   C4B58392   8.910  19.560  19.940
 3045DOPG   GL058393   2.500  18.400  11.570
 3045DOPG   PO458394   2.630  18.330  11.200
 3045DOPG   GL158395   2.490  18.430  10.840
 3045DOPG   GL258396   2.620  18.370  10.550
 3045DOPG   C1A58397   2.020  18.480  10.690
 3045DOPG   D2A58398   1.690  18.380  10.470
 3045DOPG   C3A58399   1.330  18.460  10.630
 3045DOPG   C4A58400   0.880  18.550  10.540
 3045DOPG   C1B58401   2.330  18.330  10.250
 3045DOPG   D2B58402   2.210  18.080   9.820
 3045DOPG   C3B58403   2.080  18.320   9.550
 3045DOPG   C4B58404   1.960  18.730   9.450
 3046DOPG   GL058405  10.270  11.760  15.110
 3046DOPG   PO458406  10.690  11.770  15.070
 3046DOPG   GL158407  10.830  12.020  14.800
 3046DOPG   GL258408  11.120  12.230  14.720
 3046DOPG   C1A58409  10.550  12.250  14.630
 3046DOPG   D2A58410  10.070  12.490  14.400
 3046DOPG   C3A58411  10.060  12.850  14.280
 3046DOPG   C4A58412  10.180  13.260  14.140
 3046DOPG   C1B58413  11.240  12.630  14.890
 3046DOPG   D2B58414  11.530  12.960  15.000
 3046DOPG   C3B58415  11.720  13.290  15.180
 3046DOPG   C4B58416  11.430  13.460  15.500
 3047DOPG   GL058417   8.410  26.170  12.110
 3047DOPG   PO458418   8.660  26.320  11.760
 3047DOPG   GL158419   8.450  26.590  11.490
 3047DOPG   GL258420   8.530  26.540  11.190
 3047DOPG   C1A58421   8.320  27.020  11.470
 3047DOPG   D2A58422   8.400  27.380  11.230
 3047DOPG   C3A58423   8.530  27.860  11.280
 3047DOPG   C4A58424   8.940  28.080  11.320
 3047DOPG   C1B58425   8.620  26.950  11.000
 3047DOPG   D2B58426   8.630  27.330  10.760
 3047DOPG   C3B58427   8.690  27.700  10.850
 3047DOPG   C4B58428   8.720  28.150  10.900
 3048DOPG   GL058429  34.600  16.170  17.480
 3048DOPG   PO458430  34.570  16.530  17.740
 3048DOPG   GL158431  35.030  16.700  17.970
 3048DOPG   GL258432  34.800  16.910  18.110
 3048DOPG   C1A58433  35.450  16.630  18.170
 3048DOPG   D2A58434  35.640  16.760  18.530
 3048DOPG   C3A58435  36.000  16.600  18.620
 3048DOPG   C4A58436   0.090  16.700  18.730
 3048DOPG   C1B58437  35.150  17.030  18.350
 3048DOPG   D2B58438  35.590  17.210  18.420
 3048DOPG   C3B58439  35.920  17.010  18.150
 3048DOPG   C4B58440  36.230  17.010  17.820
 3049DOPG   GL058441  34.920  24.230  11.020
 3049DOPG   PO458442  34.810  23.680  11.030
 3049DOPG   GL158443  35.210  23.670  11.230
 3049DOPG   GL258444  35.290  23.420  11.030
 3049DOPG   C1A58445  35.560  23.860  11.490
 3049DOPG   D2A58446  36.030  24.010  11.280
 3049DOPG   C3A58447   0.070  23.930  11.350
 3049DOPG   C4A58448   0.180  23.660  11.130
 3049DOPG   C1B58449  35.580  23.090  10.940
 3049DOPG   D2B58450  35.810  22.760  11.320
 3049DOPG   C3B58451  36.040  22.530  11.460
 3049DOPG   C4B58452  36.260  22.290  11.570
 3050DOPG   GL058453  12.350  18.680   7.530
 3050DOPG   PO458454  12.750  18.490   7.480
 3050DOPG   GL158455  12.590  18.320   7.800
 3050DOPG   GL258456  12.830  18.450   8.160
 3050DOPG   C1A58457  12.550  18.030   8.180
 3050DOPG   D2A58458  12.420  17.900   8.580
 3050DOPG   C3A58459  12.510  17.380   8.680
 3050DOPG   C4A58460  12.570  16.880   8.980
 3050DOPG   C1B58461  12.860  18.350   8.470
 3050DOPG   D2B58462  12.650  18.290   8.870
 3050DOPG   C3B58463  12.220  18.390   8.970
 3050DOPG   C4B58464  12.030  18.490   9.460
 3051DOPG   GL058465   8.390  24.280  11.310
 3051DOPG   PO458466   8.450  24.270  11.700
 3051DOPG   GL158467   8.620  23.920  12.020
 3051DOPG   GL258468   8.480  23.970  12.320
 3051DOPG   C1A58469   8.800  23.590  12.290
 3051DOPG   D2A58470   9.160  23.280  12.210
 3051DOPG   C3A58471   9.290  22.920  12.570
 3051DOPG   C4A58472   9.580  23.060  12.890
 3051DOPG   C1B58473   8.800  24.200  12.330
 3051DOPG   D2B58474   9.060  24.050  12.760
 3051DOPG   C3B58475   9.490  24.000  12.860
 3051DOPG   C4B58476   9.780  23.940  13.220
 3052DOPG   GL058477   1.630  12.880  20.810
 3052DOPG   PO458478   1.930  12.750  20.660
 3052DOPG   GL158479   2.000  12.730  20.240
 3052DOPG   GL258480   2.420  12.760  20.300
 3052DOPG   C1A58481   2.280  12.930  19.890
 3052DOPG   D2A58482   2.560  13.250  19.910
 3052DOPG   C3A58483   2.600  13.620  20.140
 3052DOPG   C4A58484   2.630  13.850  20.530
 3052DOPG   C1B58485   2.910  13.000  20.230
 3052DOPG   D2B58486   3.150  13.340  20.160
 3052DOPG   C3B58487   3.530  13.250  19.950
 3052DOPG   C4B58488   3.810  13.220  19.700
 3053DOPG   GL058489  18.160  20.350  16.850
 3053DOPG   PO458490  18.090  20.190  17.230
 3053DOPG   GL158491  17.740  20.220  17.270
 3053DOPG   GL258492  17.590  20.130  17.010
 3053DOPG   C1A58493  17.470  20.230  17.540
 3053DOPG   D2A58494  17.100  20.070  17.840
 3053DOPG   C3A58495  17.030  20.340  18.170
 3053DOPG   C4A58496  16.790  20.450  18.550
 3053DOPG   C1B58497  17.190  19.970  17.020
 3053DOPG   D2B58498  16.810  19.940  17.040
 3053DOPG   C3B58499  16.660  19.880  16.760
 3053DOPG   C4B58500  16.360  19.640  16.460
 3054DOPG   GL058501   5.080  25.040  20.260
 3054DOPG   PO458502   5.270  24.710  20.490
 3054DOPG   GL158503   5.180  24.860  20.830
 3054DOPG   GL258504   5.090  24.560  20.970
 3054DOPG   C1A58505   5.310  25.190  21.120
 3054DOPG   D2A58506   5.060  25.280  21.410
 3054DOPG   C3A58507   4.990  25.620  21.710
 3054DOPG   C4A58508   5.040  26.080  21.910
 3054DOPG   C1B58509   4.790  24.880  21.200
 3054DOPG   D2B58510   4.560  25.100  21.380
 3054DOPG   C3B58511   4.350  24.940  21.730
 3054DOPG   C4B58512   4.040  24.690  21.800
 3055DOPG   GL058513  13.750  25.580  13.330
 3055DOPG   PO458514  13.450  25.620  12.970
 3055DOPG   GL158515  13.240  25.300  13.150
 3055DOPG   GL258516  12.910  25.370  13.410
 3055DOPG   C1A58517  13.250  24.920  13.290
 3055DOPG   D2A58518  12.950  24.590  13.370
 3055DOPG   C3A58519  13.000  24.250  13.270
 3055DOPG   C4A58520  12.920  23.940  13.200
 3055DOPG   C1B58521  12.710  25.020  13.180
 3055DOPG   D2B58522  12.490  24.650  13.230
 3055DOPG   C3B58523  12.580  24.360  13.000
 3055DOPG   C4B58524  12.300  24.070  12.790
 3056DOPG   GL058525   6.580  21.320  12.130
 3056DOPG   PO458526   6.660  21.540  12.440
 3056DOPG   GL158527   6.780  21.640  12.840
 3056DOPG   GL258528   6.600  21.630  13.190
 3056DOPG   C1A58529   7.120  21.480  13.080
 3056DOPG   D2A58530   7.540  21.630  13.080
 3056DOPG   C3A58531   7.630  22.020  12.880
 3056DOPG   C4A58532   7.980  22.380  12.790
 3056DOPG   C1B58533   6.940  21.690  13.480
 3056DOPG   D2B58534   7.190  21.990  13.600
 3056DOPG   C3B58535   7.180  22.190  13.290
 3056DOPG   C4B58536   7.160  22.010  12.910
 3057DOPG   GL058537   0.080  11.660  14.410
 3057DOPG   PO458538   0.420  11.950  14.560
 3057DOPG   GL158539   0.640  12.270  14.360
 3057DOPG   GL258540   0.810  12.290  14.700
 3057DOPG   C1A58541   1.040  12.300  14.200
 3057DOPG   D2A58542   1.390  12.430  13.900
 3057DOPG   C3A58543   1.810  12.150  14.090
 3057DOPG   C4A58544   1.960  11.880  14.500
 3057DOPG   C1B58545   0.830  12.730  14.720
 3057DOPG   D2B58546   0.950  13.120  14.660
 3057DOPG   C3B58547   1.310  13.250  14.860
 3057DOPG   C4B58548   1.640  13.280  14.580
 3058DOPG   GL058549   9.560  12.170  10.000
 3058DOPG   PO458550   9.300  12.200   9.680
 3058DOPG   GL158551   9.240  11.890   9.360
 3058DOPG   GL258552   9.140  11.590   9.500
 3058DOPG   C1A58553   9.090  11.770   8.980
 3058DOPG   D2A58554   9.110  11.420   8.620
 3058DOPG   C3A58555   9.090  10.980   8.630
 3058DOPG   C4A58556   8.720  10.670   8.590
 3058DOPG   C1B58557   8.920  11.310   9.180
 3058DOPG   D2B58558   8.630  11.040   8.950
 3058DOPG   C3B58559   8.450  11.160   8.660
 3058DOPG   C4B58560   8.370  11.480   8.430
 3059DOPG   GL058561  15.720  12.920  11.460
 3059DOPG   PO458562  16.130  12.760  11.310
 3059DOPG   GL158563  16.410  12.410  11.470
 3059DOPG   GL258564  16.340  12.290  11.750
 3059DOPG   C1A58565  16.350  12.020  11.320
 3059DOPG   D2A58566  16.060  11.740  11.280
 3059DOPG   C3A58567  16.300  11.390  11.330
 3059DOPG   C4A58568  16.340  10.960  11.260
 3059DOPG   C1B58569  16.540  11.870  11.810
 3059DOPG   D2B58570  16.760  11.490  11.830
 3059DOPG   C3B58571  17.150  11.590  12.100
 3059DOPG   C4B58572  17.450  11.270  12.160
 3060DOPG   GL058573  16.250  21.190   8.960
 3060DOPG   PO458574  16.350  20.970   9.360
 3060DOPG   GL158575  16.300  21.140   9.760
 3060DOPG   GL258576  16.420  21.120  10.040
 3060DOPG   C1A58577  15.840  21.080   9.980
 3060DOPG   D2A58578  15.410  21.190  10.130
 3060DOPG   C3A58579  15.090  21.100   9.860
 3060DOPG   C4A58580  14.730  21.320   9.830
 3060DOPG   C1B58581  16.520  21.170  10.470
 3060DOPG   D2B58582  16.240  21.380  10.830
 3060DOPG   C3B58583  16.250  21.480  11.320
 3060DOPG   C4B58584  16.100  21.590  11.790
 3061DOPG   GL058585   9.980  21.180  22.410
 3061DOPG   PO458586   9.620  21.390  22.640
 3061DOPG   GL158587   9.600  21.440  23.120
 3061DOPG   GL258588   9.300  21.560  23.220
 3061DOPG   C1A58589   9.740  21.460  23.550
 3061DOPG   D2A58590   9.500  21.590  24.060
 3061DOPG   C3A58591   9.140  21.860  24.040
 3061DOPG   C4A58592   9.000  22.140  23.700
 3061DOPG   C1B58593   9.390  21.810  23.610
 3061DOPG   D2B58594   9.570  22.070  23.930
 3061DOPG   C3B58595   9.640  21.940  24.360
 3061DOPG   C4B58596   9.900  22.060  24.650
 3062DOPG   GL058597   6.600  21.140  22.210
 3062DOPG   PO458598   6.300  21.240  22.530
 3062DOPG   GL158599   5.990  21.260  22.670
 3062DOPG   GL258600   6.150  21.360  23.010
 3062DOPG   C1A58601   5.680  21.190  22.960
 3062DOPG   D2A58602   5.410  21.060  23.270
 3062DOPG   C3A58603   5.090  21.130  23.530
 3062DOPG   C4A58604   4.810  21.180  23.750
 3062DOPG   C1B58605   5.900  21.620  23.070
 3062DOPG   D2B58606   6.030  22.080  23.230
 3062DOPG   C3B58607   5.780  22.280  23.480
 3062DOPG   C4B58608   5.460  22.020  23.500
 3063DOPG   GL058609   5.720  18.660  18.610
 3063DOPG   PO458610   5.840  19.020  18.470
 3063DOPG   GL158611   6.180  18.930  18.370
 3063DOPG   GL258612   6.350  19.170  18.430
 3063DOPG   C1A58613   6.650  18.770  18.270
 3063DOPG   D2A58614   6.990  18.840  18.320
 3063DOPG   C3A58615   7.210  19.090  17.990
 3063DOPG   C4A58616   7.710  19.120  17.850
 3063DOPG   C1B58617   6.800  19.250  18.640
 3063DOPG   D2B58618   7.140  19.310  18.470
 3063DOPG   C3B58619   7.350  19.670  18.190
 3063DOPG   C4B58620   7.780  19.670  18.000
 3064DOPG   GL058621   6.090  13.770  14.380
 3064DOPG   PO458622   6.170  14.260  14.540
 3064DOPG   GL158623   6.580  14.370  14.540
 3064DOPG   GL258624   6.760  14.230  14.730
 3064DOPG   C1A58625   6.790  14.510  14.130
 3064DOPG   D2A58626   7.220  14.700  13.830
 3064DOPG   C3A58627   7.570  14.920  13.880
 3064DOPG   C4A58628   7.960  15.000  13.950
 3064DOPG   C1B58629   6.900  14.700  14.680
 3064DOPG   D2B58630   6.790  15.070  14.500
 3064DOPG   C3B58631   6.440  15.390  14.150
 3064DOPG   C4B58632   6.360  15.320  13.750
 3065DOPG   GL058633   7.890  27.730   7.050
 3065DOPG   PO458634   8.290  27.610   6.970
 3065DOPG   GL158635   8.200  27.380   7.270
 3065DOPG   GL258636   8.280  27.660   7.480
 3065DOPG   C1A58637   8.300  26.960   7.430
 3065DOPG   D2A58638   8.690  26.710   7.590
 3065DOPG   C3A58639   8.990  26.950   7.640
 3065DOPG   C4A58640   9.200  27.340   7.450
 3065DOPG   C1B58641   8.590  27.290   7.670
 3065DOPG   D2B58642   8.700  27.050   8.000
 3065DOPG   C3B58643   8.630  26.570   8.140
 3065DOPG   C4B58644   8.670  26.380   8.540
 3066DOPG   GL058645   7.170  23.750  17.390
 3066DOPG   PO458646   6.780  23.460  17.220
 3066DOPG   GL158647   6.910  23.240  16.930
 3066DOPG   GL258648   7.040  23.290  16.560
 3066DOPG   C1A58649   7.210  22.850  16.870
 3066DOPG   D2A58650   7.600  22.780  16.800
 3066DOPG   C3A58651   7.740  22.560  16.460
 3066DOPG   C4A58652   8.070  22.320  16.520
 3066DOPG   C1B58653   7.540  23.180  16.590
 3066DOPG   D2B58654   8.000  23.070  16.700
 3066DOPG   C3B58655   8.130  23.270  17.140
 3066DOPG   C4B58656   8.540  23.320  17.100
 3067DOPG   GL058657   1.630  23.480  15.000
 3067DOPG   PO458658   1.890  23.750  14.710
 3067DOPG   GL158659   1.570  23.970  14.740
 3067DOPG   GL258660   1.230  23.790  14.770
 3067DOPG   C1A58661   1.290  24.290  14.810
 3067DOPG   D2A58662   1.060  24.610  14.680
 3067DOPG   C3A58663   1.200  24.960  14.460
 3067DOPG   C4A58664   1.570  25.270  14.490
 3067DOPG   C1B58665   0.970  24.110  14.510
 3067DOPG   D2B58666   0.610  24.310  14.570
 3067DOPG   C3B58667   0.180  24.450  14.460
 3067DOPG   C4B58668  36.200  24.570  14.430
 3068DOPG   GL058669   8.030  29.880  21.430
 3068DOPG   PO458670   8.070  30.000  21.040
 3068DOPG   GL158671   8.240  29.590  20.890
 3068DOPG   GL258672   8.610  29.510  20.720
 3068DOPG   C1A58673   8.100  29.220  20.830
 3068DOPG   D2A58674   7.730  28.980  21.000
 3068DOPG   C3A58675   7.740  28.540  21.150
 3068DOPG   C4A58676   7.560  28.230  21.420
 3068DOPG   C1B58677   8.640  29.530  20.290
 3068DOPG   D2B58678   8.650  29.420  19.760
 3068DOPG   C3B58679   9.070  29.230  19.650
 3068DOPG   C4B58680   9.360  28.870  19.610
 3069DOPG   GL058681   2.450  20.490  12.000
 3069DOPG   PO458682   2.160  20.210  12.070
 3069DOPG   GL158683   1.730  20.040  11.820
 3069DOPG   GL258684   1.780  19.950  11.420
 3069DOPG   C1A58685   1.320  19.950  11.710
 3069DOPG   D2A58686   1.310  19.660  11.470
 3069DOPG   C3A58687   0.940  19.550  11.370
 3069DOPG   C4A58688   0.830  19.370  11.060
 3069DOPG   C1B58689   1.440  20.110  11.190
 3069DOPG   D2B58690   1.330  20.140  10.760
 3069DOPG   C3B58691   0.880  20.210  10.570
 3069DOPG   C4B58692   0.700  20.620  10.370
 3070DOPG   GL058693  15.270  19.390  20.380
 3070DOPG   PO458694  15.220  19.010  20.210
 3070DOPG   GL158695  15.230  19.350  19.920
 3070DOPG   GL258696  15.180  19.160  19.680
 3070DOPG   C1A58697  15.080  19.610  19.590
 3070DOPG   D2A58698  15.400  19.680  19.370
 3070DOPG   C3A58699  15.470  19.260  19.140
 3070DOPG   C4A58700  15.310  18.910  19.110
 3070DOPG   C1B58701  14.930  19.200  19.300
 3070DOPG   D2B58702  14.860  19.120  18.880
 3070DOPG   C3B58703  15.080  18.820  18.570
 3070DOPG   C4B58704  15.210  18.870  18.190
 3071DOPG   GL058705  11.920  13.760   9.530
 3071DOPG   PO458706  11.650  13.990   9.230
 3071DOPG   GL158707  11.400  14.090   9.610
 3071DOPG   GL258708  11.240  13.980  10.000
 3071DOPG   C1A58709  11.270  14.460   9.960
 3071DOPG   D2A58710  11.100  14.690  10.230
 3071DOPG   C3A58711  10.980  14.590  10.610
 3071DOPG   C4A58712  10.650  14.590  10.940
 3071DOPG   C1B58713  11.210  14.190  10.420
 3071DOPG   D2B58714  11.530  14.520  10.600
 3071DOPG   C3B58715  11.510  14.770  10.910
 3071DOPG   C4B58716  11.460  14.780  11.270
 3072DOPG   GL058717  13.770  26.960  17.340
 3072DOPG   PO458718  14.040  27.100  17.590
 3072DOPG   GL158719  13.960  27.420  17.850
 3072DOPG   GL258720  13.620  27.470  18.040
 3072DOPG   C1A58721  14.090  27.860  17.880
 3072DOPG   D2A58722  14.000  28.290  17.900
 3072DOPG   C3A58723  13.750  28.410  18.240
 3072DOPG   C4A58724  13.830  28.400  18.720
 3072DOPG   C1B58725  13.700  27.800  18.260
 3072DOPG   D2B58726  14.200  27.870  18.410
 3072DOPG   C3B58727  14.380  28.270  18.490
 3072DOPG   C4B58728  14.840  28.370  18.370
 3073DOPG   GL058729   9.670  28.010  16.100
 3073DOPG   PO458730   9.470  27.570  16.180
 3073DOPG   GL158731   9.190  27.950  16.340
 3073DOPG   GL258732   8.840  27.980  16.550
 3073DOPG   C1A58733   8.980  28.260  16.140
 3073DOPG   D2A58734   8.650  28.560  16.010
 3073DOPG   C3A58735   8.560  28.880  16.200
 3073DOPG   C4A58736   8.640  29.080  16.600
 3073DOPG   C1B58737   9.010  28.430  16.630
 3073DOPG   D2B58738   9.340  28.600  16.660
 3073DOPG   C3B58739   9.260  28.940  16.710
 3073DOPG   C4B58740   9.170  29.340  16.870
 3074DOPG   GL058741   5.530  17.730  17.860
 3074DOPG   PO458742   5.530  18.000  17.610
 3074DOPG   GL158743   5.920  17.780  17.440
 3074DOPG   GL258744   5.920  17.530  17.120
 3074DOPG   C1A58745   6.320  17.710  17.350
 3074DOPG   D2A58746   6.640  17.560  17.280
 3074DOPG   C3A58747   6.820  17.240  17.050
 3074DOPG   C4A58748   6.880  16.840  17.160
 3074DOPG   C1B58749   6.150  17.930  16.970
 3074DOPG   D2B58750   6.590  17.850  16.860
 3074DOPG   C3B58751   6.690  17.500  16.560
 3074DOPG   C4B58752   6.670  16.960  16.620
 3075DOPG   GL058753  15.890  17.090   8.160
 3075DOPG   PO458754  16.120  16.760   8.120
 3075DOPG   GL158755  16.180  16.850   7.680
 3075DOPG   GL258756  15.880  17.040   7.570
 3075DOPG   C1A58757  16.360  16.720   7.430
 3075DOPG   D2A58758  16.690  16.440   7.310
 3075DOPG   C3A58759  16.700  16.300   6.950
 3075DOPG   C4A58760  16.510  16.330   6.630
 3075DOPG   C1B58761  15.950  16.890   7.110
 3075DOPG   D2B58762  16.050  16.990   6.760
 3075DOPG   C3B58763  15.830  17.020   6.330
 3075DOPG   C4B58764  15.900  17.240   6.000
 3076DOPG   GL058765   8.870  13.420  10.470
 3076DOPG   PO458766   8.600  13.290  10.750
 3076DOPG   GL158767   8.620  13.470  11.130
 3076DOPG   GL258768   8.780  13.720  11.110
 3076DOPG   C1A58769   8.540  13.560  11.540
 3076DOPG   D2A58770   8.550  13.660  11.930
 3076DOPG   C3A58771   8.910  13.500  12.150
 3076DOPG   C4A58772   9.000  13.160  12.290
 3076DOPG   C1B58773   9.180  13.940  11.230
 3076DOPG   D2B58774   9.610  14.050  11.150
 3076DOPG   C3B58775   9.810  14.000  10.840
 3076DOPG   C4B58776  10.110  13.840  10.590
 3077DOPG   GL058777   4.660  25.610  13.000
 3077DOPG   PO458778   4.280  25.510  13.050
 3077DOPG   GL158779   4.180  25.850  12.820
 3077DOPG   GL258780   4.380  25.840  12.590
 3077DOPG   C1A58781   3.910  26.070  12.750
 3077DOPG   D2A58782   3.730  26.130  12.440
 3077DOPG   C3A58783   3.700  26.570  12.390
 3077DOPG   C4A58784   3.400  26.920  12.520
 3077DOPG   C1B58785   4.150  25.940  12.320
 3077DOPG   D2B58786   4.050  26.220  12.020
 3077DOPG   C3B58787   3.540  26.300  12.020
 3077DOPG   C4B58788   3.290  26.760  12.070
 3078DOPG   GL058789  17.120  21.500  18.660
 3078DOPG   PO458790  16.840  21.740  18.830
 3078DOPG   GL158791  16.610  21.700  18.570
 3078DOPG   GL258792  16.730  21.950  18.310
 3078DOPG   C1A58793  16.270  21.650  18.480
 3078DOPG   D2A58794  16.070  21.460  18.260
 3078DOPG   C3A58795  15.760  21.300  18.570
 3078DOPG   C4A58796  15.770  20.940  18.750
 3078DOPG   C1B58797  16.430  21.700  18.030
 3078DOPG   D2B58798  16.160  21.790  17.660
 3078DOPG   C3B58799  16.040  21.520  17.360
 3078DOPG   C4B58800  15.890  21.370  17.020
 3079DOPG   GL058801  12.440  13.560  19.550
 3079DOPG   PO458802  12.180  13.530  19.260
 3079DOPG   GL158803  11.870  13.840  19.030
 3079DOPG   GL258804  11.630  13.840  18.670
 3079DOPG   C1A58805  11.870  14.340  18.840
 3079DOPG   D2A58806  11.620  14.710  18.580
 3079DOPG   C3A58807  11.730  14.720  18.110
 3079DOPG   C4A58808  11.690  15.120  17.760
 3079DOPG   C1B58809  11.960  13.610  18.400
 3079DOPG   D2B58810  12.070  13.320  18.000
 3079DOPG   C3B58811  11.800  13.340  17.660
 3079DOPG   C4B58812  11.690  13.220  17.330
 3080DOPG   GL058813  10.320  14.100   8.840
 3080DOPG   PO458814  10.600  14.060   8.470
 3080DOPG   GL158815  10.700  13.970   8.040
 3080DOPG   GL258816  10.390  14.230   7.860
 3080DOPG   C1A58817  10.970  13.960   7.590
 3080DOPG   D2A58818  10.780  13.740   7.210
 3080DOPG   C3A58819  10.650  13.340   7.090
 3080DOPG   C4A58820  10.720  13.090   6.770
 3080DOPG   C1B58821  10.440  13.900   7.560
 3080DOPG   D2B58822  10.260  13.530   7.510
 3080DOPG   C3B58823  10.030  13.450   7.100
 3080DOPG   C4B58824   9.830  13.430   6.680
 3081DOPG   GL058825  18.440  21.230  12.770
 3081DOPG   PO458826  18.190  21.000  13.100
 3081DOPG   GL158827  17.880  20.750  12.980
 3081DOPG   GL258828  17.880  20.490  12.830
 3081DOPG   C1A58829  17.410  20.550  13.130
 3081DOPG   D2A58830  16.990  20.500  13.270
 3081DOPG   C3A58831  16.860  20.200  13.210
 3081DOPG   C4A58832  16.990  19.870  13.430
 3081DOPG   C1B58833  17.620  20.140  12.880
 3081DOPG   D2B58834  17.290  19.890  12.930
 3081DOPG   C3B58835  17.220  19.490  13.250
 3081DOPG   C4B58836  17.160  19.240  13.640
 3082DOPG   GL058837   3.110  19.140  19.410
 3082DOPG   PO458838   2.760  19.190  19.290
 3082DOPG   GL158839   2.420  19.000  19.500
 3082DOPG   GL258840   2.350  18.670  19.540
 3082DOPG   C1A58841   1.930  19.140  19.530
 3082DOPG   D2A58842   1.550  18.900  19.550
 3082DOPG   C3A58843   1.660  18.550  19.930
 3082DOPG   C4A58844   2.050  18.390  20.230
 3082DOPG   C1B58845   2.110  18.650  19.710
 3082DOPG   D2B58846   1.930  18.940  19.990
 3082DOPG   C3B58847   1.690  18.880  20.340
 3082DOPG   C4B58848   1.310  18.660  20.330
 3083DOPG   GL058849  12.080  14.880  19.550
 3083DOPG   PO458850  12.050  15.210  19.910
 3083DOPG   GL158851  11.660  15.220  19.790
 3083DOPG   GL258852  11.530  15.020  19.600
 3083DOPG   C1A58853  11.280  15.440  19.630
 3083DOPG   D2A58854  10.860  15.400  19.530
 3083DOPG   C3A58855  10.850  15.660  19.170
 3083DOPG   C4A58856  10.740  15.650  18.770
 3083DOPG   C1B58857  11.640  15.260  19.190
 3083DOPG   D2B58858  11.770  15.560  18.940
 3083DOPG   C3B58859  11.550  15.760  18.560
 3083DOPG   C4B58860  11.370  15.790  18.220
 3084DOPG   GL058861  11.370  27.330  16.640
 3084DOPG   PO458862  11.090  27.540  16.880
 3084DOPG   GL158863  11.180  27.860  17.220
 3084DOPG   GL258864  11.010  28.140  16.930
 3084DOPG   C1A58865  11.010  27.920  17.700
 3084DOPG   D2A58866  11.220  27.710  18.130
 3084DOPG   C3A58867  11.340  28.030  18.460
 3084DOPG   C4A58868  11.360  28.300  18.810
 3084DOPG   C1B58869  11.200  28.540  16.880
 3084DOPG   D2B58870  11.040  28.950  17.080
 3084DOPG   C3B58871  11.300  29.390  17.230
 3084DOPG   C4B58872  11.690  29.630  17.230
 3085DOPG   GL058873   7.780  25.160  25.960
 3085DOPG   PO458874   7.520  25.250  25.590
 3085DOPG   GL158875   7.670  25.000  25.320
 3085DOPG   GL258876   7.600  24.700  25.300
 3085DOPG   C1A58877   7.840  24.870  24.900
 3085DOPG   D2A58878   7.700  24.710  24.460
 3085DOPG   C3A58879   7.370  24.360  24.290
 3085DOPG   C4A58880   7.100  23.950  24.280
 3085DOPG   C1B58881   7.580  24.420  24.950
 3085DOPG   D2B58882   7.340  24.070  24.940
 3085DOPG   C3B58883   6.960  24.060  24.730
 3085DOPG   C4B58884   6.520  24.140  24.610
 3086DOPG   GL058885  17.550  23.080  17.630
 3086DOPG   PO458886  17.170  22.950  17.520
 3086DOPG   GL158887  16.820  22.880  17.280
 3086DOPG   GL258888  16.650  23.230  17.450
 3086DOPG   C1A58889  16.470  22.530  17.380
 3086DOPG   D2A58890  16.100  22.430  17.370
 3086DOPG   C3A58891  15.970  22.290  16.950
 3086DOPG   C4A58892  15.640  22.100  16.740
 3086DOPG   C1B58893  16.320  22.990  17.260
 3086DOPG   D2B58894  16.340  22.720  16.890
 3086DOPG   C3B58895  16.470  22.280  16.920
 3086DOPG   C4B58896  16.310  21.970  17.200
 3087DOPG   GL058897  15.070  23.350   3.460
 3087DOPG   PO458898  15.060  23.560   3.980
 3087DOPG   GL158899  15.140  23.450   4.450
 3087DOPG   GL258900  15.270  23.520   4.730
 3087DOPG   C1A58901  14.990  23.130   4.700
 3087DOPG   D2A58902  14.540  23.060   4.730
 3087DOPG   C3A58903  14.260  23.090   4.370
 3087DOPG   C4A58904  13.820  23.130   4.350
 3087DOPG   C1B58905  15.230  23.180   5.100
 3087DOPG   D2B58906  15.000  22.920   5.430
 3087DOPG   C3B58907  15.220  22.830   5.810
 3087DOPG   C4B58908  15.160  22.730   6.260
 3088DOPG   GL058909   9.280  14.220  18.960
 3088DOPG   PO458910   9.670  14.150  19.050
 3088DOPG   GL158911   9.710  14.570  18.820
 3088DOPG   GL258912   9.930  14.920  18.980
 3088DOPG   C1A58913   9.840  14.810  18.500
 3088DOPG   D2A58914   9.940  15.050  18.160
 3088DOPG   C3A58915  10.270  15.380  18.250
 3088DOPG   C4A58916  10.630  15.580  18.270
 3088DOPG   C1B58917  10.020  15.430  18.730
 3088DOPG   D2B58918  10.280  15.750  18.630
 3088DOPG   C3B58919  10.150  15.860  18.340
 3088DOPG   C4B58920  10.160  15.800  17.960
 3089DOPG   GL058921  17.590  21.700  18.360
 3089DOPG   PO458922  17.680  21.470  18.040
 3089DOPG   GL158923  17.270  21.460  17.980
 3089DOPG   GL258924  17.110  21.660  18.140
 3089DOPG   C1A58925  17.020  21.100  17.750
 3089DOPG   D2A58926  16.810  20.860  17.480
 3089DOPG   C3A58927  16.470  20.810  17.760
 3089DOPG   C4A58928  16.100  21.010  17.910
 3089DOPG   C1B58929  16.830  21.580  17.780
 3089DOPG   D2B58930  16.720  21.570  17.330
 3089DOPG   C3B58931  16.370  21.410  16.990
 3089DOPG   C4B58932  16.220  21.130  16.630
 3090DOPG   GL058933  35.000  15.900  19.340
 3090DOPG   PO458934  35.210  16.290  19.110
 3090DOPG   GL158935  35.640  16.300  18.840
 3090DOPG   GL258936  35.740  16.550  19.050
 3090DOPG   C1A58937  35.710  16.200  18.330
 3090DOPG   D2A58938  35.970  15.950  18.120
 3090DOPG   C3A58939   0.050  15.730  18.050
 3090DOPG   C4A58940   0.450  15.650  18.160
 3090DOPG   C1B58941  35.940  16.880  19.030
 3090DOPG   D2B58942  36.080  17.100  18.640
 3090DOPG   C3B58943  36.030  17.510  18.490
 3090DOPG   C4B58944  36.110  17.970  18.290
 3091DOPG   GL058945   6.500  21.210  11.620
 3091DOPG   PO458946   6.280  20.930  11.510
 3091DOPG   GL158947   6.630  20.710  11.700
 3091DOPG   GL258948   6.840  20.890  11.700
 3091DOPG   C1A58949   7.010  20.410  11.610
 3091DOPG   D2A58950   7.330  20.410  11.830
 3091DOPG   C3A58951   7.520  20.060  12.080
 3091DOPG   C4A58952   7.830  19.900  12.380
 3091DOPG   C1B58953   7.240  20.980  11.780
 3091DOPG   D2B58954   7.520  20.870  12.140
 3091DOPG   C3B58955   7.650  20.420  12.360
 3091DOPG   C4B58956   7.410  20.140  12.580
 3092DOPG   GL058957   7.240  20.130  21.250
 3092DOPG   PO458958   6.960  19.890  20.900
 3092DOPG   GL158959   7.320  19.570  20.580
 3092DOPG   GL258960   7.500  19.300  20.630
 3092DOPG   C1A58961   7.750  19.580  20.300
 3092DOPG   D2A58962   7.960  19.220  19.980
 3092DOPG   C3A58963   7.840  18.970  19.630
 3092DOPG   C4A58964   7.590  18.920  19.280
 3092DOPG   C1B58965   7.810  19.580  20.740
 3092DOPG   D2B58966   8.110  19.290  20.640
 3092DOPG   C3B58967   8.350  19.270  20.380
 3092DOPG   C4B58968   8.420  19.470  20.050
 3093DOPG   GL058969  12.550  26.460  15.350
 3093DOPG   PO458970  12.160  26.570  15.570
 3093DOPG   GL158971  12.060  26.100  15.480
 3093DOPG   GL258972  11.940  25.900  15.750
 3093DOPG   C1A58973  12.170  25.570  15.400
 3093DOPG   D2A58974  12.110  25.090  15.400
 3093DOPG   C3A58975  12.200  24.690  15.710
 3093DOPG   C4A58976  11.910  24.560  16.120
 3093DOPG   C1B58977  11.920  25.570  16.210
 3093DOPG   D2B58978  11.960  25.750  16.700
 3093DOPG   C3B58979  12.170  25.390  17.010
 3093DOPG   C4B58980  12.620  25.420  16.830
 3094DOPG   GL058981   9.570  16.780  20.520
 3094DOPG   PO458982   9.730  17.100  20.710
 3094DOPG   GL158983   9.790  17.250  20.300
 3094DOPG   GL258984   9.580  17.130  20.190
 3094DOPG   C1A58985   9.960  17.390  19.950
 3094DOPG   D2A58986  10.040  17.520  19.580
 3094DOPG   C3A58987  10.020  17.910  19.470
 3094DOPG   C4A58988  10.350  18.170  19.160
 3094DOPG   C1B58989   9.400  17.310  19.750
 3094DOPG   D2B58990   9.410  17.260  19.250
 3094DOPG   C3B58991   9.230  17.120  18.850
 3094DOPG   C4B58992   9.540  17.100  18.470
 3095DOPG   GL058993   6.980  26.350  13.020
 3095DOPG   PO458994   6.770  26.700  13.040
 3095DOPG   GL158995   6.880  27.070  13.000
 3095DOPG   GL258996   7.180  27.150  13.010
 3095DOPG   C1A58997   6.710  27.440  12.960
 3095DOPG   D2A58998   6.730  27.830  12.760
 3095DOPG   C3A58999   6.580  28.090  12.620
 3095DOPG   C4A59000   6.530  28.300  12.280
 3095DOPG   C1B59001   7.170  27.490  12.790
 3095DOPG   D2B59002   7.310  27.820  12.690
 3095DOPG   C3B59003   7.080  28.090  12.400
 3095DOPG   C4B59004   6.980  28.410  12.170
 3096DOPG   GL059005   4.120  15.390  11.110
 3096DOPG   PO459006   3.820  15.270  11.370
 3096DOPG   GL159007   3.430  15.080  11.290
 3096DOPG   GL259008   3.320  14.760  11.430
 3096DOPG   C1A59009   3.150  14.940  10.890
 3096DOPG   D2A59010   2.950  14.840  10.580
 3096DOPG   C3A59011   2.860  14.830  10.140
 3096DOPG   C4A59012   2.770  14.630   9.750
 3096DOPG   C1B59013   3.100  14.520  11.190
 3096DOPG   D2B59014   2.690  14.480  10.830
 3096DOPG   C3B59015   2.630  13.990  10.700
 3096DOPG   C4B59016   2.800  13.490  10.720
 3097DOPG   GL059017   9.940  11.890  13.020
 3097DOPG   PO459018  10.310  11.860  12.960
 3097DOPG   GL159019  10.570  12.080  13.290
 3097DOPG   GL259020  10.500  12.060  13.600
 3097DOPG   C1A59021  10.810  12.390  13.240
 3097DOPG   D2A59022  10.680  12.800  13.180
 3097DOPG   C3A59023  10.500  13.240  13.160
 3097DOPG   C4A59024  10.460  13.530  12.820
 3097DOPG   C1B59025  10.450  12.550  13.590
 3097DOPG   D2B59026  10.540  12.980  13.630
 3097DOPG   C3B59027  10.280  13.280  13.670
 3097DOPG   C4B59028  10.200  13.730  13.820
 3098DOPG   GL059029  10.920  16.550   8.020
 3098DOPG   PO459030  11.010  16.380   8.340
 3098DOPG   GL159031  11.100  16.710   8.600
 3098DOPG   GL259032  11.180  16.940   8.470
 3098DOPG   C1A59033  11.310  16.960   9.010
 3098DOPG   D2A59034  11.250  16.630   9.330
 3098DOPG   C3A59035  11.170  16.830   9.770
 3098DOPG   C4A59036  11.080  17.190  10.100
 3098DOPG   C1B59037  11.250  17.360   8.730
 3098DOPG   D2B59038  11.420  17.670   9.030
 3098DOPG   C3B59039  11.420  17.670   9.510
 3098DOPG   C4B59040  11.500  17.460   9.930
 3099DOPG   GL059041   1.340  18.880  15.940
 3099DOPG   PO459042   1.430  18.880  15.490
 3099DOPG   GL159043   0.980  18.820  15.500
 3099DOPG   GL259044   0.780  19.090  15.320
 3099DOPG   C1A59045   0.540  18.660  15.550
 3099DOPG   D2A59046   0.210  18.580  15.330
 3099DOPG   C3A59047  36.310  18.270  15.270
 3099DOPG   C4A59048  35.900  18.110  15.160
 3099DOPG   C1B59049   0.660  18.830  15.120
 3099DOPG   D2B59050   0.720  18.420  15.100
 3099DOPG   C3B59051   0.530  18.170  15.260
 3099DOPG   C4B59052   0.260  18.080  15.610
 3100DOPG   GL059053  10.780  26.400  16.800
 3100DOPG   PO459054  10.560  26.400  17.130
 3100DOPG   GL159055  10.480  26.000  17.200
 3100DOPG   GL259056  10.710  25.920  17.030
 3100DOPG   C1A59057  10.390  25.560  17.270
 3100DOPG   D2A59058  10.380  25.440  17.670
 3100DOPG   C3A59059  10.120  25.080  17.950
 3100DOPG   C4A59060   9.750  25.120  17.930
 3100DOPG   C1B59061  10.800  25.400  17.080
 3100DOPG   D2B59062  10.680  25.110  17.340
 3100DOPG   C3B59063  10.720  24.710  17.340
 3100DOPG   C4B59064  10.460  24.490  17.150
 3101DOPG   GL059065   1.050  29.100  14.760
 3101DOPG   PO459066   1.380  28.750  14.810
 3101DOPG   GL159067   1.550  28.280  14.740
 3101DOPG   GL259068   1.830  28.380  14.870
 3101DOPG   C1A59069   1.590  27.800  14.750
 3101DOPG   D2A59070   1.730  27.450  14.940
 3101DOPG   C3A59071   1.440  27.180  15.110
 3101DOPG   C4A59072   1.350  26.780  15.100
 3101DOPG   C1B59073   2.280  28.570  14.960
 3101DOPG   D2B59074   2.640  28.890  15.130
 3101DOPG   C3B59075   2.980  28.670  14.960
 3101DOPG   C4B59076   3.090  28.210  15.090
 3102DOPG   GL059077   5.930  20.160  12.310
 3102DOPG   PO459078   6.000  19.810  11.960
 3102DOPG   GL159079   6.290  19.470  12.060
 3102DOPG   GL259080   6.470  19.290  11.780
 3102DOPG   C1A59081   6.800  19.450  12.140
 3102DOPG   D2A59082   7.300  19.640  12.190
 3102DOPG   C3A59083   7.700  19.640  11.930
 3102DOPG   C4A59084   8.100  19.540  11.860
 3102DOPG   C1B59085   6.720  19.010  11.970
 3102DOPG   D2B59086   7.010  18.810  12.300
 3102DOPG   C3B59087   7.280  19.190  12.460
 3102DOPG   C4B59088   7.630  19.420  12.470
 3103DOPG   GL059089  20.760  21.160   6.720
 3103DOPG   PO459090  20.900  21.000   6.360
 3103DOPG   GL159091  20.520  20.740   6.660
 3103DOPG   GL259092  20.360  20.520   6.540
 3103DOPG   C1A59093  20.420  21.030   7.070
 3103DOPG   D2A59094  20.460  21.360   7.160
 3103DOPG   C3A59095  20.240  21.570   7.370
 3103DOPG   C4A59096  19.860  21.870   7.270
 3103DOPG   C1B59097  20.030  20.440   6.770
 3103DOPG   D2B59098  20.100  20.540   7.160
 3103DOPG   C3B59099  19.800  20.600   7.530
 3103DOPG   C4B59100  19.510  20.850   7.800
 3104DOPG   GL059101  13.570  14.430  19.900
 3104DOPG   PO459102  13.400  14.700  19.580
 3104DOPG   GL159103  13.470  14.800  19.110
 3104DOPG   GL259104  13.280  14.690  18.880
 3104DOPG   C1A59105  13.700  15.050  18.710
 3104DOPG   D2A59106  13.410  15.440  18.390
 3104DOPG   C3A59107  13.450  15.830  18.520
 3104DOPG   C4A59108  13.190  16.050  18.780
 3104DOPG   C1B59109  13.200  15.010  18.610
 3104DOPG   D2B59110  12.840  15.330  18.530
 3104DOPG   C3B59111  12.920  15.710  18.330
 3104DOPG   C4B59112  12.780  16.050  18.210
 3105DOPG   GL059113   7.370  23.210  12.850
 3105DOPG   PO459114   7.140  23.140  12.560
 3105DOPG   GL159115   7.320  22.660  12.480
 3105DOPG   GL259116   7.270  22.520  12.770
 3105DOPG   C1A59117   7.710  22.710  12.460
 3105DOPG   D2A59118   8.110  22.710  12.320
 3105DOPG   C3A59119   8.340  23.090  12.410
 3105DOPG   C4A59120   8.330  23.420  12.130
 3105DOPG   C1B59121   7.690  22.760  12.940
 3105DOPG   D2B59122   8.110  22.920  12.770
 3105DOPG   C3B59123   8.520  22.710  12.710
 3105DOPG   C4B59124   8.650  22.350  12.880
 3106DOPG   GL059125   7.730  29.580  20.790
 3106DOPG   PO459126   7.660  29.840  20.470
 3106DOPG   GL159127   7.650  29.460  20.210
 3106DOPG   GL259128   7.650  29.600  19.920
 3106DOPG   C1A59129   7.740  28.980  20.410
 3106DOPG   D2A59130   7.810  28.590  20.140
 3106DOPG   C3A59131   8.230  28.380  20.180
 3106DOPG   C4A59132   8.600  28.470  19.960
 3106DOPG   C1B59133   7.300  29.360  19.800
 3106DOPG   D2B59134   6.970  29.480  19.420
 3106DOPG   C3B59135   6.750  29.070  19.420
 3106DOPG   C4B59136   6.350  28.830  19.420
 3107DOPG   GL059137  18.690  16.350  14.190
 3107DOPG   PO459138  18.610  15.980  14.590
 3107DOPG   GL159139  18.290  16.360  14.570
 3107DOPG   GL259140  18.070  16.220  14.740
 3107DOPG   C1A59141  18.210  16.690  14.400
 3107DOPG   D2A59142  18.230  17.070  14.200
 3107DOPG   C3A59143  17.820  17.280  14.170
 3107DOPG   C4A59144  17.670  17.520  14.390
 3107DOPG   C1B59145  17.850  16.600  14.750
 3107DOPG   D2B59146  17.480  16.750  15.030
 3107DOPG   C3B59147  17.430  17.080  15.220
 3107DOPG   C4B59148  17.450  17.450  15.340
 3108DOPG   GL059149  36.220  20.410  21.290
 3108DOPG   PO459150  36.080  20.120  21.200
 3108DOPG   GL159151   0.080  19.920  21.110
 3108DOPG   GL259152   0.210  19.960  21.350
 3108DOPG   C1A59153   0.410  19.710  20.870
 3108DOPG   D2A59154   0.880  19.680  20.750
 3108DOPG   C3A59155   1.260  19.730  20.670
 3108DOPG   C4A59156   1.770  19.920  20.820
 3108DOPG   C1B59157   0.610  20.230  21.570
 3108DOPG   D2B59158   0.790  20.600  21.320
 3108DOPG   C3B59159   1.230  20.640  21.250
 3108DOPG   C4B59160   1.670  20.600  21.340
 3109DOPG   GL059161   5.440  15.460  15.250
 3109DOPG   PO459162   5.780  15.620  15.470
 3109DOPG   GL159163   6.140  15.700  15.630
 3109DOPG   GL259164   6.160  15.960  15.530
 3109DOPG   C1A59165   6.620  15.730  15.700
 3109DOPG   D2A59166   6.930  15.990  15.860
 3109DOPG   C3A59167   7.400  15.820  15.650
 3109DOPG   C4A59168   7.720  15.820  15.420
 3109DOPG   C1B59169   5.960  16.340  15.650
 3109DOPG   D2B59170   5.750  16.730  15.640
 3109DOPG   C3B59171   5.880  16.990  15.300
 3109DOPG   C4B59172   6.070  16.890  14.970
 3110DOPG   GL059173   7.910  24.430  18.730
 3110DOPG   PO459174   8.350  24.550  18.580
 3110DOPG   GL159175   8.640  24.360  18.250
 3110DOPG   GL259176   8.920  24.160  18.140
 3110DOPG   C1A59177   8.980  24.560  17.870
 3110DOPG   D2A59178   9.430  24.450  17.960
 3110DOPG   C3A59179   9.570  24.160  17.590
 3110DOPG   C4A59180   9.960  23.950  17.630
 3110DOPG   C1B59181   9.250  24.020  17.980
 3110DOPG   D2B59182   9.410  23.650  17.870
 3110DOPG   C3B59183   9.650  23.560  17.510
 3110DOPG   C4B59184   9.650  23.770  17.200
 3111DOPG   GL059185  14.380  20.280   8.390
 3111DOPG   PO459186  14.300  20.660   8.320
 3111DOPG   GL159187  14.400  20.660   8.790
 3111DOPG   GL259188  14.240  20.880   8.880
 3111DOPG   C1A59189  14.520  20.490   9.210
 3111DOPG   D2A59190  14.370  20.420   9.680
 3111DOPG   C3A59191  14.600  20.460  10.070
 3111DOPG   C4A59192  14.560  20.410  10.500
 3111DOPG   C1B59193  14.000  21.130   9.220
 3111DOPG   D2B59194  13.910  21.340   9.580
 3111DOPG   C3B59195  13.730  21.400   9.990
 3111DOPG   C4B59196  13.490  21.290  10.310
 3112DOPG   GL059197  13.950  18.170   8.540
 3112DOPG   PO459198  14.320  18.360   8.410
 3112DOPG   GL159199  14.290  18.590   8.720
 3112DOPG   GL259200  13.940  18.810   8.690
 3112DOPG   C1A59201  14.120  18.810   9.200
 3112DOPG   D2A59202  14.010  18.930   9.620
 3112DOPG   C3A59203  13.930  18.770   9.960
 3112DOPG   C4A59204  13.710  18.610  10.380
 3112DOPG   C1B59205  13.710  18.620   8.990
 3112DOPG   D2B59206  13.930  18.300   9.060
 3112DOPG   C3B59207  13.810  18.060   9.370
 3112DOPG   C4B59208  13.740  17.970   9.720
 3113DOPG   GL059209  34.650  17.160  19.520
 3113DOPG   PO459210  34.830  17.130  19.120
 3113DOPG   GL159211  35.220  17.310  18.850
 3113DOPG   GL259212  35.590  17.300  18.950
 3113DOPG   C1A59213  35.490  17.690  18.660
 3113DOPG   D2A59214  35.390  18.040  18.400
 3113DOPG   C3A59215  35.610  18.220  18.070
 3113DOPG   C4A59216  35.800  18.180  17.640
 3113DOPG   C1B59217  36.020  17.470  19.040
 3113DOPG   D2B59218  36.360  17.140  19.230
 3113DOPG   C3B59219  36.340  16.720  19.250
 3113DOPG   C4B59220  36.240  16.310  18.970
 3114DOPG   GL059221   4.210  25.310  17.100
 3114DOPG   PO459222   4.150  25.580  17.380
 3114DOPG   GL159223   3.860  25.900  17.240
 3114DOPG   GL259224   3.730  25.920  17.510
 3114DOPG   C1A59225   3.560  26.290  17.290
 3114DOPG   D2A59226   3.250  26.600  17.320
 3114DOPG   C3A59227   2.900  26.690  17.540
 3114DOPG   C4A59228   2.760  27.040  17.750
 3114DOPG   C1B59229   3.590  26.200  17.770
 3114DOPG   D2B59230   3.510  26.660  17.850
 3114DOPG   C3B59231   3.410  26.980  17.660
 3114DOPG   C4B59232   3.080  27.180  17.420
 3115DOPG   GL059233  15.480  16.640   9.330
 3115DOPG   PO459234  15.410  16.570   8.860
 3115DOPG   GL159235  15.000  16.600   9.130
 3115DOPG   GL259236  14.970  16.400   9.290
 3115DOPG   C1A59237  14.680  16.940   9.230
 3115DOPG   D2A59238  14.360  17.370   9.270
 3115DOPG   C3A59239  13.960  17.490   9.260
 3115DOPG   C4A59240  13.590  17.550   9.510
 3115DOPG   C1B59241  14.960  16.740   9.590
 3115DOPG   D2B59242  14.980  16.810   9.950
 3115DOPG   C3B59243  14.590  16.780  10.180
 3115DOPG   C4B59244  14.200  16.930  10.330
 3116DOPG   GL059245  10.740  23.570  20.700
 3116DOPG   PO459246  10.930  23.710  20.240
 3116DOPG   GL159247  10.990  23.510  19.810
 3116DOPG   GL259248  10.770  23.480  19.620
 3116DOPG   C1A59249  11.370  23.430  19.520
 3116DOPG   D2A59250  11.610  23.600  19.190
 3116DOPG   C3A59251  12.110  23.620  19.160
 3116DOPG   C4A59252  12.460  23.330  18.890
 3116DOPG   C1B59253  11.030  23.150  19.300
 3116DOPG   D2B59254  11.400  23.080  19.070
 3116DOPG   C3B59255  11.530  23.350  18.760
 3116DOPG   C4B59256  11.880  23.630  18.750
 3117DOPG   GL059257  16.810  13.670  13.940
 3117DOPG   PO459258  17.060  14.010  13.880
 3117DOPG   GL159259  16.760  14.340  13.790
 3117DOPG   GL259260  16.450  14.270  13.750
 3117DOPG   C1A59261  16.640  14.770  14.000
 3117DOPG   D2A59262  16.470  15.100  14.390
 3117DOPG   C3A59263  16.260  15.470  14.460
 3117DOPG   C4A59264  16.110  15.790  14.140
 3117DOPG   C1B59265  16.090  14.050  13.420
 3117DOPG   D2B59266  16.060  13.860  12.960
 3117DOPG   C3B59267  15.710  13.760  12.760
 3117DOPG   C4B59268  15.450  13.450  12.610
 3118DOPG   GL059269  15.490  22.190  20.140
 3118DOPG   PO459270  15.710  21.850  19.780
 3118DOPG   GL159271  15.270  21.730  19.860
 3118DOPG   GL259272  14.970  21.950  19.710
 3118DOPG   C1A59273  14.960  21.420  19.710
 3118DOPG   D2A59274  14.770  20.930  19.770
 3118DOPG   C3A59275  14.700  20.680  19.430
 3118DOPG   C4A59276  14.710  20.820  18.970
 3118DOPG   C1B59277  14.800  22.170  19.360
 3118DOPG   D2B59278  14.720  22.210  18.970
 3118DOPG   C3B59279  14.370  22.110  18.810
 3118DOPG   C4B59280  14.070  21.870  18.540
 3119DOPG   GL059281   6.860  13.550  15.630
 3119DOPG   PO459282   6.970  13.850  15.760
 3119DOPG   GL159283   7.200  14.260  15.640
 3119DOPG   GL259284   7.370  14.270  16.040
 3119DOPG   C1A59285   7.310  14.660  15.690
 3119DOPG   D2A59286   7.320  15.070  15.520
 3119DOPG   C3A59287   7.570  15.290  15.230
 3119DOPG   C4A59288   7.690  15.600  14.930
 3119DOPG   C1B59289   7.770  14.120  15.780
 3119DOPG   D2B59290   8.230  14.240  15.740
 3119DOPG   C3B59291   8.260  13.990  15.400
 3119DOPG   C4B59292   8.120  13.810  15.080
 3120DOPG   GL059293   5.900  24.090  26.140
 3120DOPG   PO459294   6.130  24.090  25.760
 3120DOPG   GL159295   6.490  23.900  25.600
 3120DOPG   GL259296   6.730  24.140  25.620
 3120DOPG   C1A59297   6.810  23.620  25.510
 3120DOPG   D2A59298   7.030  23.380  25.260
 3120DOPG   C3A59299   6.990  23.610  24.880
 3120DOPG   C4A59300   7.270  23.470  24.530
 3120DOPG   C1B59301   6.780  24.080  25.250
 3120DOPG   D2B59302   6.500  23.760  25.080
 3120DOPG   C3B59303   6.410  23.320  25.080
 3120DOPG   C4B59304   6.110  23.040  25.110
 3121DOPG   GL059305  12.600  22.800   8.480
 3121DOPG   PO459306  12.600  23.310   8.370
 3121DOPG   GL159307  12.760  23.710   8.070
 3121DOPG   GL259308  12.930  23.660   7.730
 3121DOPG   C1A59309  12.710  24.130   7.730
 3121DOPG   D2A59310  12.780  24.430   7.480
 3121DOPG   C3A59311  12.730  24.800   7.050
 3121DOPG   C4A59312  12.720  25.050   6.700
 3121DOPG   C1B59313  12.800  23.920   7.260
 3121DOPG   D2B59314  12.730  24.290   6.990
 3121DOPG   C3B59315  12.660  24.520   6.600
 3121DOPG   C4B59316  12.550  24.730   6.230
 3122DOPG   GL059317  17.150  18.120   9.380
 3122DOPG   PO459318  17.210  18.080   8.880
 3122DOPG   GL159319  17.490  18.080   8.560
 3122DOPG   GL259320  17.490  18.310   8.360
 3122DOPG   C1A59321  17.980  18.100   8.360
 3122DOPG   D2A59322  18.210  18.190   7.890
 3122DOPG   C3A59323  18.480  18.490   7.740
 3122DOPG   C4A59324  18.800  18.810   7.780
 3122DOPG   C1B59325  17.840  18.610   8.320
 3122DOPG   D2B59326  18.250  18.560   8.200
 3122DOPG   C3B59327  18.550  18.220   8.240
 3122DOPG   C4B59328  18.800  17.920   7.980
 3123DOPG   GL059329  12.980  11.950  12.940
 3123DOPG   PO459330  12.540  11.860  13.070
 3123DOPG   GL159331  12.190  12.140  13.230
 3123DOPG   GL259332  12.420  12.310  13.350
 3123DOPG   C1A59333  11.880  12.330  13.250
 3123DOPG   D2A59334  11.700  12.780  13.200
 3123DOPG   C3A59335  11.880  13.230  13.160
 3123DOPG   C4A59336  11.840  13.680  13.080
 3123DOPG   C1B59337  12.690  12.620  13.510
 3123DOPG   D2B59338  13.000  12.770  13.830
 3123DOPG   C3B59339  12.940  12.910  14.270
 3123DOPG   C4B59340  12.830  13.160  14.620
 3124DOPG   GL059341  13.430  24.370   9.620
 3124DOPG   PO459342  13.400  24.360  10.040
 3124DOPG   GL159343  13.640  24.030  10.090
 3124DOPG   GL259344  13.350  23.840  10.010
 3124DOPG   C1A59345  13.820  23.790  10.450
 3124DOPG   D2A59346  14.120  23.530  10.790
 3124DOPG   C3A59347  14.000  23.320  11.150
 3124DOPG   C4A59348  14.040  22.970  11.210
 3124DOPG   C1B59349  13.270  23.710  10.400
 3124DOPG   D2B59350  13.380  23.840  10.730
 3124DOPG   C3B59351  13.060  24.150  11.010
 3124DOPG   C4B59352  12.620  24.290  10.970
 3125DOPG   GL059353  14.210  12.420  15.890
 3125DOPG   PO459354  14.590  12.660  16.110
 3125DOPG   GL159355  14.150  12.860  16.250
 3125DOPG   GL259356  13.790  12.740  16.020
 3125DOPG   C1A59357  13.800  13.180  16.330
 3125DOPG   D2A59358  13.520  13.380  16.030
 3125DOPG   C3A59359  13.580  13.730  15.800
 3125DOPG   C4A59360  13.860  14.100  16.020
 3125DOPG   C1B59361  13.890  13.140  15.800
 3125DOPG   D2B59362  13.840  13.460  15.480
 3125DOPG   C3B59363  13.720  13.610  15.060
 3125DOPG   C4B59364  13.400  13.540  14.810
 3126DOPG   GL059365  10.700  28.190  13.940
 3126DOPG   PO459366  10.340  28.130  13.990
 3126DOPG   GL159367  10.160  28.450  14.090
 3126DOPG   GL259368  10.240  28.660  13.810
 3126DOPG   C1A59369   9.980  28.770  14.400
 3126DOPG   D2A59370  10.100  29.070  14.710
 3126DOPG   C3A59371  10.240  29.430  14.490
 3126DOPG   C4A59372  10.510  29.480  14.180
 3126DOPG   C1B59373  10.370  28.970  13.580
 3126DOPG   D2B59374  10.190  29.380  13.510
 3126DOPG   C3B59375   9.740  29.370  13.340
 3126DOPG   C4B59376   9.360  28.990  13.240
 3127DOPG   GL059377  16.530  29.040  19.950
 3127DOPG   PO459378  16.830  29.300  19.830
 3127DOPG   GL159379  16.890  28.840  19.700
 3127DOPG   GL259380  17.040  28.710  20.020
 3127DOPG   C1A59381  16.800  28.490  19.480
 3127DOPG   D2A59382  16.650  28.360  19.070
 3127DOPG   C3A59383  16.770  28.750  18.880
 3127DOPG   C4A59384  16.680  28.940  18.590
 3127DOPG   C1B59385  17.230  28.360  19.840
 3127DOPG   D2B59386  17.370  27.950  19.680
 3127DOPG   C3B59387  17.120  27.670  19.390
 3127DOPG   C4B59388  16.810  27.360  19.480
 3128DOPG   GL059389  10.500  21.780  21.840
 3128DOPG   PO459390  10.680  21.970  21.500
 3128DOPG   GL159391  10.920  21.830  21.080
 3128DOPG   GL259392  11.090  21.420  21.040
 3128DOPG   C1A59393  10.800  21.540  20.670
 3128DOPG   D2A59394  10.700  21.260  20.320
 3128DOPG   C3A59395  10.890  21.010  20.000
 3128DOPG   C4A59396  11.190  20.590  20.020
 3128DOPG   C1B59397  10.950  21.050  20.800
 3128DOPG   D2B59398  10.980  20.760  20.420
 3128DOPG   C3B59399  11.160  20.300  20.460
 3128DOPG   C4B59400  11.190  20.110  20.090
 3129DOPG   GL059401   4.900  14.030   5.250
 3129DOPG   PO459402   5.210  13.860   5.210
 3129DOPG   GL159403   5.420  14.150   5.510
 3129DOPG   GL259404   5.170  14.330   5.650
 3129DOPG   C1A59405   5.810  14.110   5.710
 3129DOPG   D2A59406   5.860  14.170   6.150
 3129DOPG   C3A59407   5.770  13.790   6.370
 3129DOPG   C4A59408   5.880  13.610   6.710
 3129DOPG   C1B59409   5.440  14.510   6.020
 3129DOPG   D2B59410   5.500  14.650   6.370
 3129DOPG   C3B59411   5.960  14.540   6.470
 3129DOPG   C4B59412   6.250  14.260   6.560
 3130DOPG   GL059413  18.050  23.030  15.060
 3130DOPG   PO459414  17.730  23.300  15.360
 3130DOPG   GL159415  17.330  23.020  15.270
 3130DOPG   GL259416  16.980  23.240  15.200
 3130DOPG   C1A59417  16.890  22.740  15.360
 3130DOPG   D2A59418  16.670  22.800  15.830
 3130DOPG   C3A59419  16.410  22.480  16.010
 3130DOPG   C4A59420  16.000  22.210  15.940
 3130DOPG   C1B59421  17.100  22.900  14.860
 3130DOPG   D2B59422  16.920  22.700  14.500
 3130DOPG   C3B59423  16.640  22.260  14.590
 3130DOPG   C4B59424  16.560  21.780  14.620
 3131DOPG   GL059425   1.470  12.550  19.160
 3131DOPG   PO459426   1.410  12.990  19.390
 3131DOPG   GL159427   1.840  13.180  19.420
 3131DOPG   GL259428   1.750  13.390  19.190
 3131DOPG   C1A59429   2.190  13.320  19.500
 3131DOPG   D2A59430   2.670  13.360  19.460
 3131DOPG   C3A59431   2.920  13.670  19.740
 3131DOPG   C4A59432   3.150  14.110  19.670
 3131DOPG   C1B59433   2.110  13.700  19.150
 3131DOPG   D2B59434   2.390  14.040  19.220
 3131DOPG   C3B59435   2.900  13.880  19.260
 3131DOPG   C4B59436   3.290  13.690  19.160
 3132DOPG   GL059437  10.950  11.800  12.070
 3132DOPG   PO459438  11.210  12.040  12.090
 3132DOPG   GL159439  11.430  12.400  12.230
 3132DOPG   GL259440  11.710  12.600  12.150
 3132DOPG   C1A59441  11.340  12.850  12.310
 3132DOPG   D2A59442  11.340  13.200  12.450
 3132DOPG   C3A59443  11.430  13.120  12.840
 3132DOPG   C4A59444  11.370  13.200  13.180
 3132DOPG   C1B59445  11.850  12.880  12.570
 3132DOPG   D2B59446  11.950  13.270  12.670
 3132DOPG   C3B59447  11.740  13.580  12.530
 3132DOPG   C4B59448  11.700  14.020  12.610
 3133DOPG   GL059449  14.160  14.210  19.270
 3133DOPG   PO459450  13.980  14.470  19.050
 3133DOPG   GL159451  14.060  14.720  18.720
 3133DOPG   GL259452  14.360  14.890  18.800
 3133DOPG   C1A59453  13.970  15.060  18.300
 3133DOPG   D2A59454  13.880  15.300  18.050
 3133DOPG   C3A59455  13.940  15.680  17.700
 3133DOPG   C4A59456  14.190  16.010  17.550
 3133DOPG   C1B59457  14.370  15.220  18.560
 3133DOPG   D2B59458  14.330  15.540  18.200
 3133DOPG   C3B59459  14.280  15.370  17.770
 3133DOPG   C4B59460  14.390  15.550  17.450
 3134DOPG   GL059461  14.850  14.860   9.370
 3134DOPG   PO459462  14.490  15.060   9.240
 3134DOPG   GL159463  14.290  15.520   9.230
 3134DOPG   GL259464  14.200  15.790   9.070
 3134DOPG   C1A59465  13.910  15.700   9.500
 3134DOPG   D2A59466  13.860  15.950   9.940
 3134DOPG   C3A59467  13.650  16.350  10.020
 3134DOPG   C4A59468  13.390  16.570   9.840
 3134DOPG   C1B59469  14.240  16.020   9.490
 3134DOPG   D2B59470  14.130  16.380   9.790
 3134DOPG   C3B59471  13.830  16.600   9.610
 3134DOPG   C4B59472  13.460  16.780   9.420
 3135DOPG   GL059473  14.940  22.000  20.780
 3135DOPG   PO459474  14.610  21.840  20.540
 3135DOPG   GL159475  14.200  21.800  20.340
 3135DOPG   GL259476  14.120  21.580  20.030
 3135DOPG   C1A59477  13.880  21.510  20.460
 3135DOPG   D2A59478  13.770  21.240  20.730
 3135DOPG   C3A59479  13.370  21.440  20.720
 3135DOPG   C4A59480  13.070  21.360  20.330
 3135DOPG   C1B59481  13.730  21.520  19.950
 3135DOPG   D2B59482  13.300  21.520  19.900
 3135DOPG   C3B59483  13.110  21.270  19.710
 3135DOPG   C4B59484  12.810  20.920  19.600
 3136DOPG   GL059485  24.170  18.850  12.120
 3136DOPG   PO459486  23.960  18.550  11.970
 3136DOPG   GL159487  23.920  18.130  12.100
 3136DOPG   GL259488  23.760  18.060  12.440
 3136DOPG   C1A59489  23.580  17.880  11.970
 3136DOPG   D2A59490  23.220  17.580  11.930
 3136DOPG   C3A59491  22.690  17.690  11.870
 3136DOPG   C4A59492  22.220  17.480  11.960
 3136DOPG   C1B59493  23.460  18.290  12.420
 3136DOPG   D2B59494  23.210  18.340  12.110
 3136DOPG   C3B59495  22.940  18.610  12.270
 3136DOPG   C4B59496  22.550  18.480  12.210
 3137DOPG   GL059497  18.020  16.840  17.130
 3137DOPG   PO459498  17.680  16.840  17.330
 3137DOPG   GL159499  17.560  17.080  17.110
 3137DOPG   GL259500  17.830  17.140  16.750
 3137DOPG   C1A59501  17.280  17.320  16.950
 3137DOPG   D2A59502  16.900  17.570  16.930
 3137DOPG   C3A59503  16.510  17.500  16.990
 3137DOPG   C4A59504  16.230  17.450  17.360
 3137DOPG   C1B59505  17.760  17.550  17.000
 3137DOPG   D2B59506  17.450  17.810  17.080
 3137DOPG   C3B59507  17.050  17.870  17.250
 3137DOPG   C4B59508  16.590  17.890  17.360
 3138DOPG   GL059509   6.530  21.630  18.080
 3138DOPG   PO459510   6.480  22.060  17.960
 3138DOPG   GL159511   6.670  22.020  17.570
 3138DOPG   GL259512   6.620  22.250  17.310
 3138DOPG   C1A59513   7.070  21.950  17.370
 3138DOPG   D2A59514   7.210  21.880  17.020
 3138DOPG   C3A59515   7.530  21.620  16.990
 3138DOPG   C4A59516   7.840  21.300  16.870
 3138DOPG   C1B59517   6.840  22.670  17.270
 3138DOPG   D2B59518   7.190  23.000  17.350
 3138DOPG   C3B59519   7.370  23.330  17.120
 3138DOPG   C4B59520   7.350  23.670  16.720
 3139DOPG   GL059521  10.710  25.050  10.590
 3139DOPG   PO459522  10.750  24.870  10.990
 3139DOPG   GL159523  10.820  24.650  11.390
 3139DOPG   GL259524  10.610  24.380  11.480
 3139DOPG   C1A59525  11.210  24.730  11.550
 3139DOPG   D2A59526  11.630  24.630  11.490
 3139DOPG   C3A59527  11.710  24.280  11.200
 3139DOPG   C4A59528  11.610  23.850  11.310
 3139DOPG   C1B59529  10.840  24.120  11.370
 3139DOPG   D2B59530  11.060  23.760  11.550
 3139DOPG   C3B59531  11.420  23.730  11.830
 3139DOPG   C4B59532  11.560  23.480  12.050
 3140DOPG   GL059533  12.460  11.430  23.750
 3140DOPG   PO459534  12.860  11.310  23.530
 3140DOPG   GL159535  12.850  11.480  23.120
 3140DOPG   GL259536  12.690  11.320  22.850
 3140DOPG   C1A59537  12.640  11.820  23.120
 3140DOPG   D2A59538  12.290  12.210  23.240
 3140DOPG   C3A59539  12.500  12.630  22.980
 3140DOPG   C4A59540  12.690  12.990  23.090
 3140DOPG   C1B59541  12.650  11.360  22.480
 3140DOPG   D2B59542  12.610  11.570  22.060
 3140DOPG   C3B59543  12.600  11.350  21.660
 3140DOPG   C4B59544  12.480  11.530  21.280
 3141DOPG   GL059545  13.280  26.570  16.810
 3141DOPG   PO459546  13.210  26.080  16.990
 3141DOPG   GL159547  13.090  25.670  16.890
 3141DOPG   GL259548  13.000  25.460  17.150
 3141DOPG   C1A59549  13.340  25.280  16.630
 3141DOPG   D2A59550  13.690  25.020  16.610
 3141DOPG   C3A59551  13.590  24.590  16.730
 3141DOPG   C4A59552  13.800  24.270  16.930
 3141DOPG   C1B59553  13.060  25.110  17.090
 3141DOPG   D2B59554  13.130  24.770  16.820
 3141DOPG   C3B59555  13.180  24.330  16.930
 3141DOPG   C4B59556  13.400  23.950  16.960
 3142DOPG   GL059557  10.530  13.890  19.660
 3142DOPG   PO459558  10.200  13.890  19.320
 3142DOPG   GL159559  10.330  14.180  19.030
 3142DOPG   GL259560  10.150  14.470  19.070
 3142DOPG   C1A59561  10.020  14.270  18.630
 3142DOPG   D2A59562   9.730  14.320  18.270
 3142DOPG   C3A59563   9.840  14.560  17.920
 3142DOPG   C4A59564  10.040  14.740  17.550
 3142DOPG   C1B59565  10.480  14.510  18.700
 3142DOPG   D2B59566  10.780  14.300  18.410
 3142DOPG   C3B59567  11.040  14.550  18.550
 3142DOPG   C4B59568  11.370  14.500  18.910
 3143DOPG   GL059569   4.930  23.460  10.770
 3143DOPG   PO459570   4.860  23.380  10.360
 3143DOPG   GL159571   4.700  23.690  10.190
 3143DOPG   GL259572   4.990  23.860   9.990
 3143DOPG   C1A59573   4.450  23.720   9.860
 3143DOPG   D2A59574   4.240  23.810   9.500
 3143DOPG   C3A59575   4.420  23.590   9.060
 3143DOPG   C4A59576   4.420  23.130   9.010
 3143DOPG   C1B59577   4.730  24.180   9.720
 3143DOPG   D2B59578   4.620  24.490   9.550
 3143DOPG   C3B59579   4.450  24.830   9.370
 3143DOPG   C4B59580   4.480  25.080   9.090
 3144DOPG   GL059581   4.520  18.870  20.530
 3144DOPG   PO459582   4.470  18.490  20.670
 3144DOPG   GL159583   4.020  18.450  20.900
 3144DOPG   GL259584   3.730  18.410  20.710
 3144DOPG   C1A59585   3.840  18.280  21.190
 3144DOPG   D2A59586   3.480  18.090  21.380
 3144DOPG   C3A59587   3.250  18.450  21.400
 3144DOPG   C4A59588   3.070  18.780  21.500
 3144DOPG   C1B59589   3.420  18.230  20.900
 3144DOPG   D2B59590   3.050  18.100  21.090
 3144DOPG   C3B59591   2.690  18.400  21.180
 3144DOPG   C4B59592   2.200  18.240  21.170
 3145DOPG   GL059593   7.510  18.540  20.440
 3145DOPG   PO459594   7.290  18.230  20.150
 3145DOPG   GL159595   7.530  18.110  19.780
 3145DOPG   GL259596   7.720  18.000  19.990
 3145DOPG   C1A59597   7.720  18.090  19.390
 3145DOPG   D2A59598   8.050  18.050  19.040
 3145DOPG   C3A59599   7.970  17.720  18.830
 3145DOPG   C4A59600   8.190  17.360  19.010
 3145DOPG   C1B59601   7.940  18.370  19.750
 3145DOPG   D2B59602   8.170  18.360  19.340
 3145DOPG   C3B59603   8.260  18.740  19.100
 3145DOPG   C4B59604   8.670  18.840  18.910
 3146DOPG   GL059605   4.760  16.630  19.070
 3146DOPG   PO459606   4.780  16.260  19.110
 3146DOPG   GL159607   4.700  15.980  19.540
 3146DOPG   GL259608   4.610  15.740  19.400
 3146DOPG   C1A59609   4.580  15.840  19.930
 3146DOPG   D2A59610   4.570  15.620  20.300
 3146DOPG   C3A59611   4.320  15.400  20.560
 3146DOPG   C4A59612   4.290  15.010  20.680
 3146DOPG   C1B59613   4.510  15.410  19.610
 3146DOPG   D2B59614   4.560  14.980  19.850
 3146DOPG   C3B59615   4.600  14.800  20.300
 3146DOPG   C4B59616   4.410  14.480  20.720
 3147DOPG   GL059617  18.030   8.310  18.170
 3147DOPG   PO459618  17.790   8.530  17.920
 3147DOPG   GL159619  17.600   8.790  17.570
 3147DOPG   GL259620  17.240   8.830  17.550
 3147DOPG   C1A59621  17.510   9.120  17.310
 3147DOPG   D2A59622  17.390   9.470  16.940
 3147DOPG   C3A59623  17.440   9.730  16.660
 3147DOPG   C4A59624  17.630   9.890  16.320
 3147DOPG   C1B59625  16.780   8.860  17.400
 3147DOPG   D2B59626  16.730   8.700  17.010
 3147DOPG   C3B59627  16.360   8.980  16.710
 3147DOPG   C4B59628  16.320   9.370  16.730
 3148DOPG   GL059629   5.000   8.070  11.880
 3148DOPG   PO459630   4.970   8.370  12.310
 3148DOPG   GL159631   5.050   8.840  12.490
 3148DOPG   GL259632   4.950   9.070  12.300
 3148DOPG   C1A59633   5.490   9.010  12.640
 3148DOPG   D2A59634   5.880   9.290  12.480
 3148DOPG   C3A59635   6.050   9.530  12.840
 3148DOPG   C4A59636   6.060   9.990  13.180
 3148DOPG   C1B59637   4.920   9.040  11.850
 3148DOPG   D2B59638   4.820   9.490  11.640
 3148DOPG   C3B59639   4.990   9.900  11.790
 3148DOPG   C4B59640   5.340  10.140  11.680
 3149DOPG   GL059641  15.910  20.810  19.800
 3149DOPG   PO459642  16.090  20.390  19.840
 3149DOPG   GL159643  16.130  20.080  19.630
 3149DOPG   GL259644  15.960  19.830  19.550
 3149DOPG   C1A59645  15.990  20.070  19.120
 3149DOPG   D2A59646  15.960  19.980  18.600
 3149DOPG   C3A59647  15.720  19.690  18.300
 3149DOPG   C4A59648  15.610  19.270  18.170
 3149DOPG   C1B59649  16.050  19.540  19.190
 3149DOPG   D2B59650  16.400  19.190  19.110
 3149DOPG   C3B59651  16.510  18.900  18.770
 3149DOPG   C4B59652  16.710  18.800  18.410
 3150DOPG   GL059653   5.430  18.160  16.450
 3150DOPG   PO459654   5.290  18.280  16.950
 3150DOPG   GL159655   5.640  18.520  16.740
 3150DOPG   GL259656   5.590  18.690  16.360
 3150DOPG   C1A59657   5.970  18.810  16.870
 3150DOPG   D2A59658   6.210  19.140  16.860
 3150DOPG   C3A59659   6.670  19.030  17.030
 3150DOPG   C4A59660   7.050  18.900  16.940
 3150DOPG   C1B59661   5.930  18.390  16.300
 3150DOPG   D2B59662   6.260  18.300  16.610
 3150DOPG   C3B59663   6.650  18.170  16.440
 3150DOPG   C4B59664   6.990  17.850  16.360
 3151DOPG   GL059665   7.440  14.030  17.160
 3151DOPG   PO459666   7.700  13.870  17.250
 3151DOPG   GL159667   8.040  14.040  17.030
 3151DOPG   GL259668   7.830  14.120  16.840
 3151DOPG   C1A59669   8.350  14.260  16.670
 3151DOPG   D2A59670   8.470  14.630  16.580
 3151DOPG   C3A59671   8.840  14.830  16.310
 3151DOPG   C4A59672   8.910  14.700  16.030
 3151DOPG   C1B59673   7.920  14.520  16.710
 3151DOPG   D2B59674   7.870  14.920  16.780
 3151DOPG   C3B59675   7.900  15.180  16.360
 3151DOPG   C4B59676   7.890  15.570  16.190
 3152DOPG   GL059677  11.600  21.450  21.380
 3152DOPG   PO459678  12.020  21.380  21.310
 3152DOPG   GL159679  11.900  21.580  20.950
 3152DOPG   GL259680  12.130  21.800  20.890
 3152DOPG   C1A59681  11.530  21.540  20.820
 3152DOPG   D2A59682  11.240  21.330  20.510
 3152DOPG   C3A59683  11.340  21.420  20.060
 3152DOPG   C4A59684  11.330  21.120  19.700
 3152DOPG   C1B59685  11.980  21.820  20.480
 3152DOPG   D2B59686  11.700  21.660  20.340
 3152DOPG   C3B59687  11.810  21.290  20.040
 3152DOPG   C4B59688  11.790  20.920  19.720
 3153DOPG   GL059689  17.380  22.680  12.640
 3153DOPG   PO459690  17.210  22.780  12.180
 3153DOPG   GL159691  16.910  22.570  12.240
 3153DOPG   GL259692  16.700  22.810  12.070
 3153DOPG   C1A59693  16.510  22.260  12.550
 3153DOPG   D2A59694  16.180  22.290  12.870
 3153DOPG   C3A59695  16.220  22.110  13.350
 3153DOPG   C4A59696  15.970  22.140  13.730
 3153DOPG   C1B59697  16.540  22.320  11.960
 3153DOPG   D2B59698  16.520  21.950  12.000
 3153DOPG   C3B59699  16.350  21.410  12.290
 3153DOPG   C4B59700  16.060  21.390  12.650
 3154DOPG   GL059701   2.140  17.590  13.940
 3154DOPG   PO459702   2.090  17.200  13.620
 3154DOPG   GL159703   1.680  17.180  13.430
 3154DOPG   GL259704   1.690  17.120  13.120
 3154DOPG   C1A59705   1.320  17.470  13.410
 3154DOPG   D2A59706   0.870  17.450  13.430
 3154DOPG   C3A59707   0.770  17.460  12.980
 3154DOPG   C4A59708   0.360  17.330  12.690
 3154DOPG   C1B59709   1.350  16.870  12.810
 3154DOPG   D2B59710   0.870  16.980  12.680
 3154DOPG   C3B59711   0.740  16.750  12.290
 3154DOPG   C4B59712   0.830  16.350  12.060
 3155DOPG   GL059713  14.890  23.280   9.200
 3155DOPG   PO459714  15.120  23.240   9.590
 3155DOPG   GL159715  15.010  22.990   9.930
 3155DOPG   GL259716  14.860  22.780   9.940
 3155DOPG   C1A59717  15.120  22.740  10.470
 3155DOPG   D2A59718  15.350  22.490  10.870
 3155DOPG   C3A59719  15.090  22.350  11.150
 3155DOPG   C4A59720  15.040  22.050  11.560
 3155DOPG   C1B59721  15.120  22.430  10.020
 3155DOPG   D2B59722  15.100  21.980  10.210
 3155DOPG   C3B59723  15.570  21.830  10.060
 3155DOPG   C4B59724  15.770  21.560  10.010
 3156DOPG   GL059725   8.770  13.190  17.810
 3156DOPG   PO459726   8.370  13.360  17.920
 3156DOPG   GL159727   8.590  13.780  17.930
 3156DOPG   GL259728   8.460  13.820  17.650
 3156DOPG   C1A59729   8.820  14.120  18.080
 3156DOPG   D2A59730   8.830  14.540  17.980
 3156DOPG   C3A59731   9.090  14.670  18.100
 3156DOPG   C4A59732   9.270  14.330  18.480
 3156DOPG   C1B59733   8.750  14.110  17.570
 3156DOPG   D2B59734   9.110  14.530  17.540
 3156DOPG   C3B59735   9.360  14.810  17.680
 3156DOPG   C4B59736   9.530  15.200  17.560
 3157DOPG   GL059737  34.020  21.520  11.550
 3157DOPG   PO459738  34.360  21.210  11.670
 3157DOPG   GL159739  34.730  21.250  11.940
 3157DOPG   GL259740  34.820  21.000  12.150
 3157DOPG   C1A59741  34.770  21.430  12.420
 3157DOPG   D2A59742  35.050  21.510  12.780
 3157DOPG   C3A59743  35.480  21.570  12.880
 3157DOPG   C4A59744  35.910  21.330  13.050
 3157DOPG   C1B59745  35.280  20.910  11.980
 3157DOPG   D2B59746  35.740  20.680  11.940
 3157DOPG   C3B59747  35.990  20.440  12.330
 3157DOPG   C4B59748  36.170  20.160  12.590
 3158DOPG   GL059749  13.910  15.840  20.520
 3158DOPG   PO459750  14.120  16.130  20.790
 3158DOPG   GL159751  14.060  16.260  20.360
 3158DOPG   GL259752  14.040  16.610  20.270
 3158DOPG   C1A59753  13.820  16.170  20.030
 3158DOPG   D2A59754  13.620  16.080  19.580
 3158DOPG   C3A59755  13.090  16.140  19.460
 3158DOPG   C4A59756  13.080  16.430  19.210
 3158DOPG   C1B59757  13.830  16.740  19.900
 3158DOPG   D2B59758  13.590  17.010  19.650
 3158DOPG   C3B59759  13.440  17.000  19.260
 3158DOPG   C4B59760  13.010  16.910  19.080
 3159DOPG   GL059761  13.740  18.660   7.710
 3159DOPG   PO459762  13.600  18.320   7.870
 3159DOPG   GL159763  13.320  18.260   8.200
 3159DOPG   GL259764  13.030  17.930   8.220
 3159DOPG   C1A59765  13.480  18.300   8.630
 3159DOPG   D2A59766  13.100  18.370   8.940
 3159DOPG   C3A59767  13.010  18.530   9.430
 3159DOPG   C4A59768  13.010  18.210   9.810
 3159DOPG   C1B59769  13.040  17.920   8.540
 3159DOPG   D2B59770  12.800  17.770   8.930
 3159DOPG   C3B59771  12.800  18.100   9.270
 3159DOPG   C4B59772  12.530  18.460   9.360
 3160DOPG   GL059773   2.740  21.900  11.780
 3160DOPG   PO459774   2.400  21.900  12.010
 3160DOPG   GL159775   2.040  22.040  11.800
 3160DOPG   GL259776   1.960  21.680  11.780
 3160DOPG   C1A59777   1.570  22.140  11.730
 3160DOPG   D2A59778   1.270  21.770  11.770
 3160DOPG   C3A59779   0.820  21.880  11.670
 3160DOPG   C4A59780   0.400  22.040  11.770
 3160DOPG   C1B59781   1.670  21.470  11.870
 3160DOPG   D2B59782   1.220  21.270  11.720
 3160DOPG   C3B59783   1.000  21.470  11.460
 3160DOPG   C4B59784   0.950  21.370  11.040
 3161DOPG   GL059785   5.040  16.010  15.600
 3161DOPG   PO459786   5.330  16.370  15.620
 3161DOPG   GL159787   5.510  16.530  15.280
 3161DOPG   GL259788   5.320  16.870  15.240
 3161DOPG   C1A59789   5.860  16.460  15.090
 3161DOPG   D2A59790   6.230  16.380  15.210
 3161DOPG   C3A59791   6.400  16.720  15.260
 3161DOPG   C4A59792   6.610  16.890  14.990
 3161DOPG   C1B59793   5.490  17.140  14.940
 3161DOPG   D2B59794   5.510  17.650  14.750
 3161DOPG   C3B59795   5.850  17.940  14.600
 3161DOPG   C4B59796   5.760  18.090  14.180
 3162DOPG   GL059797  17.100  22.440  18.620
 3162DOPG   PO459798  16.690  22.450  18.340
 3162DOPG   GL159799  16.320  22.190  18.510
 3162DOPG   GL259800  16.250  22.000  18.800
 3162DOPG   C1A59801  16.000  21.970  18.150
 3162DOPG   D2A59802  15.870  22.220  17.740
 3162DOPG   C3A59803  15.760  21.920  17.330
 3162DOPG   C4A59804  15.500  21.540  17.320
 3162DOPG   C1B59805  15.860  22.100  18.620
 3162DOPG   D2B59806  15.540  22.180  18.900
 3162DOPG   C3B59807  15.150  21.950  19.070
 3162DOPG   C4B59808  14.990  21.720  19.290
 3163DOPG   GL059809   4.600  22.890   9.460
 3163DOPG   PO459810   4.650  22.450   9.400
 3163DOPG   GL159811   4.310  22.640   9.100
 3163DOPG   GL259812   4.130  22.450   9.340
 3163DOPG   C1A59813   3.950  22.910   9.010
 3163DOPG   D2A59814   3.780  23.370   8.810
 3163DOPG   C3A59815   3.450  23.530   9.150
 3163DOPG   C4A59816   3.190  23.800   9.400
 3163DOPG   C1B59817   3.920  22.340   9.010
 3163DOPG   D2B59818   3.550  22.330   8.930
 3163DOPG   C3B59819   3.330  22.510   8.620
 3163DOPG   C4B59820   3.180  22.740   8.320
 3164DOPG   GL059821   4.210  26.100  17.720
 3164DOPG   PO459822   4.170  25.740  17.910
 3164DOPG   GL159823   3.840  25.940  18.130
 3164DOPG   GL259824   3.990  25.910  18.420
 3164DOPG   C1A59825   3.520  26.300  18.280
 3164DOPG   D2A59826   3.150  26.550  18.250
 3164DOPG   C3A59827   3.110  26.950  18.040
 3164DOPG   C4A59828   3.020  27.370  17.900
 3164DOPG   C1B59829   3.770  26.170  18.710
 3164DOPG   D2B59830   3.430  26.460  18.770
 3164DOPG   C3B59831   3.390  26.540  19.190
 3164DOPG   C4B59832   3.590  26.690  19.540
 3165DOPG   GL059833  19.000  18.850  14.530
 3165DOPG   PO459834  18.850  18.580  14.250
 3165DOPG   GL159835  18.460  18.600  14.500
 3165DOPG   GL259836  18.410  18.760  14.780
 3165DOPG   C1A59837  18.040  18.690  14.340
 3165DOPG   D2A59838  17.580  18.950  14.460
 3165DOPG   C3A59839  17.330  19.300  14.270
 3165DOPG   C4A59840  16.940  19.390  14.090
 3165DOPG   C1B59841  18.070  19.040  14.740
 3165DOPG   D2B59842  17.690  19.150  15.040
 3165DOPG   C3B59843  17.290  19.130  14.910
 3165DOPG   C4B59844  16.950  19.310  14.640
 3166DOPG   GL059845  19.500  17.790  16.870
 3166DOPG   PO459846  19.560  18.250  16.540
 3166DOPG   GL159847  19.890  18.020  16.810
 3166DOPG   GL259848  20.240  18.210  16.670
 3166DOPG   C1A59849  20.170  17.670  16.820
 3166DOPG   D2A59850  20.550  17.510  16.960
 3166DOPG   C3A59851  20.760  17.130  17.160
 3166DOPG   C4A59852  21.010  16.770  17.280
 3166DOPG   C1B59853  20.520  18.040  16.820
 3166DOPG   D2B59854  20.930  18.000  16.930
 3166DOPG   C3B59855  21.040  17.620  17.210
 3166DOPG   C4B59856  21.290  17.390  17.330
 3167DOPG   GL059857   2.150  22.790  14.660
 3167DOPG   PO459858   1.730  22.830  14.820
 3167DOPG   GL159859   1.410  23.070  15.130
 3167DOPG   GL259860   1.290  22.890  15.300
 3167DOPG   C1A59861   1.020  23.220  15.000
 3167DOPG   D2A59862   0.690  22.930  14.970
 3167DOPG   C3A59863   0.850  22.620  15.020
 3167DOPG   C4A59864   1.030  22.310  14.810
 3167DOPG   C1B59865   0.880  22.900  15.460
 3167DOPG   D2B59866   0.450  23.180  15.320
 3167DOPG   C3B59867   0.610  23.530  15.080
 3167DOPG   C4B59868   0.720  23.820  14.790
 3168DOPG   GL059869   8.860  26.150  25.200
 3168DOPG   PO459870   9.380  25.980  25.160
 3168DOPG   GL159871   9.140  25.730  24.830
 3168DOPG   GL259872   9.270  25.410  24.840
 3168DOPG   C1A59873   8.800  25.740  24.480
 3168DOPG   D2A59874   8.750  25.570  24.090
 3168DOPG   C3A59875   8.990  25.500  23.700
 3168DOPG   C4A59876   9.280  25.250  23.540
 3168DOPG   C1B59877   9.100  25.290  24.410
 3168DOPG   D2B59878   9.190  25.170  24.080
 3168DOPG   C3B59879   8.940  24.930  24.030
 3168DOPG   C4B59880   8.620  24.780  24.000
 3169DOPG   GL059881   4.990  14.050  15.400
 3169DOPG   PO459882   4.630  13.950  15.130
 3169DOPG   GL159883   4.360  13.540  15.230
 3169DOPG   GL259884   4.460  13.260  15.240
 3169DOPG   C1A59885   3.810  13.370  15.240
 3169DOPG   D2A59886   3.530  13.130  15.490
 3169DOPG   C3A59887   3.230  12.740  15.410
 3169DOPG   C4A59888   2.910  12.530  15.620
 3169DOPG   C1B59889   4.130  13.010  15.260
 3169DOPG   D2B59890   3.800  12.700  15.440
 3169DOPG   C3B59891   3.760  12.160  15.290
 3169DOPG   C4B59892   3.730  11.780  15.320
 3170DOPG   GL059893  14.080  14.450   8.010
 3170DOPG   PO459894  14.400  14.150   7.740
 3170DOPG   GL159895  14.680  14.330   7.490
 3170DOPG   GL259896  15.050  14.320   7.370
 3170DOPG   C1A59897  14.570  14.270   7.030
 3170DOPG   D2A59898  14.950  14.100   6.790
 3170DOPG   C3A59899  15.080  14.200   6.320
 3170DOPG   C4A59900  14.730  14.470   6.100
 3170DOPG   C1B59901  15.430  14.370   7.170
 3170DOPG   D2B59902  15.320  14.310   6.740
 3170DOPG   C3B59903  15.340  14.650   6.490
 3170DOPG   C4B59904  15.560  14.900   6.240
 3171DOPG   GL059905   6.380  20.810  19.730
 3171DOPG   PO459906   6.580  20.570  20.000
 3171DOPG   GL159907   6.970  20.580  19.810
 3171DOPG   GL259908   7.200  20.800  19.820
 3171DOPG   C1A59909   6.930  20.380  19.430
 3171DOPG   D2A59910   6.950  20.000  19.170
 3171DOPG   C3A59911   7.000  19.740  18.800
 3171DOPG   C4A59912   6.730  19.710  18.410
 3171DOPG   C1B59913   7.580  20.570  19.830
 3171DOPG   D2B59914   7.740  20.140  19.850
 3171DOPG   C3B59915   7.400  20.030  19.560
 3171DOPG   C4B59916   7.490  19.780  19.160
 3172DOPG   GL059917   6.680  26.940  14.690
 3172DOPG   PO459918   6.290  27.150  14.810
 3172DOPG   GL159919   6.270  27.590  14.850
 3172DOPG   GL259920   6.440  27.710  15.180
 3172DOPG   C1A59921   6.390  28.070  14.720
 3172DOPG   D2A59922   6.140  28.230  14.310
 3172DOPG   C3A59923   5.700  28.330  14.440
 3172DOPG   C4A59924   5.470  28.650  14.460
 3172DOPG   C1B59925   6.090  28.000  15.170
 3172DOPG   D2B59926   5.880  28.480  15.280
 3172DOPG   C3B59927   5.470  28.710  15.450
 3172DOPG   C4B59928   5.320  28.750  15.800
 3173DOPG   GL059929   7.440  19.600   2.820
 3173DOPG   PO459930   7.660  19.460   3.220
 3173DOPG   GL159931   7.930  19.450   3.540
 3173DOPG   GL259932   7.970  19.700   3.750
 3173DOPG   C1A59933   8.300  19.360   3.700
 3173DOPG   D2A59934   8.520  19.310   4.100
 3173DOPG   C3A59935   8.750  19.620   4.110
 3173DOPG   C4A59936   9.080  19.680   4.160
 3173DOPG   C1B59937   8.170  19.640   4.170
 3173DOPG   D2B59938   8.270  19.490   4.590
 3173DOPG   C3B59939   8.330  19.700   5.020
 3173DOPG   C4B59940   8.590  20.140   5.040
 3174DOPG   GL059941   0.820  11.490  15.730
 3174DOPG   PO459942   1.120  11.530  15.480
 3174DOPG   GL159943   1.480  11.850  15.400
 3174DOPG   GL259944   1.460  12.180  15.540
 3174DOPG   C1A59945   1.750  11.780  15.190
 3174DOPG   D2A59946   2.030  12.040  15.010
 3174DOPG   C3A59947   1.780  12.260  14.830
 3174DOPG   C4A59948   1.700  12.410  14.490
 3174DOPG   C1B59949   1.670  12.420  15.260
 3174DOPG   D2B59950   1.950  12.790  15.280
 3174DOPG   C3B59951   2.410  12.670  15.390
 3174DOPG   C4B59952   2.690  12.640  15.180
 3175DOPG   GL059953  15.270  14.520   9.670
 3175DOPG   PO459954  15.170  14.900   9.720
 3175DOPG   GL159955  14.880  15.220   9.990
 3175DOPG   GL259956  14.670  15.000  10.230
 3175DOPG   C1A59957  14.620  15.500  10.370
 3175DOPG   D2A59958  14.310  15.320  10.640
 3175DOPG   C3A59959  14.120  15.390  11.030
 3175DOPG   C4A59960  13.970  15.410  11.470
 3175DOPG   C1B59961  14.280  15.180  10.070
 3175DOPG   D2B59962  14.090  15.550  10.140
 3175DOPG   C3B59963  13.890  15.610  10.440
 3175DOPG   C4B59964  13.770  15.790  10.910
 3176DOPG   GL059965   6.640  16.520  20.720
 3176DOPG   PO459966   6.740  16.060  20.960
 3176DOPG   GL159967   6.320  15.920  21.170
 3176DOPG   GL259968   5.920  16.090  21.230
 3176DOPG   C1A59969   5.980  15.660  21.540
 3176DOPG   D2A59970   5.730  15.290  21.380
 3176DOPG   C3A59971   5.810  14.910  21.580
 3176DOPG   C4A59972   5.880  14.540  21.530
 3176DOPG   C1B59973   5.520  15.860  21.340
 3176DOPG   D2B59974   5.230  15.700  21.620
 3176DOPG   C3B59975   5.260  15.300  21.540
 3176DOPG   C4B59976   5.270  14.950  21.650
 3177DOPG   GL059977   5.970  22.110  17.140
 3177DOPG   PO459978   5.790  21.820  17.420
 3177DOPG   GL159979   6.080  21.550  17.240
 3177DOPG   GL259980   6.340  21.750  17.300
 3177DOPG   C1A59981   6.480  21.280  17.130
 3177DOPG   D2A59982   6.870  20.930  16.940
 3177DOPG   C3A59983   7.260  20.880  16.670
 3177DOPG   C4A59984   7.320  20.650  16.390
 3177DOPG   C1B59985   6.740  21.650  17.160
 3177DOPG   D2B59986   7.110  21.270  17.340
 3177DOPG   C3B59987   7.480  21.080  17.100
 3177DOPG   C4B59988   7.830  20.820  17.170
 3178DOPG   GL059989   3.760  20.010  20.000
 3178DOPG   PO459990   3.590  19.930  20.340
 3178DOPG   GL159991   3.380  19.860  20.590
 3178DOPG   GL259992   3.390  19.700  20.900
 3178DOPG   C1A59993   2.960  19.660  20.740
 3178DOPG   D2A59994   2.600  19.600  20.730
 3178DOPG   C3A59995   2.370  19.490  20.360
 3178DOPG   C4A59996   2.100  19.260  20.300
 3178DOPG   C1B59997   3.140  19.700  21.230
 3178DOPG   D2B59998   2.760  19.710  21.540
 3178DOPG   C3B59999   2.700  19.420  21.860
 3178DOPG   C4B60000   2.730  19.000  21.980
 3179DOPG   GL060001  13.450  26.350  15.960
 3179DOPG   PO460002  13.750  26.420  15.630
 3179DOPG   GL160003  13.820  25.930  15.700
 3179DOPG   GL260004  13.630  25.880  16.020
 3179DOPG   C1A60005  13.540  25.660  15.440
 3179DOPG   D2A60006  13.090  25.420  15.520
 3179DOPG   C3A60007  13.040  25.000  15.450
 3179DOPG   C4A60008  13.190  24.590  15.410
 3179DOPG   C1B60009  13.390  25.520  15.910
 3179DOPG   D2B60010  13.500  25.080  16.170
 3179DOPG   C3B60011  13.270  24.760  16.370
 3179DOPG   C4B60012  12.970  24.450  16.350
 3180DOPG   GL060013  18.890  21.500  16.430
 3180DOPG   PO460014  18.570  21.510  16.130
 3180DOPG   GL160015  18.240  21.230  15.900
 3180DOPG   GL260016  17.850  21.110  16.060
 3180DOPG   C1A60017  17.910  21.270  15.570
 3180DOPG   D2A60018  17.540  21.290  15.290
 3180DOPG   C3A60019  17.220  21.240  15.620
 3180DOPG   C4A60020  16.940  21.430  15.880
 3180DOPG   C1B60021  17.350  21.330  16.220
 3180DOPG   D2B60022  17.030  21.100  16.270
 3180DOPG   C3B60023  16.620  21.200  16.140
 3180DOPG   C4B60024  16.140  21.160  16.100
 3181DOPG   GL060025  35.580  16.440  10.220
 3181DOPG   PO460026  35.110  16.590  10.310
 3181DOPG   GL160027  35.270  16.470  10.660
 3181DOPG   GL260028  35.480  16.690  10.760
 3181DOPG   C1A60029  35.510  16.320  11.090
 3181DOPG   D2A60030  35.960  16.500  11.240
 3181DOPG   C3A60031  36.320  16.830  11.030
 3181DOPG   C4A60032   0.060  17.010  10.490
 3181DOPG   C1B60033  35.730  16.930  11.210
 3181DOPG   D2B60034  36.040  16.830  11.580
 3181DOPG   C3B60035  36.080  17.220  11.810
 3181DOPG   C4B60036  36.250  17.430  12.270
 3182DOPG   GL060037   4.870   9.460  20.130
 3182DOPG   PO460038   4.670   9.660  19.680
 3182DOPG   GL160039   4.940   9.940  19.620
 3182DOPG   GL260040   4.970  10.060  19.310
 3182DOPG   C1A60041   5.260   9.980  19.990
 3182DOPG   D2A60042   5.560  10.120  20.280
 3182DOPG   C3A60043   5.850  10.490  20.140
 3182DOPG   C4A60044   6.230  10.650  20.110
 3182DOPG   C1B60045   5.190  10.490  19.190
 3182DOPG   D2B60046   5.390  10.750  18.900
 3182DOPG   C3B60047   5.900  10.650  18.880
 3182DOPG   C4B60048   6.320  10.720  18.890
 3183DOPG   GL060049   7.220  12.450  13.320
 3183DOPG   PO460050   7.770  12.330  13.300
 3183DOPG   GL160051   8.150  12.580  13.460
 3183DOPG   GL260052   8.060  12.770  13.660
 3183DOPG   C1A60053   8.560  12.810  13.210
 3183DOPG   D2A60054   9.080  12.830  13.130
 3183DOPG   C3A60055   9.140  13.260  12.810
 3183DOPG   C4A60056   9.260  13.600  12.490
 3183DOPG   C1B60057   8.300  13.100  13.750
 3183DOPG   D2B60058   8.630  13.370  13.940
 3183DOPG   C3B60059   8.940  13.500  13.710
 3183DOPG   C4B60060   9.360  13.360  13.700
 3184DOPG   GL060061   8.680  24.770  25.670
 3184DOPG   PO460062   9.080  24.940  25.500
 3184DOPG   GL160063   9.240  24.980  25.090
 3184DOPG   GL260064   8.990  24.910  24.850
 3184DOPG   C1A60065   9.470  24.700  24.860
 3184DOPG   D2A60066   9.740  24.450  24.700
 3184DOPG   C3A60067   9.720  24.100  24.440
 3184DOPG   C4A60068   9.650  23.690  24.280
 3184DOPG   C1B60069   9.220  24.840  24.460
 3184DOPG   D2B60070   9.410  24.520  24.300
 3184DOPG   C3B60071   9.370  24.220  24.000
 3184DOPG   C4B60072   9.400  24.310  23.610
 3185DOPG   GL060073  18.280  19.160  16.260
 3185DOPG   PO460074  18.430  18.760  16.380
 3185DOPG   GL160075  18.100  18.740  16.140
 3185DOPG   GL260076  17.960  18.500  16.210
 3185DOPG   C1A60077  17.970  18.860  15.790
 3185DOPG   D2A60078  17.730  19.170  15.570
 3185DOPG   C3A60079  17.340  19.140  15.390
 3185DOPG   C4A60080  16.930  19.350  15.180
 3185DOPG   C1B60081  17.510  18.230  16.300
 3185DOPG   D2B60082  17.070  17.970  16.190
 3185DOPG   C3B60083  16.700  18.010  16.060
 3185DOPG   C4B60084  16.390  18.070  16.300
 3186DOPG   GL060085  11.340  16.600   6.690
 3186DOPG   PO460086  11.140  17.010   6.920
 3186DOPG   GL160087  10.890  16.750   6.610
 3186DOPG   GL260088  10.700  16.940   6.500
 3186DOPG   C1A60089  11.020  16.580   6.260
 3186DOPG   D2A60090  10.950  16.540   5.870
 3186DOPG   C3A60091  11.010  16.240   5.660
 3186DOPG   C4A60092  10.960  15.930   5.290
 3186DOPG   C1B60093  10.600  16.850   6.080
 3186DOPG   D2B60094  10.450  16.760   5.660
 3186DOPG   C3B60095  10.710  16.570   5.340
 3186DOPG   C4B60096  11.060  16.450   5.040
 3187DOPG   GL060097  18.050  21.510  12.810
 3187DOPG   PO460098  18.020  21.900  12.920
 3187DOPG   GL160099  17.710  21.840  13.170
 3187DOPG   GL260100  17.360  21.990  13.210
 3187DOPG   C1A60101  17.490  21.510  13.440
 3187DOPG   D2A60102  17.420  21.140  13.670
 3187DOPG   C3A60103  17.230  21.090  14.000
 3187DOPG   C4A60104  17.160  21.050  14.420
 3187DOPG   C1B60105  16.950  21.710  13.130
 3187DOPG   D2B60106  16.800  21.320  13.000
 3187DOPG   C3B60107  16.930  20.840  12.880
 3187DOPG   C4B60108  16.720  20.520  12.820
 3188DOPG   GL060109  13.220  23.400  20.610
 3188DOPG   PO460110  13.480  22.990  20.450
 3188DOPG   GL160111  13.400  23.210  19.990
 3188DOPG   GL260112  13.710  23.120  19.940
 3188DOPG   C1A60113  13.020  23.240  19.710
 3188DOPG   D2A60114  12.900  23.220  19.360
 3188DOPG   C3A60115  12.670  22.940  19.150
 3188DOPG   C4A60116  12.380  22.680  18.950
 3188DOPG   C1B60117  13.950  23.190  19.580
 3188DOPG   D2B60118  14.230  22.930  19.260
 3188DOPG   C3B60119  13.870  22.640  19.060
 3188DOPG   C4B60120  13.590  22.340  19.270
 3189DOPG   GL060121   4.410  21.590  20.450
 3189DOPG   PO460122   4.010  21.690  20.560
 3189DOPG   GL160123   3.590  21.470  20.660
 3189DOPG   GL260124   3.770  21.300  20.890
 3189DOPG   C1A60125   3.240  21.650  20.890
 3189DOPG   D2A60126   2.940  21.880  20.910
 3189DOPG   C3A60127   2.810  22.360  20.930
 3189DOPG   C4A60128   2.900  22.530  21.370
 3189DOPG   C1B60129   3.480  21.360  21.220
 3189DOPG   D2B60130   3.350  21.080  21.560
 3189DOPG   C3B60131   2.960  21.080  21.820
 3189DOPG   C4B60132   2.690  21.110  22.140
 3190DOPG   GL060133  18.660  18.790  18.730
 3190DOPG   PO460134  18.460  18.430  18.500
 3190DOPG   GL160135  18.850  18.330  18.580
 3190DOPG   GL260136  18.910  18.400  19.000
 3190DOPG   C1A60137  19.180  18.230  18.610
 3190DOPG   D2A60138  19.560  18.070  18.770
 3190DOPG   C3A60139  19.940  18.360  19.010
 3190DOPG   C4A60140  20.380  18.520  19.150
 3190DOPG   C1B60141  19.240  18.770  19.210
 3190DOPG   D2B60142  19.650  18.710  19.460
 3190DOPG   C3B60143  20.050  18.850  19.370
 3190DOPG   C4B60144  20.380  18.920  19.740
 3191DOPG   GL060145   6.210  15.350  11.410
 3191DOPG   PO460146   6.440  15.400  11.110
 3191DOPG   GL160147   6.790  15.540  11.280
 3191DOPG   GL260148   6.760  15.510  11.580
 3191DOPG   C1A60149   6.780  15.990  11.520
 3191DOPG   D2A60150   7.020  16.210  11.720
 3191DOPG   C3A60151   7.470  16.120  11.720
 3191DOPG   C4A60152   8.010  15.970  11.690
 3191DOPG   C1B60153   7.040  15.660  11.860
 3191DOPG   D2B60154   7.340  15.830  12.210
 3191DOPG   C3B60155   7.690  16.250  12.160
 3191DOPG   C4B60156   7.710  16.630  11.910
 3192DOPG   GL060157   5.520  14.740  12.920
 3192DOPG   PO460158   5.640  14.950  12.720
 3192DOPG   GL160159   6.190  14.950  12.770
 3192DOPG   GL260160   6.380  15.140  12.470
 3192DOPG   C1A60161   6.600  14.800  12.780
 3192DOPG   D2A60162   7.050  14.880  12.680
 3192DOPG   C3A60163   7.490  14.660  12.870
 3192DOPG   C4A60164   7.740  14.490  13.160
 3192DOPG   C1B60165   6.780  15.340  12.550
 3192DOPG   D2B60166   7.130  15.230  12.310
 3192DOPG   C3B60167   7.300  15.530  12.660
 3192DOPG   C4B60168   7.190  15.960  12.690
 3193DOPG   GL060169  19.400  19.000  11.720
 3193DOPG   PO460170  19.020  18.830  11.920
 3193DOPG   GL160171  18.730  19.070  12.070
 3193DOPG   GL260172  18.500  18.900  12.110
 3193DOPG   C1A60173  18.270  19.390  12.080
 3193DOPG   D2A60174  17.780  19.210  11.940
 3193DOPG   C3A60175  17.430  19.260  12.330
 3193DOPG   C4A60176  17.600  19.580  12.670
 3193DOPG   C1B60177  18.140  19.010  12.300
 3193DOPG   D2B60178  17.900  19.170  12.580
 3193DOPG   C3B60179  17.690  18.790  12.830
 3193DOPG   C4B60180  17.360  18.810  13.090
 3194DOPG   GL060181  13.930   8.190   8.950
 3194DOPG   PO460182  14.290   8.340   8.860
 3194DOPG   GL160183  14.130   8.780   8.840
 3194DOPG   GL260184  13.960   8.960   8.670
 3194DOPG   C1A60185  14.220   9.270   8.960
 3194DOPG   D2A60186  14.360   9.630   9.100
 3194DOPG   C3A60187  14.090   9.910   9.270
 3194DOPG   C4A60188  13.770   9.840   9.500
 3194DOPG   C1B60189  13.720   9.220   8.750
 3194DOPG   D2B60190  13.320   9.090   9.000
 3194DOPG   C3B60191  13.140   8.760   8.960
 3194DOPG   C4B60192  12.880   8.350   9.020
 3195DOPG   GL060193   9.690  14.900  20.320
 3195DOPG   PO460194   9.230  15.010  20.100
 3195DOPG   GL160195   9.050  15.450  19.910
 3195DOPG   GL260196   9.130  15.750  19.980
 3195DOPG   C1A60197   9.040  15.630  19.520
 3195DOPG   D2A60198   9.130  16.070  19.370
 3195DOPG   C3A60199   9.040  16.070  18.940
 3195DOPG   C4A60200   9.380  16.120  18.600
 3195DOPG   C1B60201   9.430  15.910  19.760
 3195DOPG   D2B60202   9.510  15.810  19.350
 3195DOPG   C3B60203   9.950  15.740  19.210
 3195DOPG   C4B60204  10.320  15.780  19.120
 3196DOPG   GL060205   5.200  17.210  13.520
 3196DOPG   PO460206   5.170  17.080  13.140
 3196DOPG   GL160207   5.560  16.930  13.320
 3196DOPG   GL260208   5.770  17.110  13.340
 3196DOPG   C1A60209   5.800  16.690  13.650
 3196DOPG   D2A60210   5.830  16.660  14.120
 3196DOPG   C3A60211   6.120  16.370  14.380
 3196DOPG   C4A60212   6.280  16.450  14.750
 3196DOPG   C1B60213   6.240  17.180  13.340
 3196DOPG   D2B60214   6.630  17.290  13.300
 3196DOPG   C3B60215   6.900  17.690  13.140
 3196DOPG   C4B60216   7.320  17.840  13.090
 3197DOPG   GL060217  14.330  16.770   7.900
 3197DOPG   PO460218  13.800  16.680   8.030
 3197DOPG   GL160219  13.660  16.850   8.430
 3197DOPG   GL260220  13.740  16.720   8.760
 3197DOPG   C1A60221  13.430  17.210   8.580
 3197DOPG   D2A60222  13.390  17.560   8.870
 3197DOPG   C3A60223  13.140  17.620   9.280
 3197DOPG   C4A60224  12.780  17.610   9.560
 3197DOPG   C1B60225  13.380  16.620   8.950
 3197DOPG   D2B60226  12.990  16.510   9.200
 3197DOPG   C3B60227  12.650  16.660   9.430
 3197DOPG   C4B60228  12.520  16.490   9.760
 3198DOPG   GL060229   2.950  25.320  23.500
 3198DOPG   PO460230   2.610  25.040  23.680
 3198DOPG   GL160231   2.780  24.700  23.480
 3198DOPG   GL260232   2.630  24.410  23.600
 3198DOPG   C1A60233   3.200  24.680  23.270
 3198DOPG   D2A60234   3.690  24.530  23.240
 3198DOPG   C3A60235   3.740  24.230  22.990
 3198DOPG   C4A60236   3.920  24.180  22.600
 3198DOPG   C1B60237   3.000  24.210  23.380
 3198DOPG   D2B60238   3.320  24.180  23.200
 3198DOPG   C3B60239   3.280  24.170  22.710
 3198DOPG   C4B60240   3.530  24.410  22.400
 3199DOPG   GL060241   8.340  21.300   9.350
 3199DOPG   PO460242   8.200  21.450   9.670
 3199DOPG   GL160243   8.420  21.160   9.810
 3199DOPG   GL260244   8.670  20.980   9.620
 3199DOPG   C1A60245   8.670  20.990  10.110
 3199DOPG   D2A60246   9.030  20.980  10.340
 3199DOPG   C3A60247   8.990  20.740  10.690
 3199DOPG   C4A60248   8.880  20.250  10.880
 3199DOPG   C1B60249   8.910  20.670   9.830
 3199DOPG   D2B60250   8.910  20.480  10.220
 3199DOPG   C3B60251   9.240  20.380  10.390
 3199DOPG   C4B60252   9.660  20.460  10.300
 3200DOPG   GL060253  16.380  12.210   5.440
 3200DOPG   PO460254  16.340  11.770   5.640
 3200DOPG   GL160255  15.990  12.030   5.870
 3200DOPG   GL260256  16.040  12.310   6.110
 3200DOPG   C1A60257  15.600  12.160   5.870
 3200DOPG   D2A60258  15.310  12.170   6.150
 3200DOPG   C3A60259  15.120  11.860   6.520
 3200DOPG   C4A60260  14.970  11.500   6.790
 3200DOPG   C1B60261  15.700  12.440   6.290
 3200DOPG   D2B60262  15.400  12.310   6.630
 3200DOPG   C3B60263  15.260  12.610   6.880
 3200DOPG   C4B60264  14.980  12.870   6.700
 3201DOPG   GL060265   3.710  11.520   7.260
 3201DOPG   PO460266   4.060  11.600   7.540
 3201DOPG   GL160267   4.280  11.980   7.560
 3201DOPG   GL260268   4.150  12.220   7.730
 3201DOPG   C1A60269   4.720  12.230   7.650
 3201DOPG   D2A60270   5.070  12.040   7.900
 3201DOPG   C3A60271   5.510  12.160   7.880
 3201DOPG   C4A60272   5.710  12.470   8.130
 3201DOPG   C1B60273   4.210  12.230   8.260
 3201DOPG   D2B60274   4.370  12.590   8.510
 3201DOPG   C3B60275   4.510  12.520   8.930
 3201DOPG   C4B60276   5.030  12.510   9.010
 3202DOPG   GL060277  21.910  22.470  20.600
 3202DOPG   PO460278  21.600  22.620  20.410
 3202DOPG   GL160279  21.250  22.390  20.220
 3202DOPG   GL260280  21.140  21.910  20.340
 3202DOPG   C1A60281  20.840  22.590  20.050
 3202DOPG   D2A60282  20.400  22.590  19.980
 3202DOPG   C3A60283  20.160  22.820  19.690
 3202DOPG   C4A60284  19.750  22.660  19.540
 3202DOPG   C1B60285  20.810  21.550  20.190
 3202DOPG   D2B60286  20.560  21.190  20.100
 3202DOPG   C3B60287  20.110  21.080  20.030
 3202DOPG   C4B60288  19.830  21.280  20.170
 3203DOPG   GL060289  18.250  21.720  14.430
 3203DOPG   PO460290  18.400  21.410  14.700
 3203DOPG   GL160291  18.010  21.240  14.500
 3203DOPG   GL260292  18.110  21.320  14.150
 3203DOPG   C1A60293  17.600  21.330  14.320
 3203DOPG   D2A60294  17.520  21.780  14.310
 3203DOPG   C3A60295  17.140  21.960  14.620
 3203DOPG   C4A60296  16.890  21.830  14.960
 3203DOPG   C1B60297  17.850  20.950  14.070
 3203DOPG   D2B60298  17.640  20.690  13.900
 3203DOPG   C3B60299  17.750  20.630  13.510
 3203DOPG   C4B60300  17.850  20.330  13.300
 3204DOPG   GL060301  10.990  26.870  12.090
 3204DOPG   PO460302  10.690  26.600  12.070
 3204DOPG   GL160303  10.500  26.940  12.020
 3204DOPG   GL260304  10.110  26.930  12.060
 3204DOPG   C1A60305  10.490  27.230  11.800
 3204DOPG   D2A60306  10.590  27.640  11.630
 3204DOPG   C3A60307  10.360  27.650  11.340
 3204DOPG   C4A60308  10.400  27.950  11.040
 3204DOPG   C1B60309   9.940  27.280  11.880
 3204DOPG   D2B60310  10.050  27.510  11.640
 3204DOPG   C3B60311   9.780  27.830  11.730
 3204DOPG   C4B60312   9.660  28.180  11.960
 3205DOPG   GL060313  10.020  20.950   2.730
 3205DOPG   PO460314  10.510  20.930   2.570
 3205DOPG   GL160315  10.490  20.620   2.860
 3205DOPG   GL260316  10.250  20.420   3.130
 3205DOPG   C1A60317  10.630  20.720   3.250
 3205DOPG   D2A60318  10.380  20.830   3.620
 3205DOPG   C3A60319  10.400  20.620   4.030
 3205DOPG   C4A60320  10.120  20.560   4.380
 3205DOPG   C1B60321  10.160  20.170   3.510
 3205DOPG   D2B60322  10.140  20.110   3.960
 3205DOPG   C3B60323  10.480  20.160   4.250
 3205DOPG   C4B60324  10.730  20.470   4.530
 3206DOPG   GL060325   8.430  25.850  17.870
 3206DOPG   PO460326   8.550  25.360  17.950
 3206DOPG   GL160327   8.670  25.020  17.810
 3206DOPG   GL260328   8.440  24.610  17.850
 3206DOPG   C1A60329   8.760  24.740  17.500
 3206DOPG   D2A60330   9.050  24.990  17.480
 3206DOPG   C3A60331   9.260  24.950  17.950
 3206DOPG   C4A60332   9.350  25.000  18.340
 3206DOPG   C1B60333   8.440  24.340  17.560
 3206DOPG   D2B60334   8.760  24.150  17.690
 3206DOPG   C3B60335   9.040  23.870  17.490
 3206DOPG   C4B60336   9.190  23.890  17.030
 3207DOPG   GL060337  16.850  17.920  18.900
 3207DOPG   PO460338  17.220  18.090  18.710
 3207DOPG   GL160339  17.150  18.080  18.310
 3207DOPG   GL260340  17.300  18.310  18.120
 3207DOPG   C1A60341  16.770  18.260  18.100
 3207DOPG   D2A60342  16.410  18.510  18.090
 3207DOPG   C3A60343  16.020  18.590  17.740
 3207DOPG   C4A60344  15.740  18.250  17.600
 3207DOPG   C1B60345  17.190  18.220  17.710
 3207DOPG   D2B60346  16.810  18.300  17.600
 3207DOPG   C3B60347  16.510  18.380  17.440
 3207DOPG   C4B60348  16.160  18.380  17.280
 3208DOPG   GL060349   6.600  10.860   5.990
 3208DOPG   PO460350   6.780  10.720   6.300
 3208DOPG   GL160351   6.970  11.060   6.630
 3208DOPG   GL260352   7.340  10.910   6.710
 3208DOPG   C1A60353   6.910  11.480   6.850
 3208DOPG   D2A60354   7.140  11.600   7.230
 3208DOPG   C3A60355   7.180  11.370   7.610
 3208DOPG   C4A60356   7.270  11.240   8.050
 3208DOPG   C1B60357   7.420  11.200   7.080
 3208DOPG   D2B60358   7.610  11.530   7.320
 3208DOPG   C3B60359   7.570  11.820   7.480
 3208DOPG   C4B60360   7.130  11.980   7.550
 3209DOPG   GL060361  12.200  16.460  12.260
 3209DOPG   PO460362  11.780  16.210  12.330
 3209DOPG   GL160363  11.910  15.900  12.120
 3209DOPG   GL260364  12.160  16.050  11.990
 3209DOPG   C1A60365  11.700  15.450  11.930
 3209DOPG   D2A60366  11.310  15.250  11.790
 3209DOPG   C3A60367  11.180  14.960  11.670
 3209DOPG   C4A60368  11.070  14.550  11.970
 3209DOPG   C1B60369  12.210  16.100  11.570
 3209DOPG   D2B60370  12.320  15.830  11.300
 3209DOPG   C3B60371  12.360  15.370  11.410
 3209DOPG   C4B60372  12.370  15.110  11.680
 3210DOPG   GL060373  17.140  23.910  17.080
 3210DOPG   PO460374  17.000  23.800  16.740
 3210DOPG   GL160375  16.650  23.580  16.500
 3210DOPG   GL260376  16.400  23.790  16.500
 3210DOPG   C1A60377  16.690  23.210  16.190
 3210DOPG   D2A60378  16.510  22.930  16.270
 3210DOPG   C3A60379  16.170  22.950  16.320
 3210DOPG   C4A60380  16.010  22.530  16.310
 3210DOPG   C1B60381  16.210  23.410  16.400
 3210DOPG   D2B60382  15.850  23.260  16.140
 3210DOPG   C3B60383  15.490  23.010  16.370
 3210DOPG   C4B60384  15.170  23.150  16.190
 3211DOPG   GL060385   9.440  11.760  16.050
 3211DOPG   PO460386   9.940  11.730  16.130
 3211DOPG   GL160387   9.990  12.120  16.180
 3211DOPG   GL260388   9.620  12.200  16.110
 3211DOPG   C1A60389  10.340  12.350  16.070
 3211DOPG   D2A60390  10.730  12.620  16.050
 3211DOPG   C3A60391  11.130  12.650  15.770
 3211DOPG   C4A60392  11.440  12.510  15.410
 3211DOPG   C1B60393   9.860  12.500  15.710
 3211DOPG   D2B60394  10.110  12.720  15.380
 3211DOPG   C3B60395  10.090  13.240  15.540
 3211DOPG   C4B60396  10.280  13.610  15.640
 3212DOPG   GL060397   8.120  17.980  20.420
 3212DOPG   PO460398   7.810  18.220  20.720
 3212DOPG   GL160399   8.080  18.440  20.310
 3212DOPG   GL260400   7.980  18.770  20.210
 3212DOPG   C1A60401   8.390  18.320  19.980
 3212DOPG   D2A60402   8.580  18.240  19.580
 3212DOPG   C3A60403   8.650  18.460  19.220
 3212DOPG   C4A60404   8.500  18.300  18.810
 3212DOPG   C1B60405   8.330  18.810  19.930
 3212DOPG   D2B60406   8.430  18.720  19.600
 3212DOPG   C3B60407   8.580  19.180  19.260
 3212DOPG   C4B60408   8.460  19.430  18.900
 3213DOPG   GL060409   3.320  22.400  10.670
 3213DOPG   PO460410   3.410  22.740  10.460
 3213DOPG   GL160411   3.200  22.730  10.010
 3213DOPG   GL260412   3.360  22.570   9.800
 3213DOPG   C1A60413   2.820  22.950   9.830
 3213DOPG   D2A60414   2.500  23.260   9.680
 3213DOPG   C3A60415   2.710  23.430   9.310
 3213DOPG   C4A60416   3.000  23.470   8.990
 3213DOPG   C1B60417   3.180  22.550   9.350
 3213DOPG   D2B60418   2.960  22.520   8.940
 3213DOPG   C3B60419   2.850  22.380   8.490
 3213DOPG   C4B60420   2.640  22.470   8.110
 3214DOPG   GL060421   9.270  12.180  16.460
 3214DOPG   PO460422   8.840  12.250  16.420
 3214DOPG   GL160423   9.070  12.630  16.300
 3214DOPG   GL260424   8.840  12.780  15.990
 3214DOPG   C1A60425   9.540  12.710  16.360
 3214DOPG   D2A60426   9.820  13.100  16.280
 3214DOPG   C3A60427   9.820  13.420  15.920
 3214DOPG   C4A60428   9.730  13.640  15.610
 3214DOPG   C1B60429   9.220  13.070  16.050
 3214DOPG   D2B60430   9.450  13.400  16.280
 3214DOPG   C3B60431   9.780  13.880  16.300
 3214DOPG   C4B60432   9.750  14.260  16.210
 3215DOPG   GL060433   6.420  13.440  14.850
 3215DOPG   PO460434   6.790  13.590  15.100
 3215DOPG   GL160435   7.240  13.560  14.950
 3215DOPG   GL260436   7.370  13.190  14.910
 3215DOPG   C1A60437   7.710  13.820  14.880
 3215DOPG   D2A60438   7.970  13.930  14.570
 3215DOPG   C3A60439   8.120  14.340  14.820
 3215DOPG   C4A60440   8.200  14.770  14.780
 3215DOPG   C1B60441   7.710  13.400  15.100
 3215DOPG   D2B60442   8.000  13.310  15.440
 3215DOPG   C3B60443   8.470  13.390  15.430
 3215DOPG   C4B60444   8.730  13.210  15.620
 3216DOPG   GL060445  16.090  25.000  16.980
 3216DOPG   PO460446  15.750  25.020  17.220
 3216DOPG   GL160447  15.450  24.690  17.400
 3216DOPG   GL260448  15.190  24.800  17.530
 3216DOPG   C1A60449  15.200  24.330  17.540
 3216DOPG   D2A60450  14.880  23.910  17.750
 3216DOPG   C3A60451  15.020  23.490  17.600
 3216DOPG   C4A60452  15.040  23.040  17.630
 3216DOPG   C1B60453  14.900  24.610  17.230
 3216DOPG   D2B60454  14.860  24.180  16.860
 3216DOPG   C3B60455  15.210  23.890  16.750
 3216DOPG   C4B60456  15.450  23.570  16.540
 3217DOPG   GL060457  16.050  13.680  15.710
 3217DOPG   PO460458  15.820  13.320  15.550
 3217DOPG   GL160459  15.450  13.420  15.640
 3217DOPG   GL260460  15.300  13.280  15.760
 3217DOPG   C1A60461  15.130  13.730  15.490
 3217DOPG   D2A60462  14.820  13.930  15.510
 3217DOPG   C3A60463  14.520  13.870  15.260
 3217DOPG   C4A60464  14.200  13.590  15.240
 3217DOPG   C1B60465  15.240  13.630  15.990
 3217DOPG   D2B60466  15.390  14.020  16.350
 3217DOPG   C3B60467  15.160  14.410  16.310
 3217DOPG   C4B60468  15.040  14.800  16.210
 3218DOPG   GL060469   7.480  20.290   9.420
 3218DOPG   PO460470   7.760  20.520   9.640
 3218DOPG   GL160471   7.770  20.200   9.880
 3218DOPG   GL260472   7.990  20.270  10.190
 3218DOPG   C1A60473   7.920  19.840  10.000
 3218DOPG   D2A60474   7.650  19.480  10.020
 3218DOPG   C3A60475   7.730  19.250  10.260
 3218DOPG   C4A60476   7.930  18.840  10.340
 3218DOPG   C1B60477   8.170  20.150  10.660
 3218DOPG   D2B60478   8.390  20.010  11.020
 3218DOPG   C3B60479   8.710  19.750  10.930
 3218DOPG   C4B60480   8.570  19.470  10.710
 3219DOPG   GL060481  16.130  24.660  15.430
 3219DOPG   PO460482  16.020  24.340  15.770
 3219DOPG   GL160483  16.060  24.050  15.640
 3219DOPG   GL260484  16.320  23.880  15.520
 3219DOPG   C1A60485  15.880  23.640  15.720
 3219DOPG   D2A60486  15.560  23.500  15.510
 3219DOPG   C3A60487  15.150  23.400  15.480
 3219DOPG   C4A60488  14.970  23.280  15.180
 3219DOPG   C1B60489  16.240  23.500  15.440
 3219DOPG   D2B60490  16.340  23.060  15.170
 3219DOPG   C3B60491  16.340  22.660  15.420
 3219DOPG   C4B60492  16.560  22.300  15.580
 3220DOPG   GL060493   9.450  25.130  10.530
 3220DOPG   PO460494   9.470  25.530  10.430
 3220DOPG   GL160495   9.390  25.720   9.980
 3220DOPG   GL260496   9.190  25.720   9.910
 3220DOPG   C1A60497   9.430  25.930   9.520
 3220DOPG   D2A60498   9.500  25.830   9.160
 3220DOPG   C3A60499   9.470  26.200   8.990
 3220DOPG   C4A60500   9.490  26.660   8.810
 3220DOPG   C1B60501   9.080  26.150   9.840
 3220DOPG   D2B60502   8.810  26.530   9.930
 3220DOPG   C3B60503   8.750  26.940   9.930
 3220DOPG   C4B60504   8.410  27.060  10.020
 3221DOPG   GL060505   1.750  12.750   9.160
 3221DOPG   PO460506   1.660  12.470   9.500
 3221DOPG   GL160507   1.890  12.750   9.790
 3221DOPG   GL260508   2.130  12.710   9.700
 3221DOPG   C1A60509   1.890  12.840  10.220
 3221DOPG   D2A60510   2.190  12.990  10.510
 3221DOPG   C3A60511   2.200  12.770  10.950
 3221DOPG   C4A60512   2.550  12.710  11.220
 3221DOPG   C1B60513   2.140  13.080   9.510
 3221DOPG   D2B60514   2.260  13.570   9.550
 3221DOPG   C3B60515   2.150  13.730  10.010
 3221DOPG   C4B60516   2.420  14.040  10.120
 3222DOPG   GL060517   6.560  24.930   5.540
 3222DOPG   PO460518   7.070  24.970   5.690
 3222DOPG   GL160519   7.310  24.900   6.000
 3222DOPG   GL260520   7.190  25.170   6.250
 3222DOPG   C1A60521   7.350  24.650   6.390
 3222DOPG   D2A60522   7.190  24.530   6.800
 3222DOPG   C3A60523   7.580  24.710   7.040
 3222DOPG   C4A60524   7.950  24.700   6.660
 3222DOPG   C1B60525   7.650  25.140   6.460
 3222DOPG   D2B60526   7.950  25.180   6.810
 3222DOPG   C3B60527   8.040  24.860   7.170
 3222DOPG   C4B60528   7.960  24.800   7.490
 3223DOPG   GL060529  17.410  19.910  19.760
 3223DOPG   PO460530  17.280  19.640  20.000
 3223DOPG   GL160531  17.330  19.620  20.370
 3223DOPG   GL260532  17.410  19.260  20.490
 3223DOPG   C1A60533  17.530  19.640  20.750
 3223DOPG   D2A60534  17.440  19.880  21.020
 3223DOPG   C3A60535  17.690  20.170  21.140
 3223DOPG   C4A60536  18.020  20.310  21.500
 3223DOPG   C1B60537  17.650  18.960  20.740
 3223DOPG   D2B60538  17.900  18.940  21.150
 3223DOPG   C3B60539  18.010  18.680  21.420
 3223DOPG   C4B60540  17.980  18.400  21.810
 3224DOPG   GL060541   6.310  15.110  16.690
 3224DOPG   PO460542   6.170  15.150  16.230
 3224DOPG   GL160543   6.570  15.190  16.090
 3224DOPG   GL260544   6.550  15.120  15.870
 3224DOPG   C1A60545   6.960  15.440  15.890
 3224DOPG   D2A60546   7.300  15.580  16.150
 3224DOPG   C3A60547   7.530  15.960  16.320
 3224DOPG   C4A60548   7.860  15.950  16.610
 3224DOPG   C1B60549   6.710  15.160  15.570
 3224DOPG   D2B60550   7.010  15.530  15.420
 3224DOPG   C3B60551   7.250  15.860  15.210
 3224DOPG   C4B60552   7.400  16.260  15.040
 3225DOPG   GL060553   7.240  13.520  24.710
 3225DOPG   PO460554   6.990  13.840  24.650
 3225DOPG   GL160555   6.980  14.050  24.250
 3225DOPG   GL260556   6.850  14.400  24.220
 3225DOPG   C1A60557   6.880  14.110  23.830
 3225DOPG   D2A60558   6.540  14.030  23.440
 3225DOPG   C3A60559   6.470  14.040  22.990
 3225DOPG   C4A60560   6.390  14.090  22.650
 3225DOPG   C1B60561   6.790  14.820  24.090
 3225DOPG   D2B60562   6.830  15.180  23.920
 3225DOPG   C3B60563   7.150  15.210  23.620
 3225DOPG   C4B60564   7.280  15.150  23.060
 3226DOPG   GL060565  35.940  21.580   7.810
 3226DOPG   PO460566  36.170  21.530   8.220
 3226DOPG   GL160567   0.010  21.380   8.570
 3226DOPG   GL260568   0.360  21.310   8.500
 3226DOPG   C1A60569   0.100  21.250   8.940
 3226DOPG   D2A60570   0.290  21.500   9.300
 3226DOPG   C3A60571   0.040  21.590   9.620
 3226DOPG   C4A60572  36.170  21.630   9.950
 3226DOPG   C1B60573   0.610  21.030   8.850
 3226DOPG   D2B60574   0.830  21.020   9.300
 3226DOPG   C3B60575   0.640  21.210   9.590
 3226DOPG   C4B60576   0.990  21.370   9.840
 3227DOPG   GL060577   5.420  22.460  16.830
 3227DOPG   PO460578   5.770  22.300  16.700
 3227DOPG   GL160579   6.150  22.330  16.550
 3227DOPG   GL260580   6.450  22.430  16.740
 3227DOPG   C1A60581   6.590  22.390  16.280
 3227DOPG   D2A60582   6.950  22.310  16.330
 3227DOPG   C3A60583   7.220  22.110  15.980
 3227DOPG   C4A60584   7.620  21.970  15.800
 3227DOPG   C1B60585   6.820  22.290  16.870
 3227DOPG   D2B60586   7.240  22.360  17.180
 3227DOPG   C3B60587   7.260  22.560  17.590
 3227DOPG   C4B60588   7.160  22.570  17.930
 3228DOPG   GL060589  11.970  24.220   9.590
 3228DOPG   PO460590  11.790  24.430   9.940
 3228DOPG   GL160591  11.700  24.140  10.270
 3228DOPG   GL260592  11.790  23.790  10.200
 3228DOPG   C1A60593  11.390  23.830  10.470
 3228DOPG   D2A60594  11.290  23.330  10.410
 3228DOPG   C3A60595  11.530  23.220  10.580
 3228DOPG   C4A60596  11.870  22.840  10.640
 3228DOPG   C1B60597  11.840  23.870  10.650
 3228DOPG   D2B60598  12.060  24.150  10.900
 3228DOPG   C3B60599  12.270  23.950  11.190
 3228DOPG   C4B60600  12.730  23.960  11.340
 3229DOPG   GL060601  12.440  11.600  10.850
 3229DOPG   PO460602  12.760  11.760  10.680
 3229DOPG   GL160603  12.930  11.450  10.350
 3229DOPG   GL260604  12.980  11.490  10.020
 3229DOPG   C1A60605  12.700  11.020  10.210
 3229DOPG   D2A60606  12.280  10.960  10.110
 3229DOPG   C3A60607  12.240  10.650   9.900
 3229DOPG   C4A60608  12.160  10.290   9.720
 3229DOPG   C1B60609  13.130  11.150   9.870
 3229DOPG   D2B60610  13.110  10.660   9.730
 3229DOPG   C3B60611  13.300  10.300   9.950
 3229DOPG   C4B60612  13.550  10.000   9.920
 3230DOPG   GL060613  15.360  19.190   8.830
 3230DOPG   PO460614  14.960  19.150   8.760
 3230DOPG   GL160615  14.670  19.280   9.120
 3230DOPG   GL260616  14.360  19.210   9.110
 3230DOPG   C1A60617  14.570  19.430   9.540
 3230DOPG   D2A60618  14.320  19.230   9.820
 3230DOPG   C3A60619  14.400  18.940  10.060
 3230DOPG   C4A60620  14.300  18.480  10.290
 3230DOPG   C1B60621  14.520  18.940   9.440
 3230DOPG   D2B60622  14.280  18.450   9.460
 3230DOPG   C3B60623  14.070  18.330   9.870
 3230DOPG   C4B60624  13.800  18.190  10.180
 3231DOPG   GL060625  14.610  12.810  17.890
 3231DOPG   PO460626  14.480  13.140  17.680
 3231DOPG   GL160627  14.430  13.180  17.310
 3231DOPG   GL260628  14.650  13.210  17.000
 3231DOPG   C1A60629  14.190  13.200  16.850
 3231DOPG   D2A60630  13.800  13.340  16.920
 3231DOPG   C3A60631  13.810  13.630  16.650
 3231DOPG   C4A60632  13.900  13.950  16.540
 3231DOPG   C1B60633  14.720  13.640  16.910
 3231DOPG   D2B60634  14.590  14.040  16.830
 3231DOPG   C3B60635  14.230  14.290  16.910
 3231DOPG   C4B60636  14.030  14.280  17.210
 3232DOPG   GL060637  14.010  20.660  22.240
 3232DOPG   PO460638  14.340  20.770  21.990
 3232DOPG   GL160639  14.590  20.970  22.340
 3232DOPG   GL260640  14.400  21.180  22.500
 3232DOPG   C1A60641  14.840  21.070  22.600
 3232DOPG   D2A60642  15.080  21.010  22.970
 3232DOPG   C3A60643  15.180  20.800  23.370
 3232DOPG   C4A60644  15.350  20.860  23.810
 3232DOPG   C1B60645  14.460  21.260  22.910
 3232DOPG   D2B60646  14.890  21.480  23.030
 3232DOPG   C3B60647  15.030  21.850  22.950
 3232DOPG   C4B60648  15.130  22.160  23.270
 3233DOPG   GL060649  14.870  17.590  20.500
 3233DOPG   PO460650  14.440  17.280  20.770
 3233DOPG   GL160651  14.390  17.280  20.330
 3233DOPG   GL260652  14.450  17.590  20.260
 3233DOPG   C1A60653  14.080  17.230  19.880
 3233DOPG   D2A60654  14.050  16.980  19.440
 3233DOPG   C3A60655  13.950  17.140  18.990
 3233DOPG   C4A60656  14.010  17.250  18.580
 3233DOPG   C1B60657  14.000  17.550  20.270
 3233DOPG   D2B60658  13.630  17.790  20.260
 3233DOPG   C3B60659  13.590  18.180  20.100
 3233DOPG   C4B60660  13.660  18.590  19.980
 3234DOPG   GL060661  11.320  13.510   8.470
 3234DOPG   PO460662  11.490  13.240   8.650
 3234DOPG   GL160663  11.550  12.940   8.420
 3234DOPG   GL260664  11.890  12.910   8.410
 3234DOPG   C1A60665  11.520  12.720   8.050
 3234DOPG   D2A60666  11.530  12.410   7.650
 3234DOPG   C3A60667  11.610  11.970   7.640
 3234DOPG   C4A60668  11.690  11.560   7.580
 3234DOPG   C1B60669  11.950  12.450   8.330
 3234DOPG   D2B60670  11.900  12.210   7.960
 3234DOPG   C3B60671  12.150  12.300   7.730
 3234DOPG   C4B60672  12.450  12.210   7.420
 3235DOPG   GL060673   6.630  18.380  19.970
 3235DOPG   PO460674   6.520  18.670  19.760
 3235DOPG   GL160675   6.910  18.730  19.590
 3235DOPG   GL260676   7.040  18.450  19.610
 3235DOPG   C1A60677   7.250  19.040  19.600
 3235DOPG   D2A60678   7.420  19.350  19.780
 3235DOPG   C3A60679   7.840  19.580  19.630
 3235DOPG   C4A60680   8.060  19.760  19.910
 3235DOPG   C1B60681   7.360  18.480  19.320
 3235DOPG   D2B60682   7.710  18.390  19.050
 3235DOPG   C3B60683   7.720  18.180  18.590
 3235DOPG   C4B60684   7.830  18.280  18.230
 3236DOPG   GL060685   0.060  23.660   8.310
 3236DOPG   PO460686   0.030  23.710   8.810
 3236DOPG   GL160687   0.340  23.800   9.070
 3236DOPG   GL260688   0.650  23.830   9.020
 3236DOPG   C1A60689   0.400  23.460   9.330
 3236DOPG   D2A60690   0.650  23.290   9.690
 3236DOPG   C3A60691   0.780  23.570  10.150
 3236DOPG   C4A60692   1.030  23.490  10.580
 3236DOPG   C1B60693   0.910  23.590   9.270
 3236DOPG   D2B60694   1.140  23.350   9.650
 3236DOPG   C3B60695   1.520  23.250   9.840
 3236DOPG   C4B60696   1.970  23.290   9.880
 3237DOPG   GL060697  18.130  17.980  17.920
 3237DOPG   PO460698  17.870  17.630  17.940
 3237DOPG   GL160699  17.490  17.640  17.800
 3237DOPG   GL260700  17.260  17.540  18.040
 3237DOPG   C1A60701  17.280  17.450  17.510
 3237DOPG   D2A60702  16.960  17.350  17.360
 3237DOPG   C3A60703  16.640  17.410  17.540
 3237DOPG   C4A60704  16.290  17.480  17.850
 3237DOPG   C1B60705  16.880  17.780  17.780
 3237DOPG   D2B60706  16.380  18.070  17.810
 3237DOPG   C3B60707  16.130  17.890  17.500
 3237DOPG   C4B60708  15.710  17.780  17.240
 3238DOPG   GL060709  16.450  17.610   9.340
 3238DOPG   PO460710  16.630  18.090   9.420
 3238DOPG   GL160711  16.390  18.300   9.750
 3238DOPG   GL260712  16.530  18.260  10.050
 3238DOPG   C1A60713  16.000  18.140  10.130
 3238DOPG   D2A60714  15.760  18.340  10.330
 3238DOPG   C3A60715  15.960  18.340  10.730
 3238DOPG   C4A60716  15.990  18.190  11.210
 3238DOPG   C1B60717  16.320  18.140  10.470
 3238DOPG   D2B60718  15.970  17.870  10.570
 3238DOPG   C3B60719  15.760  17.840  10.960
 3238DOPG   C4B60720  15.440  17.810  11.130
 3239DOPG   GL060721   5.180  20.080   8.320
 3239DOPG   PO460722   4.860  19.770   8.300
 3239DOPG   GL160723   4.660  19.880   7.990
 3239DOPG   GL260724   4.740  20.240   8.000
 3239DOPG   C1A60725   4.310  20.130   7.650
 3239DOPG   D2A60726   4.230  20.300   7.310
 3239DOPG   C3A60727   4.390  20.270   6.830
 3239DOPG   C4A60728   4.570  20.420   6.390
 3239DOPG   C1B60729   4.820  20.230   7.570
 3239DOPG   D2B60730   4.760  20.500   7.230
 3239DOPG   C3B60731   4.860  20.480   6.820
 3239DOPG   C4B60732   5.010  20.200   6.530
 3240DOPG   GL060733   5.210  18.870  18.090
 3240DOPG   PO460734   5.360  18.850  17.720
 3240DOPG   GL160735   5.660  19.070  17.490
 3240DOPG   GL260736   5.950  19.090  17.760
 3240DOPG   C1A60737   6.100  18.990  17.320
 3240DOPG   D2A60738   6.460  18.880  17.470
 3240DOPG   C3A60739   6.770  18.780  17.760
 3240DOPG   C4A60740   7.170  18.520  17.860
 3240DOPG   C1B60741   6.360  19.160  17.910
 3240DOPG   D2B60742   6.770  19.290  17.990
 3240DOPG   C3B60743   6.980  19.630  17.790
 3240DOPG   C4B60744   7.110  19.680  17.380
 3241DOPG   GL060745  14.040  20.130  20.770
 3241DOPG   PO460746  14.240  20.540  20.630
 3241DOPG   GL160747  14.350  20.300  20.400
 3241DOPG   GL260748  14.490  20.220  20.140
 3241DOPG   C1A60749  14.000  20.210  20.020
 3241DOPG   D2A60750  13.680  20.130  19.730
 3241DOPG   C3A60751  13.640  20.570  19.460
 3241DOPG   C4A60752  13.350  20.910  19.300
 3241DOPG   C1B60753  14.490  20.210  19.720
 3241DOPG   D2B60754  14.520  20.000  19.500
 3241DOPG   C3B60755  14.080  19.840  19.600
 3241DOPG   C4B60756  13.900  19.670  19.950
 3242DOPG   GL060757   7.740  17.030   9.270
 3242DOPG   PO460758   7.580  16.920   9.710
 3242DOPG   GL160759   7.880  17.070   9.910
 3242DOPG   GL260760   8.070  16.790   9.930
 3242DOPG   C1A60761   8.100  17.330  10.160
 3242DOPG   D2A60762   8.240  17.310  10.660
 3242DOPG   C3A60763   8.190  17.630  10.800
 3242DOPG   C4A60764   8.140  17.760  11.250
 3242DOPG   C1B60765   8.280  16.890  10.360
 3242DOPG   D2B60766   8.420  16.870  10.850
 3242DOPG   C3B60767   8.110  16.740  11.160
 3242DOPG   C4B60768   7.850  16.490  11.410
 3243DOPG   GL060769   5.530  17.190  15.760
 3243DOPG   PO460770   5.200  17.340  15.500
 3243DOPG   GL160771   5.560  17.540  15.300
 3243DOPG   GL260772   5.510  17.760  15.230
 3243DOPG   C1A60773   5.920  17.440  15.340
 3243DOPG   D2A60774   6.350  17.210  15.260
 3243DOPG   C3A60775   6.610  17.400  14.940
 3243DOPG   C4A60776   6.860  17.820  14.840
 3243DOPG   C1B60777   5.810  17.900  15.540
 3243DOPG   D2B60778   6.110  18.160  15.700
 3243DOPG   C3B60779   6.310  18.060  16.100
 3243DOPG   C4B60780   6.470  17.650  16.140
 3244DOPG   GL060781   1.020  19.490   6.880
 3244DOPG   PO460782   0.650  19.590   6.970
 3244DOPG   GL160783   0.930  19.900   7.170
 3244DOPG   GL260784   0.810  20.200   7.410
 3244DOPG   C1A60785   1.410  19.990   7.130
 3244DOPG   D2A60786   1.700  20.270   7.090
 3244DOPG   C3A60787   2.060  20.520   7.390
 3244DOPG   C4A60788   2.290  20.830   7.570
 3244DOPG   C1B60789   1.210  20.210   7.540
 3244DOPG   D2B60790   1.510  20.000   7.650
 3244DOPG   C3B60791   1.950  19.980   7.540
 3244DOPG   C4B60792   2.270  19.970   7.460
 3245DOPG   GL060793   1.770  19.150  16.680
 3245DOPG   PO460794   1.830  19.180  17.130
 3245DOPG   GL160795   1.580  19.080  17.490
 3245DOPG   GL260796   1.350  19.280  17.490
 3245DOPG   C1A60797   1.320  18.850  17.720
 3245DOPG   D2A60798   0.890  18.870  17.920
 3245DOPG   C3A60799   0.590  18.590  18.200
 3245DOPG   C4A60800   0.360  18.320  18.470
 3245DOPG   C1B60801   0.960  19.170  17.510
 3245DOPG   D2B60802   0.630  19.340  17.840
 3245DOPG   C3B60803   0.230  19.420  17.720
 3245DOPG   C4B60804  36.290  19.570  17.520
 3246DOPG   GL060805  35.890  25.370  20.080
 3246DOPG   PO460806  36.050  25.410  19.620
 3246DOPG   GL160807   0.110  25.420  19.490
 3246DOPG   GL260808   0.120  25.100  19.450
 3246DOPG   C1A60809   0.550  25.560  19.450
 3246DOPG   D2A60810   0.840  25.630  19.110
 3246DOPG   C3A60811   1.140  25.770  18.870
 3246DOPG   C4A60812   1.520  25.870  18.870
 3246DOPG   C1B60813   0.270  24.780  19.730
 3246DOPG   D2B60814   0.660  24.660  19.900
 3246DOPG   C3B60815   1.070  24.700  19.710
 3246DOPG   C4B60816   1.460  24.760  19.450
 3247DOPG   GL060817  13.770  11.690  14.450
 3247DOPG   PO460818  13.300  11.780  14.590
 3247DOPG   GL160819  13.420  12.170  14.430
 3247DOPG   GL260820  13.700  12.290  14.270
 3247DOPG   C1A60821  13.370  12.470  14.790
 3247DOPG   D2A60822  13.350  12.730  15.140
 3247DOPG   C3A60823  13.670  12.980  15.260
 3247DOPG   C4A60824  14.010  12.760  15.300
 3247DOPG   C1B60825  13.940  12.630  14.040
 3247DOPG   D2B60826  14.210  13.010  14.100
 3247DOPG   C3B60827  14.030  13.430  13.930
 3247DOPG   C4B60828  14.010  13.860  13.720
 3248DOPG   GL060829   0.370  11.990  12.520
 3248DOPG   PO460830   0.170  12.000  12.170
 3248DOPG   GL160831   0.600  12.230  12.130
 3248DOPG   GL260832   0.550  12.500  12.240
 3248DOPG   C1A60833   1.020  12.390  11.980
 3248DOPG   D2A60834   1.460  12.540  12.200
 3248DOPG   C3A60835   1.790  12.420  12.520
 3248DOPG   C4A60836   2.110  12.570  12.600
 3248DOPG   C1B60837   0.870  12.820  12.300
 3248DOPG   D2B60838   1.040  12.980  12.630
 3248DOPG   C3B60839   1.300  12.980  12.990
 3248DOPG   C4B60840   1.630  13.280  13.170
 3249DOPG   GL060841   3.160  16.480  11.500
 3249DOPG   PO460842   3.500  16.060  11.500
 3249DOPG   GL160843   3.080  15.800  11.460
 3249DOPG   GL260844   3.160  15.490  11.330
 3249DOPG   C1A60845   2.720  16.090  11.360
 3249DOPG   D2A60846   2.660  16.490  11.180
 3249DOPG   C3A60847   2.420  16.540  10.810
 3249DOPG   C4A60848   2.040  16.560  10.510
 3249DOPG   C1B60849   2.790  15.640  11.060
 3249DOPG   D2B60850   2.530  15.600  10.790
 3249DOPG   C3B60851   2.080  15.700  10.860
 3249DOPG   C4B60852   1.610  15.520  10.880
 3250DOPG   GL060853  18.950  19.490  13.340
 3250DOPG   PO460854  18.900  19.780  12.930
 3250DOPG   GL160855  18.500  19.610  13.040
 3250DOPG   GL260856  18.380  19.430  13.350
 3250DOPG   C1A60857  18.070  19.450  13.010
 3250DOPG   D2A60858  17.640  19.240  13.100
 3250DOPG   C3A60859  17.240  19.240  12.840
 3250DOPG   C4A60860  17.060  18.910  12.640
 3250DOPG   C1B60861  18.020  19.210  13.400
 3250DOPG   D2B60862  17.890  18.820  13.260
 3250DOPG   C3B60863  17.480  18.630  13.550
 3250DOPG   C4B60864  17.060  18.370  13.450
 3251DOPG   GL060865   5.570  15.410  14.350
 3251DOPG   PO460866   5.690  15.040  14.580
 3251DOPG   GL160867   5.990  15.470  14.480
 3251DOPG   GL260868   6.360  15.470  14.670
 3251DOPG   C1A60869   6.310  15.800  14.320
 3251DOPG   D2A60870   6.580  16.030  14.520
 3251DOPG   C3A60871   6.710  16.450  14.440
 3251DOPG   C4A60872   6.850  16.870  14.130
 3251DOPG   C1B60873   6.810  15.560  14.490
 3251DOPG   D2B60874   6.920  15.440  13.970
 3251DOPG   C3B60875   7.230  15.340  13.880
 3251DOPG   C4B60876   7.620  15.540  13.830
 3252DOPG   GL060877  16.000  13.200  14.960
 3252DOPG   PO460878  16.020  13.030  14.570
 3252DOPG   GL160879  15.630  13.280  14.600
 3252DOPG   GL260880  15.470  13.170  14.870
 3252DOPG   C1A60881  15.350  13.670  14.750
 3252DOPG   D2A60882  15.020  13.990  14.690
 3252DOPG   C3A60883  15.020  14.450  14.650
 3252DOPG   C4A60884  15.010  14.910  14.730
 3252DOPG   C1B60885  15.160  13.260  15.190
 3252DOPG   D2B60886  14.720  13.410  15.400
 3252DOPG   C3B60887  14.410  13.690  15.670
 3252DOPG   C4B60888  14.040  13.890  15.590
 3253DOPG   GL060889   6.040  16.010  12.010
 3253DOPG   PO460890   5.810  15.850  12.340
 3253DOPG   GL160891   6.030  15.850  12.640
 3253DOPG   GL260892   6.080  16.140  12.820
 3253DOPG   C1A60893   6.410  15.670  12.880
 3253DOPG   D2A60894   6.840  15.820  13.060
 3253DOPG   C3A60895   7.140  15.580  13.170
 3253DOPG   C4A60896   7.390  15.390  13.410
 3253DOPG   C1B60897   6.370  16.300  13.000
 3253DOPG   D2B60898   6.770  16.360  13.210
 3253DOPG   C3B60899   7.130  16.280  13.110
 3253DOPG   C4B60900   7.430  16.460  13.100
 3254DOPG   GL060901  36.310  18.730  22.730
 3254DOPG   PO460902   0.290  19.130  22.600
 3254DOPG   GL160903   0.500  19.080  22.200
 3254DOPG   GL260904   0.820  19.210  22.290
 3254DOPG   C1A60905   0.810  19.000  21.850
 3254DOPG   D2A60906   1.050  19.120  21.550
 3254DOPG   C3A60907   1.050  18.900  21.220
 3254DOPG   C4A60908   0.990  18.440  21.140
 3254DOPG   C1B60909   1.200  19.220  22.080
 3254DOPG   D2B60910   1.630  19.050  21.910
 3254DOPG   C3B60911   1.910  19.250  21.800
 3254DOPG   C4B60912   2.250  19.340  21.730
 3255DOPG   GL060913  14.880  25.930  14.910
 3255DOPG   PO460914  14.540  25.940  14.580
 3255DOPG   GL160915  14.460  25.460  14.470
 3255DOPG   GL260916  14.180  25.420  14.690
 3255DOPG   C1A60917  14.630  25.130  14.390
 3255DOPG   D2A60918  14.480  24.650  14.640
 3255DOPG   C3A60919  14.160  24.410  14.460
 3255DOPG   C4A60920  13.980  24.140  14.170
 3255DOPG   C1B60921  14.050  25.000  14.450
 3255DOPG   D2B60922  13.670  24.770  14.320
 3255DOPG   C3B60923  13.540  24.440  14.080
 3255DOPG   C4B60924  13.320  24.400  13.640
 3256DOPG   GL060925  12.070  26.400  14.540
 3256DOPG   PO460926  12.520  26.300  14.730
 3256DOPG   GL160927  12.600  25.840  14.550
 3256DOPG   GL260928  12.900  25.710  14.310
 3256DOPG   C1A60929  12.650  25.310  14.470
 3256DOPG   D2A60930  12.680  24.910  14.560
 3256DOPG   C3A60931  12.520  24.570  14.870
 3256DOPG   C4A60932  12.550  24.130  14.980
 3256DOPG   C1B60933  13.020  25.560  14.730
 3256DOPG   D2B60934  12.980  25.180  14.950
 3256DOPG   C3B60935  13.000  24.790  14.850
 3256DOPG   C4B60936  13.100  24.280  14.910
 3257DOPG   GL060937  13.810  12.680  12.010
 3257DOPG   PO460938  14.060  12.920  11.660
 3257DOPG   GL160939  14.050  13.310  11.900
 3257DOPG   GL260940  13.810  13.260  12.150
 3257DOPG   C1A60941  13.940  13.760  11.940
 3257DOPG   D2A60942  13.960  14.200  12.000
 3257DOPG   C3A60943  14.200  14.270  12.310
 3257DOPG   C4A60944  14.200  14.610  12.750
 3257DOPG   C1B60945  13.780  13.360  12.650
 3257DOPG   D2B60946  13.670  13.710  12.930
 3257DOPG   C3B60947  13.570  14.100  12.980
 3257DOPG   C4B60948  13.340  14.500  12.850
 3258DOPG   GL060949   7.180  19.090   8.670
 3258DOPG   PO460950   7.510  18.770   8.840
 3258DOPG   GL160951   7.610  18.970   9.130
 3258DOPG   GL260952   7.500  18.810   9.360
 3258DOPG   C1A60953   7.650  19.290   9.490
 3258DOPG   D2A60954   7.550  19.690   9.550
 3258DOPG   C3A60955   7.850  19.920   9.430
 3258DOPG   C4A60956   8.130  19.820   9.140
 3258DOPG   C1B60957   7.970  18.870   9.480
 3258DOPG   D2B60958   8.110  19.050   9.790
 3258DOPG   C3B60959   8.180  19.290  10.140
 3258DOPG   C4B60960   8.300  19.120  10.530
 3259DOPG   GL060961  11.220  11.740  14.720
 3259DOPG   PO460962  11.310  11.580  14.410
 3259DOPG   GL160963  11.440  12.000  14.380
 3259DOPG   GL260964  11.690  12.050  14.430
 3259DOPG   C1A60965  11.460  12.530  14.440
 3259DOPG   D2A60966  11.460  12.960  14.520
 3259DOPG   C3A60967  11.230  13.290  14.270
 3259DOPG   C4A60968  11.160  13.630  14.090
 3259DOPG   C1B60969  11.880  12.350  14.370
 3259DOPG   D2B60970  12.040  12.770  14.290
 3259DOPG   C3B60971  11.830  13.180  14.200
 3259DOPG   C4B60972  11.690  13.510  14.490
 3260DOPG   GL060973   4.330  25.150  14.280
 3260DOPG   PO460974   4.450  25.390  13.990
 3260DOPG   GL160975   4.270  25.810  13.930
 3260DOPG   GL260976   4.040  26.020  14.230
 3260DOPG   C1A60977   3.920  26.100  13.760
 3260DOPG   D2A60978   3.770  26.420  13.630
 3260DOPG   C3A60979   3.450  26.280  13.340
 3260DOPG   C4A60980   3.160  26.340  13.010
 3260DOPG   C1B60981   3.760  26.330  14.170
 3260DOPG   D2B60982   3.590  26.710  14.150
 3260DOPG   C3B60983   3.140  26.770  14.180
 3260DOPG   C4B60984   2.950  27.210  14.210
 3261DOPG   GL060985   6.720  29.370   9.030
 3261DOPG   PO460986   6.610  28.950   8.900
 3261DOPG   GL160987   6.620  28.840   9.320
 3261DOPG   GL260988   6.460  28.620   9.590
 3261DOPG   C1A60989   6.920  28.760   9.490
 3261DOPG   D2A60990   7.250  28.420   9.350
 3261DOPG   C3A60991   7.540  28.250   9.550
 3261DOPG   C4A60992   7.910  28.110   9.730
 3261DOPG   C1B60993   6.920  28.310   9.780
 3261DOPG   D2B60994   7.220  27.930   9.950
 3261DOPG   C3B60995   6.990  27.530   9.980
 3261DOPG   C4B60996   7.010  27.230  10.290
 3262DOPG   GL060997  13.370  22.330  22.010
 3262DOPG   PO460998  12.990  22.070  22.090
 3262DOPG   GL160999  13.000  22.190  22.460
 3262DOPG   GL261000  12.740  22.440  22.580
 3262DOPG   C1A61001  13.290  22.340  22.790
 3262DOPG   D2A61002  13.280  22.620  23.280
 3262DOPG   C3A61003  12.960  22.890  23.660
 3262DOPG   C4A61004  12.980  22.960  24.100
 3262DOPG   C1B61005  12.440  22.760  22.730
 3262DOPG   D2B61006  12.390  22.960  23.040
 3262DOPG   C3B61007  12.520  23.200  23.490
 3262DOPG   C4B61008  12.490  23.220  23.950
 3263DOPG   GL061009  13.680  11.740   4.700
 3263DOPG   PO461010  13.700  12.030   4.370
 3263DOPG   GL161011  13.500  12.220   4.880
 3263DOPG   GL261012  13.770  12.410   5.070
 3263DOPG   C1A61013  13.210  12.450   5.180
 3263DOPG   D2A61014  13.260  12.560   5.630
 3263DOPG   C3A61015  13.640  12.870   5.570
 3263DOPG   C4A61016  13.950  13.200   5.380
 3263DOPG   C1B61017  13.650  12.860   5.090
 3263DOPG   D2B61018  13.920  13.180   4.900
 3263DOPG   C3B61019  13.700  13.610   4.940
 3263DOPG   C4B61020  13.950  13.980   4.830
 3264DOPG   GL061021  10.280  25.750  11.890
 3264DOPG   PO461022  10.270  26.220  11.800
 3264DOPG   GL161023  10.280  26.660  11.580
 3264DOPG   GL261024  10.530  26.770  11.240
 3264DOPG   C1A61025  10.130  27.020  11.400
 3264DOPG   D2A61026  10.120  27.370  11.070
 3264DOPG   C3A61027   9.830  27.770  11.010
 3264DOPG   C4A61028   9.950  27.940  11.290
 3264DOPG   C1B61029  10.440  26.990  10.880
 3264DOPG   D2B61030  10.250  27.190  10.450
 3264DOPG   C3B61031  10.050  27.520  10.550
 3264DOPG   C4B61032   9.920  27.980  10.510
 3265DOPG   GL061033  19.240  15.470  16.960
 3265DOPG   PO461034  18.800  15.290  17.090
 3265DOPG   GL161035  19.110  14.980  17.130
 3265DOPG   GL261036  19.360  14.970  17.400
 3265DOPG   C1A61037  19.380  14.590  17.040
 3265DOPG   D2A61038  19.440  14.260  17.190
 3265DOPG   C3A61039  19.740  14.010  17.050
 3265DOPG   C4A61040  19.930  13.660  17.180
 3265DOPG   C1B61041  19.550  14.660  17.480
 3265DOPG   D2B61042  19.880  14.550  17.290
 3265DOPG   C3B61043  20.240  14.800  17.200
 3265DOPG   C4B61044  20.500  15.030  17.480
 3266DOPG   GL061045  18.350  21.800  12.010
 3266DOPG   PO461046  18.170  21.440  12.290
 3266DOPG   GL161047  17.730  21.450  12.420
 3266DOPG   GL261048  17.610  21.780  12.610
 3266DOPG   C1A61049  17.390  21.120  12.500
 3266DOPG   D2A61050  16.990  20.790  12.410
 3266DOPG   C3A61051  16.830  20.760  11.970
 3266DOPG   C4A61052  16.530  20.630  11.760
 3266DOPG   C1B61053  17.300  21.480  12.880
 3266DOPG   D2B61054  17.280  21.050  13.130
 3266DOPG   C3B61055  16.910  20.970  13.450
 3266DOPG   C4B61056  16.690  20.970  13.860
 3267DOPG   GL061057  16.800  23.100  10.800
 3267DOPG   PO461058  16.650  23.140  11.260
 3267DOPG   GL161059  16.450  23.140  11.610
 3267DOPG   GL261060  16.570  22.800  11.630
 3267DOPG   C1A61061  16.260  22.830  11.950
 3267DOPG   D2A61062  16.100  22.420  12.310
 3267DOPG   C3A61063  15.650  22.470  12.310
 3267DOPG   C4A61064  15.160  22.530  12.290
 3267DOPG   C1B61065  16.580  22.460  11.450
 3267DOPG   D2B61066  16.780  22.020  11.580
 3267DOPG   C3B61067  16.720  21.520  11.590
 3267DOPG   C4B61068  16.480  21.110  11.700
 3268DOPG   GL061069   5.740  19.690  13.240
 3268DOPG   PO461070   6.090  19.610  13.540
 3268DOPG   GL161071   6.520  19.690  13.560
 3268DOPG   GL261072   6.590  19.990  13.310
 3268DOPG   C1A61073   6.900  19.540  13.540
 3268DOPG   D2A61074   7.210  19.780  13.710
 3268DOPG   C3A61075   7.680  19.640  13.460
 3268DOPG   C4A61076   8.030  19.780  13.310
 3268DOPG   C1B61077   6.950  20.260  13.370
 3268DOPG   D2B61078   7.330  20.370  13.480
 3268DOPG   C3B61079   7.620  20.110  13.610
 3268DOPG   C4B61080   7.970  20.070  13.760
 3269DOPG   GL061081   7.550  21.820  10.160
 3269DOPG   PO461082   7.600  21.400  10.040
 3269DOPG   GL161083   7.950  21.190  10.120
 3269DOPG   GL261084   8.040  20.870   9.990
 3269DOPG   C1A61085   8.280  21.300  10.300
 3269DOPG   D2A61086   8.770  21.460  10.240
 3269DOPG   C3A61087   8.790  21.300  10.690
 3269DOPG   C4A61088   8.680  20.950  11.070
 3269DOPG   C1B61089   8.310  20.650  10.240
 3269DOPG   D2B61090   8.540  20.530  10.560
 3269DOPG   C3B61091   8.650  20.020  10.500
 3269DOPG   C4B61092   9.010  19.860  10.460
 3270DOPG   GL061093  12.890  26.520  19.000
 3270DOPG   PO461094  12.660  26.910  19.030
 3270DOPG   GL161095  12.760  27.230  19.280
 3270DOPG   GL261096  13.090  27.210  19.480
 3270DOPG   C1A61097  12.630  27.470  19.650
 3270DOPG   D2A61098  12.580  27.740  19.990
 3270DOPG   C3A61099  12.300  27.790  20.390
 3270DOPG   C4A61100  11.930  27.850  20.550
 3270DOPG   C1B61101  13.120  27.510  19.830
 3270DOPG   D2B61102  13.200  27.770  20.160
 3270DOPG   C3B61103  13.560  27.870  20.290
 3270DOPG   C4B61104  13.930  28.010  20.250
 3271DOPG   GL061105   7.460  15.130   9.890
 3271DOPG   PO461106   7.340  15.580  10.190
 3271DOPG   GL161107   7.500  16.050  10.430
 3271DOPG   GL261108   7.730  16.260  10.410
 3271DOPG   C1A61109   7.560  15.930  10.810
 3271DOPG   D2A61110   7.770  15.860  11.140
 3271DOPG   C3A61111   8.150  15.630  11.240
 3271DOPG   C4A61112   8.460  15.770  11.480
 3271DOPG   C1B61113   8.070  16.020  10.550
 3271DOPG   D2B61114   8.270  15.760  10.310
 3271DOPG   C3B61115   8.710  15.570  10.470
 3271DOPG   C4B61116   9.200  15.420  10.470
 3272DOPG   GL061117   8.010  25.050  13.720
 3272DOPG   PO461118   8.000  25.240  14.160
 3272DOPG   GL161119   8.370  25.130  14.360
 3272DOPG   GL261120   8.510  24.850  14.460
 3272DOPG   C1A61121   8.810  25.310  14.550
 3272DOPG   D2A61122   9.220  25.450  14.810
 3272DOPG   C3A61123   9.500  25.240  15.110
 3272DOPG   C4A61124   9.340  25.410  15.490
 3272DOPG   C1B61125   8.430  24.580  14.860
 3272DOPG   D2B61126   8.710  24.500  15.120
 3272DOPG   C3B61127   8.640  24.140  15.380
 3272DOPG   C4B61128   8.830  23.950  15.730
 3273DOPG   GL061129  10.110  20.300  26.650
 3273DOPG   PO461130  10.260  20.660  26.970
 3273DOPG   GL161131  10.230  20.930  26.710
 3273DOPG   GL261132  10.160  20.880  26.410
 3273DOPG   C1A61133   9.960  21.310  26.540
 3273DOPG   D2A61134   9.840  21.660  26.230
 3273DOPG   C3A61135   9.600  21.390  25.850
 3273DOPG   C4A61136   9.340  21.180  25.580
 3273DOPG   C1B61137   9.880  20.580  26.270
 3273DOPG   D2B61138   9.440  20.470  26.250
 3273DOPG   C3B61139   9.460  20.260  25.880
 3273DOPG   C4B61140   9.250  19.920  25.580
 3274DOPG   GL061141  15.670  20.210  20.110
 3274DOPG   PO461142  15.610  20.640  20.200
 3274DOPG   GL161143  15.360  20.670  19.880
 3274DOPG   GL261144  15.260  20.970  19.870
 3274DOPG   C1A61145  15.480  20.650  19.450
 3274DOPG   D2A61146  15.110  20.590  19.120
 3274DOPG   C3A61147  15.100  20.570  18.650
 3274DOPG   C4A61148  14.860  20.270  18.400
 3274DOPG   C1B61149  15.100  21.000  19.430
 3274DOPG   D2B61150  15.000  21.250  19.180
 3274DOPG   C3B61151  14.610  21.410  19.150
 3274DOPG   C4B61152  14.490  21.800  19.250
 3275DOPG   GL061153   5.380  21.520  16.410
 3275DOPG   PO461154   5.700  21.710  16.470
 3275DOPG   GL161155   6.030  21.760  16.770
 3275DOPG   GL261156   6.180  21.450  16.720
 3275DOPG   C1A61157   6.410  21.930  16.820
 3275DOPG   D2A61158   6.580  21.970  16.510
 3275DOPG   C3A61159   7.000  21.780  16.500
 3275DOPG   C4A61160   7.440  21.890  16.590
 3275DOPG   C1B61161   6.630  21.400  16.630
 3275DOPG   D2B61162   7.140  21.390  16.750
 3275DOPG   C3B61163   7.510  21.350  16.520
 3275DOPG   C4B61164   7.830  21.110  16.270
 3276DOPG   GL061165  34.620  16.540  11.940
 3276DOPG   PO461166  34.720  16.310  12.130
 3276DOPG   GL161167  35.120  16.470  12.220
 3276DOPG   GL261168  35.250  16.250  12.110
 3276DOPG   C1A61169  35.260  16.830  12.500
 3276DOPG   D2A61170  35.250  17.260  12.270
 3276DOPG   C3A61171  35.110  17.620  12.530
 3276DOPG   C4A61172  34.980  18.170  12.610
 3276DOPG   C1B61173  35.700  16.280  12.310
 3276DOPG   D2B61174  36.090  16.490  12.480
 3276DOPG   C3B61175  36.260  16.980  12.620
 3276DOPG   C4B61176  36.300  17.020  13.010
 3277DOPG   GL061177   6.970  15.580   8.960
 3277DOPG   PO461178   7.030  15.430   8.600
 3277DOPG   GL161179   6.730  15.370   8.270
 3277DOPG   GL261180   6.680  15.690   8.140
 3277DOPG   C1A61181   6.380  15.090   8.160
 3277DOPG   D2A61182   6.170  14.870   7.740
 3277DOPG   C3A61183   5.710  14.820   7.850
 3277DOPG   C4A61184   5.410  15.170   7.810
 3277DOPG   C1B61185   6.590  15.390   7.810
 3277DOPG   D2B61186   6.720  15.130   7.520
 3277DOPG   C3B61187   6.370  15.140   7.260
 3277DOPG   C4B61188   6.150  14.930   6.870
 3278DOPG   GL061189  17.490  22.340  18.290
 3278DOPG   PO461190  17.190  22.180  18.060
 3278DOPG   GL161191  17.230  21.910  17.640
 3278DOPG   GL261192  17.540  21.700  17.610
 3278DOPG   C1A61193  17.180  21.880  17.190
 3278DOPG   D2A61194  17.080  21.550  16.910
 3278DOPG   C3A61195  17.310  21.270  16.780
 3278DOPG   C4A61196  17.710  21.210  16.640
 3278DOPG   C1B61197  17.220  21.460  17.410
 3278DOPG   D2B61198  17.150  21.090  17.260
 3278DOPG   C3B61199  16.820  21.080  16.940
 3278DOPG   C4B61200  16.730  21.260  16.630
 3279DOPG   GL061201  14.310  16.400   8.240
 3279DOPG   PO461202  14.000  16.440   8.450
 3279DOPG   GL161203  14.250  16.680   8.750
 3279DOPG   GL261204  14.500  16.660   8.840
 3279DOPG   C1A61205  14.050  16.810   9.180
 3279DOPG   D2A61206  13.810  17.070   9.580
 3279DOPG   C3A61207  13.820  16.950   9.950
 3279DOPG   C4A61208  13.610  16.760  10.320
 3279DOPG   C1B61209  14.510  16.480   9.310
 3279DOPG   D2B61210  14.600  16.520   9.730
 3279DOPG   C3B61211  14.900  16.280   9.860
 3279DOPG   C4B61212  15.250  16.330   9.670
 3280DOPG   GL061213  18.740  20.870  11.810
 3280DOPG   PO461214  18.330  20.730  12.090
 3280DOPG   GL161215  18.030  20.550  12.280
 3280DOPG   GL261216  18.170  20.270  12.220
 3280DOPG   C1A61217  17.560  20.580  12.520
 3280DOPG   D2A61218  17.210  20.370  12.760
 3280DOPG   C3A61219  16.930  20.080  12.690
 3280DOPG   C4A61220  16.870  19.680  12.720
 3280DOPG   C1B61221  17.840  20.100  12.410
 3280DOPG   D2B61222  17.440  19.970  12.490
 3280DOPG   C3B61223  17.110  19.790  12.290
 3280DOPG   C4B61224  16.680  19.850  12.290
 3281DOPG   GL061225  23.290  22.480  11.530
 3281DOPG   PO461226  23.110  22.170  11.420
 3281DOPG   GL161227  22.780  22.220  11.150
 3281DOPG   GL261228  22.540  22.150  11.430
 3281DOPG   C1A61229  22.420  22.170  10.910
 3281DOPG   D2A61230  22.200  22.190  10.480
 3281DOPG   C3A61231  21.780  21.990  10.530
 3281DOPG   C4A61232  21.660  21.610  10.640
 3281DOPG   C1B61233  22.000  22.210  11.410
 3281DOPG   D2B61234  21.860  22.580  11.580
 3281DOPG   C3B61235  21.480  22.450  11.930
 3281DOPG   C4B61236  21.250  22.510  12.320
 3282DOPG   GL061237  12.080  20.880   7.990
 3282DOPG   PO461238  12.210  21.180   8.340
 3282DOPG   GL161239  12.410  20.780   8.490
 3282DOPG   GL261240  12.810  20.720   8.430
 3282DOPG   C1A61241  12.430  20.490   8.940
 3282DOPG   D2A61242  12.090  20.540   9.320
 3282DOPG   C3A61243  11.880  20.860   9.360
 3282DOPG   C4A61244  11.700  21.140   9.040
 3282DOPG   C1B61245  12.880  20.370   8.640
 3282DOPG   D2B61246  12.900  20.180   8.900
 3282DOPG   C3B61247  12.730  20.280   9.260
 3282DOPG   C4B61248  12.440  20.200   9.500
 3283DOPG   GL061249   2.570  19.280  11.390
 3283DOPG   PO461250   2.300  19.430  11.440
 3283DOPG   GL161251   2.000  19.310  11.230
 3283DOPG   GL261252   1.640  19.210  11.160
 3283DOPG   C1A61253   1.940  19.340  10.770
 3283DOPG   D2A61254   1.860  19.330  10.430
 3283DOPG   C3A61255   1.450  19.600  10.390
 3283DOPG   C4A61256   1.030  19.800  10.200
 3283DOPG   C1B61257   1.250  19.190  10.800
 3283DOPG   D2B61258   0.820  19.130  10.580
 3283DOPG   C3B61259   0.640  18.910  10.210
 3283DOPG   C4B61260   0.750  18.850   9.780
 3284DOPG   GL061261   1.580  22.320   6.640
 3284DOPG   PO461262   1.630  22.790   6.770
 3284DOPG   GL161263   1.830  22.660   7.110
 3284DOPG   GL261264   2.220  22.600   7.180
 3284DOPG   C1A61265   1.830  22.520   7.490
 3284DOPG   D2A61266   2.240  22.360   7.720
 3284DOPG   C3A61267   2.090  22.390   8.220
 3284DOPG   C4A61268   2.180  22.100   8.510
 3284DOPG   C1B61269   2.540  22.320   7.320
 3284DOPG   D2B61270   2.740  22.200   7.710
 3284DOPG   C3B61271   2.500  22.020   7.990
 3284DOPG   C4B61272   2.020  21.940   8.010
 3285DOPG   GL061273   9.160  11.420  12.750
 3285DOPG   PO461274   9.360  11.330  13.060
 3285DOPG   GL161275   9.560  11.650  13.230
 3285DOPG   GL261276   9.480  11.690  13.530
 3285DOPG   C1A61277   9.620  12.200  13.230
 3285DOPG   D2A61278   9.380  12.440  13.380
 3285DOPG   C3A61279   9.370  12.800  13.640
 3285DOPG   C4A61280   9.160  13.050  13.990
 3285DOPG   C1B61281   9.550  11.930  13.870
 3285DOPG   D2B61282   9.730  12.270  14.130
 3285DOPG   C3B61283   9.800  12.560  13.810
 3285DOPG   C4B61284  10.060  12.840  13.790
 3286DOPG   GL061285  12.690   7.170  11.870
 3286DOPG   PO461286  12.760   7.150  11.390
 3286DOPG   GL161287  12.500   7.600  11.540
 3286DOPG   GL261288  12.170   7.640  11.430
 3286DOPG   C1A61289  12.400   7.970  11.670
 3286DOPG   D2A61290  12.160   8.150  11.890
 3286DOPG   C3A61291  12.120   8.000  12.260
 3286DOPG   C4A61292  12.370   7.900  12.650
 3286DOPG   C1B61293  12.000   8.060  11.370
 3286DOPG   D2B61294  12.030   8.450  11.460
 3286DOPG   C3B61295  11.920   8.620  12.030
 3286DOPG   C4B61296  11.550   8.920  11.920
 3287DOPG   GL061297  14.050  25.300  18.080
 3287DOPG   PO461298  14.070  24.970  17.880
 3287DOPG   GL161299  14.150  24.540  17.910
 3287DOPG   GL261300  13.820  24.450  17.750
 3287DOPG   C1A61301  14.140  24.060  17.860
 3287DOPG   D2A61302  14.400  23.640  17.720
 3287DOPG   C3A61303  14.630  23.630  17.350
 3287DOPG   C4A61304  14.690  23.650  16.980
 3287DOPG   C1B61305  13.690  24.230  17.380
 3287DOPG   D2B61306  13.750  23.850  17.290
 3287DOPG   C3B61307  13.850  23.600  17.710
 3287DOPG   C4B61308  13.540  23.480  18.040
 3288DOPG   GL061309   2.460  28.720  12.110
 3288DOPG   PO461310   2.090  28.500  12.350
 3288DOPG   GL161311   2.300  28.200  12.110
 3288DOPG   GL261312   2.110  28.030  12.190
 3288DOPG   C1A61313   2.530  27.800  11.880
 3288DOPG   D2A61314   2.650  27.580  11.480
 3288DOPG   C3A61315   3.030  27.710  11.120
 3288DOPG   C4A61316   3.420  27.720  11.050
 3288DOPG   C1B61317   2.060  27.750  12.410
 3288DOPG   D2B61318   2.170  27.540  12.740
 3288DOPG   C3B61319   2.380  27.220  12.670
 3288DOPG   C4B61320   2.650  26.990  13.000
 3289DOPG   GL061321   5.750  31.030  14.850
 3289DOPG   PO461322   6.120  31.030  15.040
 3289DOPG   GL161323   5.870  30.640  15.180
 3289DOPG   GL261324   6.070  30.620  15.380
 3289DOPG   C1A61325   5.570  30.340  15.200
 3289DOPG   D2A61326   5.380  29.990  14.870
 3289DOPG   C3A61327   5.140  29.600  14.900
 3289DOPG   C4A61328   4.730  29.470  14.950
 3289DOPG   C1B61329   6.130  30.190  15.460
 3289DOPG   D2B61330   6.390  29.930  15.280
 3289DOPG   C3B61331   6.780  30.110  14.940
 3289DOPG   C4B61332   6.940  30.040  14.600
 3290DOPG   GL061333  17.010  17.040  25.040
 3290DOPG   PO461334  16.680  16.660  25.050
 3290DOPG   GL161335  16.570  16.440  24.680
 3290DOPG   GL261336  16.670  16.800  24.490
 3290DOPG   C1A61337  16.240  16.570  24.360
 3290DOPG   D2A61338  16.070  16.940  24.130
 3290DOPG   C3A61339  15.920  16.850  23.730
 3290DOPG   C4A61340  15.500  16.830  23.580
 3290DOPG   C1B61341  16.680  17.140  24.100
 3290DOPG   D2B61342  16.460  17.480  23.860
 3290DOPG   C3B61343  16.090  17.410  23.860
 3290DOPG   C4B61344  15.700  17.210  23.990
 3291DOPG   GL061345   8.250  16.710  15.200
 3291DOPG   PO461346   8.410  17.090  15.190
 3291DOPG   GL161347   7.980  17.100  15.000
 3291DOPG   GL261348   7.910  17.370  14.990
 3291DOPG   C1A61349   7.600  17.080  15.170
 3291DOPG   D2A61350   7.080  16.970  15.170
 3291DOPG   C3A61351   6.970  16.530  15.360
 3291DOPG   C4A61352   6.810  16.050  15.320
 3291DOPG   C1B61353   7.660  17.740  14.870
 3291DOPG   D2B61354   7.280  17.970  14.950
 3291DOPG   C3B61355   7.340  18.300  15.180
 3291DOPG   C4B61356   7.200  18.360  15.640
 3292DOPG   GL061357  12.910  21.670  13.300
 3292DOPG   PO461358  12.840  21.880  13.000
 3292DOPG   GL161359  13.040  22.200  12.830
 3292DOPG   GL261360  13.120  22.100  12.460
 3292DOPG   C1A61361  12.990  22.630  12.550
 3292DOPG   D2A61362  12.780  23.030  12.400
 3292DOPG   C3A61363  13.060  23.290  12.470
 3292DOPG   C4A61364  13.400  23.460  12.400
 3292DOPG   C1B61365  13.450  22.310  12.480
 3292DOPG   D2B61366  13.650  22.500  12.160
 3292DOPG   C3B61367  13.770  22.970  12.040
 3292DOPG   C4B61368  14.260  23.170  12.100
 3293DOPG   GL061369  12.370  11.390  15.220
 3293DOPG   PO461370  12.110  11.350  15.000
 3293DOPG   GL161371  12.070  11.720  14.870
 3293DOPG   GL261372  11.740  11.910  14.930
 3293DOPG   C1A61373  12.160  12.140  14.800
 3293DOPG   D2A61374  12.450  12.290  14.500
 3293DOPG   C3A61375  12.510  12.720  14.490
 3293DOPG   C4A61376  12.320  13.180  14.320
 3293DOPG   C1B61377  11.650  12.320  14.840
 3293DOPG   D2B61378  12.010  12.620  14.800
 3293DOPG   C3B61379  12.140  12.850  15.180
 3293DOPG   C4B61380  12.130  13.160  15.480
 3294DOPG   GL061381   0.810  26.270   9.180
 3294DOPG   PO461382   0.820  25.910   9.410
 3294DOPG   GL161383   1.000  25.800   9.860
 3294DOPG   GL261384   1.460  25.810  10.000
 3294DOPG   C1A61385   0.990  25.440  10.210
 3294DOPG   D2A61386   1.170  25.030  10.400
 3294DOPG   C3A61387   1.450  24.730  10.180
 3294DOPG   C4A61388   1.870  24.520   9.890
 3294DOPG   C1B61389   1.530  25.230   9.870
 3294DOPG   D2B61390   1.630  24.850   9.690
 3294DOPG   C3B61391   1.350  24.550   9.730
 3294DOPG   C4B61392   1.000  24.300   9.850
 3295DOPG   GL061393  36.260  11.780  12.530
 3295DOPG   PO461394   0.200  11.520  12.720
 3295DOPG   GL161395   0.460  11.790  13.050
 3295DOPG   GL261396   0.700  11.880  12.920
 3295DOPG   C1A61397   0.600  12.200  13.310
 3295DOPG   D2A61398   0.750  12.650  13.350
 3295DOPG   C3A61399   1.080  12.760  13.630
 3295DOPG   C4A61400   1.450  13.010  13.770
 3295DOPG   C1B61401   1.160  12.040  12.930
 3295DOPG   D2B61402   1.610  11.880  12.950
 3295DOPG   C3B61403   1.690  11.410  12.900
 3295DOPG   C4B61404   1.890  11.060  13.070
 3296DOPG   GL061405  14.730  19.580   8.740
 3296DOPG   PO461406  14.360  19.760   8.590
 3296DOPG   GL161407  14.270  19.710   9.040
 3296DOPG   GL261408  14.520  19.730   9.140
 3296DOPG   C1A61409  14.090  19.550   9.370
 3296DOPG   D2A61410  13.730  19.640   9.660
 3296DOPG   C3A61411  13.390  19.880   9.540
 3296DOPG   C4A61412  13.220  20.030   9.280
 3296DOPG   C1B61413  14.160  20.070   9.380
 3296DOPG   D2B61414  13.960  20.150   9.750
 3296DOPG   C3B61415  13.640  20.460   9.660
 3296DOPG   C4B61416  13.620  20.870   9.510
 3297DOPG   GL061417  14.750  17.640   8.110
 3297DOPG   PO461418  14.350  17.360   8.260
 3297DOPG   GL161419  14.020  17.490   8.510
 3297DOPG   GL261420  14.180  17.610   8.820
 3297DOPG   C1A61421  13.810  17.190   8.910
 3297DOPG   D2A61422  13.480  17.150   9.110
 3297DOPG   C3A61423  13.070  17.150   9.320
 3297DOPG   C4A61424  12.680  17.140   9.430
 3297DOPG   C1B61425  13.830  17.890   8.900
 3297DOPG   D2B61426  13.400  17.990   9.040
 3297DOPG   C3B61427  13.280  18.120   9.410
 3297DOPG   C4B61428  13.210  17.800   9.800
 3298DOPG   GL061429   9.200  18.680  14.900
 3298DOPG   PO461430   9.150  19.150  14.890
 3298DOPG   GL161431   8.740  18.910  14.670
 3298DOPG   GL261432   8.380  18.800  14.730
 3298DOPG   C1A61433   8.500  19.090  14.330
 3298DOPG   D2A61434   8.260  19.190  14.130
 3298DOPG   C3A61435   7.930  19.170  14.210
 3298DOPG   C4A61436   7.760  19.440  14.490
 3298DOPG   C1B61437   8.270  19.130  15.000
 3298DOPG   D2B61438   7.790  19.120  15.170
 3298DOPG   C3B61439   7.530  18.790  15.060
 3298DOPG   C4B61440   7.170  18.820  14.910
 3299DOPG   GL061441  34.880  26.740  14.540
 3299DOPG   PO461442  35.080  26.340  14.730
 3299DOPG   GL161443  35.420  26.060  14.690
 3299DOPG   GL261444  35.500  25.930  15.110
 3299DOPG   C1A61445  35.810  25.990  14.470
 3299DOPG   D2A61446  36.250  25.630  14.570
 3299DOPG   C3A61447   0.240  25.760  14.670
 3299DOPG   C4A61448   0.680  25.760  14.660
 3299DOPG   C1B61449  36.000  25.840  15.040
 3299DOPG   D2B61450   0.040  25.600  15.100
 3299DOPG   C3B61451   0.440  25.690  15.100
 3299DOPG   C4B61452   0.530  25.670  15.540
 3300DOPG   GL061453  10.910  17.690  17.350
 3300DOPG   PO461454  10.690  18.040  17.430
 3300DOPG   GL161455  10.760  17.830  17.810
 3300DOPG   GL261456  11.000  17.520  17.900
 3300DOPG   C1A61457  10.770  17.820  18.200
 3300DOPG   D2A61458  10.630  17.900  18.560
 3300DOPG   C3A61459  10.780  17.710  18.910
 3300DOPG   C4A61460  11.120  17.420  19.040
 3300DOPG   C1B61461  10.970  17.350  18.300
 3300DOPG   D2B61462  10.760  17.220  18.650
 3300DOPG   C3B61463  10.360  17.310  18.750
 3300DOPG   C4B61464   9.980  17.200  18.850
 3301DOPG   GL061465  14.810  19.780  14.830
 3301DOPG   PO461466  15.130  19.530  15.110
 3301DOPG   GL161467  15.540  19.500  15.230
 3301DOPG   GL261468  15.740  19.520  14.970
 3301DOPG   C1A61469  15.830  19.720  15.440
 3301DOPG   D2A61470  16.010  20.010  15.610
 3301DOPG   C3A61471  15.850  20.330  15.740
 3301DOPG   C4A61472  15.520  20.580  15.770
 3301DOPG   C1B61473  16.080  19.510  14.760
 3301DOPG   D2B61474  16.230  19.170  14.630
 3301DOPG   C3B61475  16.580  19.010  14.530
 3301DOPG   C4B61476  17.060  18.820  14.540
 3302DOPG   GL061477   2.460  12.540   8.190
 3302DOPG   PO461478   2.670  12.860   8.010
 3302DOPG   GL161479   2.650  13.240   8.330
 3302DOPG   GL261480   2.650  13.410   8.240
 3302DOPG   C1A61481   2.760  13.310   8.760
 3302DOPG   D2A61482   2.840  13.080   9.120
 3302DOPG   C3A61483   3.270  12.750   9.070
 3302DOPG   C4A61484   3.690  12.720   9.350
 3302DOPG   C1B61485   2.650  13.890   8.140
 3302DOPG   D2B61486   2.280  14.080   7.920
 3302DOPG   C3B61487   2.200  14.550   7.840
 3302DOPG   C4B61488   2.270  14.880   7.610
 3303DOPG   GL061489   9.480  16.640  16.270
 3303DOPG   PO461490   9.240  16.900  16.110
 3303DOPG   GL161491   8.990  16.800  16.370
 3303DOPG   GL261492   9.100  16.580  16.600
 3303DOPG   C1A61493   8.630  16.690  16.670
 3303DOPG   D2A61494   8.270  16.860  16.770
 3303DOPG   C3A61495   8.030  16.910  17.040
 3303DOPG   C4A61496   7.920  17.320  17.350
 3303DOPG   C1B61497   8.860  16.250  16.870
 3303DOPG   D2B61498   9.010  15.880  16.950
 3303DOPG   C3B61499   9.320  15.620  16.770
 3303DOPG   C4B61500   9.510  15.210  16.850
 3304DOPG   GL061501   8.200  14.370   3.870
 3304DOPG   PO461502   8.150  14.720   3.670
 3304DOPG   GL161503   8.300  15.020   3.980
 3304DOPG   GL261504   7.980  14.780   4.180
 3304DOPG   C1A61505   8.380  15.020   4.390
 3304DOPG   D2A61506   8.300  15.050   4.810
 3304DOPG   C3A61507   8.440  15.350   5.120
 3304DOPG   C4A61508   8.730  15.540   5.380
 3304DOPG   C1B61509   7.820  14.880   4.580
 3304DOPG   D2B61510   7.480  14.990   4.750
 3304DOPG   C3B61511   7.540  15.210   5.170
 3304DOPG   C4B61512   7.600  14.950   5.510
 3305DOPG   GL061513   4.160  16.620  10.560
 3305DOPG   PO461514   3.820  16.820  10.400
 3305DOPG   GL161515   3.470  16.550  10.140
 3305DOPG   GL261516   3.530  16.450   9.790
 3305DOPG   C1A61517   3.080  16.590  10.110
 3305DOPG   D2A61518   2.750  16.610   9.790
 3305DOPG   C3A61519   2.440  16.310   9.860
 3305DOPG   C4A61520   2.180  15.990  10.020
 3305DOPG   C1B61521   3.130  16.310   9.660
 3305DOPG   D2B61522   2.980  15.830   9.540
 3305DOPG   C3B61523   2.850  15.320   9.530
 3305DOPG   C4B61524   2.940  14.860   9.340
 3306DOPG   GL061525   3.980  20.090   9.790
 3306DOPG   PO461526   3.910  20.380   9.440
 3306DOPG   GL161527   3.630  20.550   9.170
 3306DOPG   GL261528   3.610  20.460   8.930
 3306DOPG   C1A61529   3.160  20.360   9.020
 3306DOPG   D2A61530   2.910  20.400   8.680
 3306DOPG   C3A61531   2.590  20.560   8.510
 3306DOPG   C4A61532   2.260  20.790   8.510
 3306DOPG   C1B61533   3.390  20.630   8.670
 3306DOPG   D2B61534   3.310  20.430   8.220
 3306DOPG   C3B61535   3.520  20.670   7.860
 3306DOPG   C4B61536   3.470  20.890   7.500
 3307DOPG   GL061537   2.670  11.540  20.370
 3307DOPG   PO461538   2.980  11.740  20.450
 3307DOPG   GL161539   3.020  12.040  20.210
 3307DOPG   GL261540   2.650  12.110  20.340
 3307DOPG   C1A61541   3.340  12.270  20.210
 3307DOPG   D2A61542   3.410  12.750  20.040
 3307DOPG   C3A61543   3.430  12.780  19.600
 3307DOPG   C4A61544   3.450  12.850  19.150
 3307DOPG   C1B61545   2.850  12.480  20.200
 3307DOPG   D2B61546   2.790  12.690  19.770
 3307DOPG   C3B61547   3.030  13.060  19.760
 3307DOPG   C4B61548   3.280  13.320  19.520
 3308DOPG   GL061549   8.260  16.840   3.300
 3308DOPG   PO461550   8.270  16.340   3.430
 3308DOPG   GL161551   8.230  16.350   3.900
 3308DOPG   GL261552   8.040  16.480   4.030
 3308DOPG   C1A61553   8.440  16.370   4.340
 3308DOPG   D2A61554   8.180  16.700   4.620
 3308DOPG   C3A61555   8.200  16.840   5.070
 3308DOPG   C4A61556   7.770  16.820   5.330
 3308DOPG   C1B61557   8.400  16.840   4.220
 3308DOPG   D2B61558   8.790  17.120   4.260
 3308DOPG   C3B61559   9.140  17.090   4.500
 3308DOPG   C4B61560   9.330  17.300   4.730
 3309DOPG   GL061561   9.390  16.210  15.790
 3309DOPG   PO461562   9.220  16.250  15.450
 3309DOPG   GL161563   9.100  15.770  15.320
 3309DOPG   GL261564   8.960  15.890  15.610
 3309DOPG   C1A61565   8.920  15.350  15.360
 3309DOPG   D2A61566   8.670  15.060  15.160
 3309DOPG   C3A61567   8.490  15.220  14.820
 3309DOPG   C4A61568   8.100  15.500  14.650
 3309DOPG   C1B61569   8.650  15.620  15.670
 3309DOPG   D2B61570   8.570  15.150  15.640
 3309DOPG   C3B61571   8.850  14.790  15.520
 3309DOPG   C4B61572   9.350  14.610  15.360
 3310DOPG   GL061573  14.010  17.870  15.450
 3310DOPG   PO461574  14.310  17.650  15.620
 3310DOPG   GL161575  14.600  17.550  15.940
 3310DOPG   GL261576  14.360  17.370  16.200
 3310DOPG   C1A61577  14.970  17.560  16.260
 3310DOPG   D2A61578  15.310  17.360  16.150
 3310DOPG   C3A61579  15.670  17.460  16.290
 3310DOPG   C4A61580  15.920  17.860  16.240
 3310DOPG   C1B61581  14.750  17.120  16.140
 3310DOPG   D2B61582  15.130  16.920  16.110
 3310DOPG   C3B61583  15.330  16.790  16.400
 3310DOPG   C4B61584  15.480  16.480  16.560
 3311DOPG   GL061585  20.340  19.820  21.810
 3311DOPG   PO461586  20.860  19.790  21.890
 3311DOPG   GL161587  20.750  19.540  21.540
 3311DOPG   GL261588  20.820  19.620  21.200
 3311DOPG   C1A61589  20.410  19.230  21.270
 3311DOPG   D2A61590  19.960  19.170  21.020
 3311DOPG   C3A61591  19.870  18.860  20.820
 3311DOPG   C4A61592  20.040  18.650  20.550
 3311DOPG   C1B61593  20.510  19.740  20.850
 3311DOPG   D2B61594  20.380  19.700  20.420
 3311DOPG   C3B61595  20.460  19.280  20.110
 3311DOPG   C4B61596  20.600  19.310  19.640
 3312DOPG   GL061597  21.440  11.100  14.460
 3312DOPG   PO461598  21.370  11.490  14.630
 3312DOPG   GL161599  21.110  11.810  14.520
 3312DOPG   GL261600  20.950  11.860  14.860
 3312DOPG   C1A61601  20.960  12.120  14.350
 3312DOPG   D2A61602  20.810  12.420  14.070
 3312DOPG   C3A61603  20.640  12.780  13.810
 3312DOPG   C4A61604  20.120  12.740  13.770
 3312DOPG   C1B61605  20.920  12.260  14.830
 3312DOPG   D2B61606  20.620  12.440  14.980
 3312DOPG   C3B61607  20.350  12.320  15.260
 3312DOPG   C4B61608  20.040  12.350  15.630
 3313DOPG   GL061609   0.340  25.780  21.270
 3313DOPG   PO461610   0.710  25.750  21.100
 3313DOPG   GL161611   1.030  25.730  20.740
 3313DOPG   GL261612   0.990  25.840  20.460
 3313DOPG   C1A61613   1.480  25.630  20.530
 3313DOPG   D2A61614   1.860  25.710  20.700
 3313DOPG   C3A61615   2.220  25.720  20.440
 3313DOPG   C4A61616   2.610  26.020  20.560
 3313DOPG   C1B61617   1.240  25.920  20.210
 3313DOPG   D2B61618   1.420  26.060  19.770
 3313DOPG   C3B61619   1.650  25.840  19.490
 3313DOPG   C4B61620   2.100  25.870  19.310
 3314DOPG   GL061621  14.950  20.790  13.940
 3314DOPG   PO461622  15.050  20.520  13.640
 3314DOPG   GL161623  15.410  20.600  13.900
 3314DOPG   GL261624  15.310  20.700  14.250
 3314DOPG   C1A61625  15.830  20.560  13.790
 3314DOPG   D2A61626  15.990  20.680  13.310
 3314DOPG   C3A61627  16.040  20.940  12.970
 3314DOPG   C4A61628  15.650  21.000  12.690
 3314DOPG   C1B61629  15.510  20.940  14.620
 3314DOPG   D2B61630  15.850  21.020  14.800
 3314DOPG   C3B61631  15.970  21.400  15.020
 3314DOPG   C4B61632  15.990  21.400  15.470
 3315DOPG   GL061633  12.790  26.130  24.670
 3315DOPG   PO461634  12.830  26.570  24.640
 3315DOPG   GL161635  12.550  26.320  24.250
 3315DOPG   GL261636  12.310  26.510  24.050
 3315DOPG   C1A61637  12.710  25.880  24.210
 3315DOPG   D2A61638  12.860  25.650  23.910
 3315DOPG   C3A61639  13.190  25.370  24.110
 3315DOPG   C4A61640  13.470  24.990  24.180
 3315DOPG   C1B61641  12.040  26.260  23.720
 3315DOPG   D2B61642  11.910  25.920  23.660
 3315DOPG   C3B61643  12.040  25.650  23.430
 3315DOPG   C4B61644  11.900  25.390  23.000
 3316DOPG   GL061645   6.600  27.440  15.630
 3316DOPG   PO461646   6.990  27.470  15.590
 3316DOPG   GL161647   6.970  27.940  15.490
 3316DOPG   GL261648   6.810  27.980  15.230
 3316DOPG   C1A61649   6.910  28.350  15.640
 3316DOPG   D2A61650   6.830  28.750  15.520
 3316DOPG   C3A61651   6.350  28.760  15.530
 3316DOPG   C4A61652   6.030  28.520  15.740
 3316DOPG   C1B61653   7.130  28.330  15.090
 3316DOPG   D2B61654   7.070  28.620  14.760
 3316DOPG   C3B61655   6.970  29.080  15.070
 3316DOPG   C4B61656   7.090  29.330  15.360
 3317DOPG   GL061657   3.070  10.850   9.660
 3317DOPG   PO461658   2.980  11.010  10.100
 3317DOPG   GL161659   3.360  11.210  10.250
 3317DOPG   GL261660   3.290  11.400   9.960
 3317DOPG   C1A61661   3.740  11.300  10.310
 3317DOPG   D2A61662   4.130  11.520  10.430
 3317DOPG   C3A61663   4.220  11.500  10.870
 3317DOPG   C4A61664   3.980  11.750  11.240
 3317DOPG   C1B61665   3.500  11.700  10.250
 3317DOPG   D2B61666   3.650  12.110  10.180
 3317DOPG   C3B61667   3.420  12.330  10.170
 3317DOPG   C4B61668   3.050  12.550  10.090
 3318DOPG   GL061669  10.220  17.360  12.050
 3318DOPG   PO461670   9.960  17.680  12.190
 3318DOPG   GL161671   9.660  17.740  11.880
 3318DOPG   GL261672   9.540  17.960  11.920
 3318DOPG   C1A61673   9.350  17.390  11.730
 3318DOPG   D2A61674   9.120  17.220  11.370
 3318DOPG   C3A61675   8.690  17.110  11.230
 3318DOPG   C4A61676   8.400  17.320  11.120
 3318DOPG   C1B61677   9.250  18.050  11.510
 3318DOPG   D2B61678   9.370  18.160  11.150
 3318DOPG   C3B61679   9.450  18.470  10.810
 3318DOPG   C4B61680   9.280  18.610  10.440
 3319DOPG   GL061681   4.410  14.260   5.450
 3319DOPG   PO461682   4.770  14.510   5.390
 3319DOPG   GL161683   4.640  14.580   5.860
 3319DOPG   GL261684   5.000  14.720   5.960
 3319DOPG   C1A61685   4.540  14.640   6.270
 3319DOPG   D2A61686   4.760  14.960   6.640
 3319DOPG   C3A61687   4.890  14.860   7.100
 3319DOPG   C4A61688   4.940  14.930   7.530
 3319DOPG   C1B61689   5.070  14.590   6.400
 3319DOPG   D2B61690   5.260  14.590   6.810
 3319DOPG   C3B61691   5.720  14.660   6.830
 3319DOPG   C4B61692   6.180  14.450   7.000
 3320DOPG   GL061693  12.770  12.910  10.580
 3320DOPG   PO461694  12.400  12.960  10.440
 3320DOPG   GL161695  12.320  13.240  10.790
 3320DOPG   GL261696  12.590  13.440  10.800
 3320DOPG   C1A61697  12.400  13.440  11.260
 3320DOPG   D2A61698  12.660  13.520  11.510
 3320DOPG   C3A61699  13.100  13.460  11.550
 3320DOPG   C4A61700  13.440  13.420  11.220
 3320DOPG   C1B61701  12.780  13.670  11.060
 3320DOPG   D2B61702  13.120  13.900  11.200
 3320DOPG   C3B61703  13.000  13.930  11.650
 3320DOPG   C4B61704  12.750  13.770  11.980
 3321DOPG   GL061705  14.850  13.790  18.010
 3321DOPG   PO461706  15.240  14.040  18.140
 3321DOPG   GL161707  14.960  14.260  17.810
 3321DOPG   GL261708  14.670  14.050  17.630
 3321DOPG   C1A61709  14.720  14.560  17.530
 3321DOPG   D2A61710  14.690  14.610  17.130
 3321DOPG   C3A61711  14.790  15.020  16.920
 3321DOPG   C4A61712  15.160  15.220  17.090
 3321DOPG   C1B61713  14.310  14.310  17.620
 3321DOPG   D2B61714  14.190  14.710  17.460
 3321DOPG   C3B61715  13.970  15.010  17.590
 3321DOPG   C4B61716  13.500  15.160  17.590
 3322DOPG   GL061717  15.430  24.770  24.610
 3322DOPG   PO461718  15.870  24.810  24.480
 3322DOPG   GL161719  15.610  24.730  24.160
 3322DOPG   GL261720  15.450  25.010  24.050
 3322DOPG   C1A61721  15.650  24.550  23.650
 3322DOPG   D2A61722  15.220  24.390  23.650
 3322DOPG   C3A61723  14.990  24.160  23.340
 3322DOPG   C4A61724  14.580  24.050  23.330
 3322DOPG   C1B61725  15.330  24.980  23.670
 3322DOPG   D2B61726  15.350  24.760  23.290
 3322DOPG   C3B61727  15.070  24.660  23.110
 3322DOPG   C4B61728  14.670  24.460  23.050
 3323DOPG   GL061729  14.610  20.260  15.440
 3323DOPG   PO461730  14.660  20.280  14.980
 3323DOPG   GL161731  15.050  20.490  15.110
 3323DOPG   GL261732  15.110  20.490  15.450
 3323DOPG   C1A61733  15.340  20.790  15.040
 3323DOPG   D2A61734  15.690  20.790  15.350
 3323DOPG   C3A61735  16.200  20.940  15.270
 3323DOPG   C4A61736  16.390  20.900  15.670
 3323DOPG   C1B61737  15.190  20.980  15.470
 3323DOPG   D2B61738  15.000  21.320  15.730
 3323DOPG   C3B61739  14.950  21.320  16.200
 3323DOPG   C4B61740  15.280  21.210  16.510
 3324DOPG   GL061741  10.420  13.280   3.520
 3324DOPG   PO461742  10.590  13.640   3.680
 3324DOPG   GL161743  10.860  13.640   4.100
 3324DOPG   GL261744  10.830  13.340   4.370
 3324DOPG   C1A61745  10.740  13.840   4.460
 3324DOPG   D2A61746  10.460  13.650   4.530
 3324DOPG   C3A61747  10.340  13.860   4.820
 3324DOPG   C4A61748  10.510  14.040   5.230
 3324DOPG   C1B61749  10.750  13.270   4.810
 3324DOPG   D2B61750  10.580  13.000   5.250
 3324DOPG   C3B61751  10.300  13.130   5.460
 3324DOPG   C4B61752  10.230  13.220   5.850
 3325DOPG   GL061753  20.730  14.080   7.540
 3325DOPG   PO461754  20.440  14.150   7.720
 3325DOPG   GL161755  20.080  14.320   7.720
 3325DOPG   GL261756  19.890  14.380   7.460
 3325DOPG   C1A61757  19.800  14.060   7.890
 3325DOPG   D2A61758  19.370  13.960   7.880
 3325DOPG   C3A61759  19.010  14.230   7.780
 3325DOPG   C4A61760  18.900  14.450   8.020
 3325DOPG   C1B61761  19.640  14.760   7.280
 3325DOPG   D2B61762  19.360  15.080   7.030
 3325DOPG   C3B61763  19.290  15.370   7.200
 3325DOPG   C4B61764  19.080  15.710   7.210
 3326DOPG   GL061765   1.330  29.450  16.030
 3326DOPG   PO461766   1.450  29.330  16.380
 3326DOPG   GL161767   1.790  29.140  16.570
 3326DOPG   GL261768   1.800  28.880  16.500
 3326DOPG   C1A61769   1.970  28.930  17.010
 3326DOPG   D2A61770   2.350  28.670  17.060
 3326DOPG   C3A61771   2.630  28.940  17.150
 3326DOPG   C4A61772   2.960  29.330  17.090
 3326DOPG   C1B61773   2.050  28.670  16.180
 3326DOPG   D2B61774   2.460  28.480  15.940
 3326DOPG   C3B61775   2.460  28.020  16.120
 3326DOPG   C4B61776   2.880  27.770  16.060
 3327DOPG   GL061777   0.290  23.380   7.480
 3327DOPG   PO461778   0.610  23.660   7.670
 3327DOPG   GL161779   0.880  23.620   7.910
 3327DOPG   GL261780   0.820  23.190   8.160
 3327DOPG   C1A61781   0.920  23.670   8.290
 3327DOPG   D2A61782   1.010  23.460   8.690
 3327DOPG   C3A61783   1.200  23.110   8.650
 3327DOPG   C4A61784   1.330  22.700   8.730
 3327DOPG   C1B61785   1.270  22.850   8.250
 3327DOPG   D2B61786   1.640  22.660   8.200
 3327DOPG   C3B61787   1.700  22.340   7.910
 3327DOPG   C4B61788   1.580  21.980   7.600
 3328DOPG   GL061789  35.160  21.020  20.000
 3328DOPG   PO461790  35.450  21.120  20.350
 3328DOPG   GL161791  35.760  21.100  20.100
 3328DOPG   GL261792  35.720  20.880  19.920
 3328DOPG   C1A61793  36.220  20.930  20.030
 3328DOPG   D2A61794   0.320  20.800  19.970
 3328DOPG   C3A61795   0.560  20.790  19.680
 3328DOPG   C4A61796   0.890  20.470  19.670
 3328DOPG   C1B61797  35.890  20.700  19.500
 3328DOPG   D2B61798  36.050  20.460  19.410
 3328DOPG   C3B61799  36.330  20.450  19.080
 3328DOPG   C4B61800   0.120  20.750  18.830
 3329DOPG   GL061801  12.860  18.570  11.770
 3329DOPG   PO461802  12.810  18.230  11.400
 3329DOPG   GL161803  12.710  18.340  10.940
 3329DOPG   GL261804  12.490  18.580  10.810
 3329DOPG   C1A61805  12.530  18.120  10.640
 3329DOPG   D2A61806  12.230  18.310  10.310
 3329DOPG   C3A61807  12.340  18.700  10.280
 3329DOPG   C4A61808  12.320  19.160  10.140
 3329DOPG   C1B61809  12.760  18.800  10.500
 3329DOPG   D2B61810  12.980  18.670  10.110
 3329DOPG   C3B61811  13.230  18.920   9.810
 3329DOPG   C4B61812  13.580  19.180   9.670
 3330DOPG   GL061813   1.920  20.490  12.880
 3330DOPG   PO461814   2.110  20.610  12.440
 3330DOPG   GL161815   1.740  20.470  12.210
 3330DOPG   GL261816   1.540  20.300  12.380
 3330DOPG   C1A61817   1.290  20.660  11.940
 3330DOPG   D2A61818   0.950  20.860  11.720
 3330DOPG   C3A61819   0.680  20.580  11.510
 3330DOPG   C4A61820   0.460  20.190  11.300
 3330DOPG   C1B61821   1.130  20.280  12.230
 3330DOPG   D2B61822   0.930  20.320  11.870
 3330DOPG   C3B61823   0.460  20.260  11.840
 3330DOPG   C4B61824   0.150  20.090  11.660
 3331DOPG   GL061825  10.600  16.510   8.590
 3331DOPG   PO461826  10.690  16.020   8.580
 3331DOPG   GL161827  10.940  16.250   8.820
 3331DOPG   GL261828  11.260  16.090   9.030
 3331DOPG   C1A61829  10.830  16.620   9.020
 3331DOPG   D2A61830  10.890  16.970   9.330
 3331DOPG   C3A61831  11.310  17.180   9.440
 3331DOPG   C4A61832  11.790  17.410   9.420
 3331DOPG   C1B61833  10.930  16.250   9.320
 3331DOPG   D2B61834  10.770  16.540   9.600
 3331DOPG   C3B61835  10.440  16.840   9.420
 3331DOPG   C4B61836  10.390  17.150   9.050
 3332DOPG   GL061837  11.690  18.280  11.340
 3332DOPG   PO461838  11.400  18.280  11.460
 3332DOPG   GL161839  11.110  18.150  11.120
 3332DOPG   GL261840  10.820  17.980  11.080
 3332DOPG   C1A61841  10.970  18.350  10.750
 3332DOPG   D2A61842  11.070  18.310  10.320
 3332DOPG   C3A61843  10.980  18.780  10.020
 3332DOPG   C4A61844  10.670  18.890   9.660
 3332DOPG   C1B61845  10.510  18.150  10.720
 3332DOPG   D2B61846  10.530  18.540  10.530
 3332DOPG   C3B61847  10.740  18.980  10.420
 3332DOPG   C4B61848  10.770  19.300  10.680
 3333DOPG   GL061849   0.460  28.670  17.360
 3333DOPG   PO461850   0.480  28.670  16.890
 3333DOPG   GL161851   0.760  28.260  16.950
 3333DOPG   GL261852   0.820  28.300  17.260
 3333DOPG   C1A61853   0.960  27.850  16.930
 3333DOPG   D2A61854   1.420  27.830  16.850
 3333DOPG   C3A61855   1.570  27.470  16.630
 3333DOPG   C4A61856   1.710  27.060  16.630
 3333DOPG   C1B61857   1.270  28.250  17.170
 3333DOPG   D2B61858   1.730  28.230  16.970
 3333DOPG   C3B61859   1.830  28.400  16.640
 3333DOPG   C4B61860   1.990  28.220  16.310
 3334DOPG   GL061861   9.550  16.780  15.500
 3334DOPG   PO461862   9.160  16.750  15.630
 3334DOPG   GL161863   8.880  16.580  15.830
 3334DOPG   GL261864   9.010  16.440  16.000
 3334DOPG   C1A61865   8.590  16.220  15.800
 3334DOPG   D2A61866   8.240  16.210  16.040
 3334DOPG   C3A61867   8.310  15.880  16.410
 3334DOPG   C4A61868   8.770  15.790  16.390
 3334DOPG   C1B61869   8.770  16.300  16.400
 3334DOPG   D2B61870   8.340  16.240  16.680
 3334DOPG   C3B61871   8.000  16.440  16.550
 3334DOPG   C4B61872   7.860  16.900  16.530
 3335DOPG   GL061873  35.520  17.980  20.910
 3335DOPG   PO461874  35.940  17.910  20.850
 3335DOPG   GL161875  36.130  18.140  20.510
 3335DOPG   GL261876  36.070  18.460  20.370
 3335DOPG   C1A61877   0.240  18.210  20.260
 3335DOPG   D2A61878   0.500  18.330  19.870
 3335DOPG   C3A61879   0.720  18.790  19.840
 3335DOPG   C4A61880   0.850  19.100  19.980
 3335DOPG   C1B61881   0.030  18.660  20.450
 3335DOPG   D2B61882   0.210  18.920  20.740
 3335DOPG   C3B61883   0.390  19.280  20.610
 3335DOPG   C4B61884   0.560  19.410  20.260
 3336DOPG   GL061885  13.570  31.190  17.440
 3336DOPG   PO461886  13.910  31.240  17.780
 3336DOPG   GL161887  13.690  30.770  17.740
 3336DOPG   GL261888  13.990  30.600  17.820
 3336DOPG   C1A61889  13.560  30.340  18.070
 3336DOPG   D2A61890  13.440  30.040  17.980
 3336DOPG   C3A61891  13.200  29.730  18.190
 3336DOPG   C4A61892  12.840  29.500  18.370
 3336DOPG   C1B61893  14.020  30.170  17.940
 3336DOPG   D2B61894  13.890  29.820  17.640
 3336DOPG   C3B61895  14.120  29.910  17.390
 3336DOPG   C4B61896  13.940  30.320  17.430
 3337DOPG   GL061897   8.780  25.730  20.360
 3337DOPG   PO461898   9.190  25.550  20.400
 3337DOPG   GL161899   9.240  25.960  20.530
 3337DOPG   GL261900   8.990  26.150  20.640
 3337DOPG   C1A61901   9.420  26.130  20.920
 3337DOPG   D2A61902   9.670  26.400  21.150
 3337DOPG   C3A61903   9.470  26.660  21.450
 3337DOPG   C4A61904   9.380  26.970  21.820
 3337DOPG   C1B61905   9.020  26.450  20.930
 3337DOPG   D2B61906   9.020  26.630  21.260
 3337DOPG   C3B61907   9.020  26.930  21.390
 3337DOPG   C4B61908   8.860  27.060  21.780
 3338DOPG   GL061909  36.100  25.970  19.420
 3338DOPG   PO461910  36.320  26.200  19.080
 3338DOPG   GL161911   0.240  26.050  18.820
 3338DOPG   GL261912   0.180  25.730  18.970
 3338DOPG   C1A61913   0.620  25.850  18.610
 3338DOPG   D2A61914   0.620  25.700  18.220
 3338DOPG   C3A61915   0.830  25.350  18.160
 3338DOPG   C4A61916   1.150  25.010  18.400
 3338DOPG   C1B61917   0.450  25.270  19.060
 3338DOPG   D2B61918   0.520  24.850  19.070
 3338DOPG   C3B61919   0.080  24.670  19.200
 3338DOPG   C4B61920  36.250  24.360  19.460
 3339DOPG   GL061921  10.390  31.850  12.930
 3339DOPG   PO461922  10.110  31.640  13.160
 3339DOPG   GL161923  10.310  31.130  13.240
 3339DOPG   GL261924  10.540  31.090  13.550
 3339DOPG   C1A61925  10.250  30.700  13.310
 3339DOPG   D2A61926  10.290  30.520  13.670
 3339DOPG   C3A61927  10.550  30.160  13.860
 3339DOPG   C4A61928  10.670  29.960  14.270
 3339DOPG   C1B61929  10.440  30.950  13.930
 3339DOPG   D2B61930  10.120  30.670  14.110
 3339DOPG   C3B61931  10.210  30.210  14.240
 3339DOPG   C4B61932  10.310  30.030  14.620
 3340DOPG   GL061933   9.510  19.850   8.030
 3340DOPG   PO461934   9.670  19.440   8.010
 3340DOPG   GL161935   9.700  19.110   8.250
 3340DOPG   GL261936   9.340  18.910   8.280
 3340DOPG   C1A61937   9.940  18.820   8.510
 3340DOPG   D2A61938  10.060  18.520   8.860
 3340DOPG   C3A61939  10.430  18.380   9.100
 3340DOPG   C4A61940  10.680  18.450   9.440
 3340DOPG   C1B61941   9.500  18.900   8.720
 3340DOPG   D2B61942   9.840  18.910   9.030
 3340DOPG   C3B61943   9.800  19.040   9.470
 3340DOPG   C4B61944   9.970  19.010   9.960
 3341DOPG   GL061945   0.150  23.870  22.540
 3341DOPG   PO461946   0.340  23.740  22.170
 3341DOPG   GL161947   0.720  23.800  21.890
 3341DOPG   GL261948   1.070  23.760  22.110
 3341DOPG   C1A61949   1.000  23.610  21.630
 3341DOPG   D2A61950   1.310  23.680  21.360
 3341DOPG   C3A61951   1.310  23.990  21.170
 3341DOPG   C4A61952   1.440  24.480  21.080
 3341DOPG   C1B61953   1.440  23.660  21.860
 3341DOPG   D2B61954   1.980  23.600  21.730
 3341DOPG   C3B61955   2.070  23.500  21.260
 3341DOPG   C4B61956   2.030  23.380  20.790
 3342DOPG   GL061957   9.820  17.980  17.270
 3342DOPG   PO461958   9.690  18.350  17.170
 3342DOPG   GL161959   9.470  18.570  17.570
 3342DOPG   GL261960   9.560  18.580  17.890
 3342DOPG   C1A61961   9.050  18.790  17.590
 3342DOPG   D2A61962   8.640  18.880  17.670
 3342DOPG   C3A61963   8.420  19.200  17.800
 3342DOPG   C4A61964   8.080  19.410  17.660
 3342DOPG   C1B61965   9.330  18.390  18.150
 3342DOPG   D2B61966   9.600  18.200  18.370
 3342DOPG   C3B61967  10.020  18.520  18.530
 3342DOPG   C4B61968  10.500  18.350  18.700
 3343DOPG   GL061969   1.380  28.360  11.630
 3343DOPG   PO461970   1.570  28.120  11.900
 3343DOPG   GL161971   1.730  27.780  11.950
 3343DOPG   GL261972   2.040  27.710  11.800
 3343DOPG   C1A61973   1.780  27.380  12.180
 3343DOPG   D2A61974   2.030  27.090  12.350
 3343DOPG   C3A61975   2.150  26.730  12.680
 3343DOPG   C4A61976   2.250  26.520  13.090
 3343DOPG   C1B61977   2.250  27.410  11.990
 3343DOPG   D2B61978   2.570  27.330  12.140
 3343DOPG   C3B61979   2.590  27.600  12.400
 3343DOPG   C4B61980   2.550  28.000  12.530
 3344DOPG   GL061981   0.270  28.510  13.420
 3344DOPG   PO461982   0.620  28.230  13.330
 3344DOPG   GL161983   0.780  27.960  13.600
 3344DOPG   GL261984   0.770  27.820  13.950
 3344DOPG   C1A61985   0.930  27.530  13.600
 3344DOPG   D2A61986   1.290  27.200  13.620
 3344DOPG   C3A61987   1.480  27.160  13.280
 3344DOPG   C4A61988   1.540  26.790  13.060
 3344DOPG   C1B61989   0.710  27.630  14.380
 3344DOPG   D2B61990   0.640  27.650  14.870
 3344DOPG   C3B61991   0.490  27.220  14.980
 3344DOPG   C4B61992   0.660  26.800  15.020
 3345DOPG   GL061993  14.300  20.750  12.670
 3345DOPG   PO461994  14.050  20.510  12.400
 3345DOPG   GL161995  14.340  20.710  12.100
 3345DOPG   GL261996  14.640  20.780  12.230
 3345DOPG   C1A61997  14.480  20.890  11.760
 3345DOPG   D2A61998  14.410  21.100  11.320
 3345DOPG   C3A61999  14.230  21.040  10.920
 3345DOPG   C4A62000  14.280  20.770  10.510
 3345DOPG   C1B62001  14.800  21.210  12.180
 3345DOPG   D2B62002  14.980  21.630  12.050
 3345DOPG   C3B62003  15.370  21.430  12.250
 3345DOPG   C4B62004  15.810  21.370  12.220
 3346DOPG   GL062005  13.820  24.550  19.980
 3346DOPG   PO462006  13.920  24.920  20.130
 3346DOPG   GL162007  13.910  25.100  20.560
 3346DOPG   GL262008  13.630  25.100  20.800
 3346DOPG   C1A62009  14.050  25.300  20.910
 3346DOPG   D2A62010  14.470  25.330  21.080
 3346DOPG   C3A62011  14.660  25.340  21.480
 3346DOPG   C4A62012  14.950  25.530  21.760
 3346DOPG   C1B62013  13.480  25.560  21.080
 3346DOPG   D2B62014  13.310  25.740  21.410
 3346DOPG   C3B62015  13.000  26.040  21.310
 3346DOPG   C4B62016  12.760  26.040  20.980
 3347DOPG   GL062017  13.170  11.060  23.170
 3347DOPG   PO462018  13.590  11.070  23.090
 3347DOPG   GL162019  13.490  11.450  22.900
 3347DOPG   GL262020  13.640  11.450  22.610
 3347DOPG   C1A62021  13.080  11.610  22.710
 3347DOPG   D2A62022  12.920  11.790  22.390
 3347DOPG   C3A62023  12.580  11.990  22.380
 3347DOPG   C4A62024  12.260  12.260  22.620
 3347DOPG   C1B62025  13.440  11.930  22.560
 3347DOPG   D2B62026  13.250  12.080  22.220
 3347DOPG   C3B62027  12.820  12.280  22.100
 3347DOPG   C4B62028  12.490  12.530  22.200
 3348DOPG   GL062029   9.860  20.680  16.890
 3348DOPG   PO462030   9.940  21.040  17.160
 3348DOPG   GL162031   9.650  21.150  17.480
 3348DOPG   GL262032   9.580  21.470  17.520
 3348DOPG   C1A62033   9.390  21.100  17.790
 3348DOPG   D2A62034   8.950  21.110  17.910
 3348DOPG   C3A62035   8.790  21.440  18.070
 3348DOPG   C4A62036   8.770  21.720  18.450
 3348DOPG   C1B62037   9.240  21.620  17.790
 3348DOPG   D2B62038   8.950  21.850  17.890
 3348DOPG   C3B62039   8.880  22.260  17.680
 3348DOPG   C4B62040   8.600  22.480  17.550
 3349DOPG   GL062041  21.950  24.600   9.900
 3349DOPG   PO462042  21.690  24.240   9.890
 3349DOPG   GL162043  21.290  24.250   9.890
 3349DOPG   GL262044  21.200  24.230   9.530
 3349DOPG   C1A62045  21.130  23.870   9.970
 3349DOPG   D2A62046  20.820  23.720  10.200
 3349DOPG   C3A62047  20.510  23.780   9.870
 3349DOPG   C4A62048  20.010  23.920   9.860
 3349DOPG   C1B62049  20.860  24.070   9.560
 3349DOPG   D2B62050  20.450  24.210   9.600
 3349DOPG   C3B62051  20.380  24.500   9.750
 3349DOPG   C4B62052  20.150  24.910   9.970
 3350DOPG   GL062053  18.030  18.250  18.300
 3350DOPG   PO462054  17.770  18.400  17.980
 3350DOPG   GL162055  17.510  18.560  17.650
 3350DOPG   GL262056  17.590  18.690  17.400
 3350DOPG   C1A62057  17.090  18.660  17.370
 3350DOPG   D2A62058  16.840  18.890  17.170
 3350DOPG   C3A62059  16.450  18.960  17.160
 3350DOPG   C4A62060  16.060  18.880  17.340
 3350DOPG   C1B62061  17.300  18.850  16.960
 3350DOPG   D2B62062  16.960  18.790  16.720
 3350DOPG   C3B62063  16.530  18.570  16.890
 3350DOPG   C4B62064  16.170  18.300  16.650
 3351DOPG   GL062065   9.830  19.360  14.170
 3351DOPG   PO462066   9.410  19.250  14.220
 3351DOPG   GL162067   9.160  19.400  13.840
 3351DOPG   GL262068   9.440  19.390  13.600
 3351DOPG   C1A62069   8.950  19.850  13.820
 3351DOPG   D2A62070   8.670  20.030  14.160
 3351DOPG   C3A62071   8.390  20.360  14.070
 3351DOPG   C4A62072   8.040  20.510  14.140
 3351DOPG   C1B62073   9.230  19.310  13.270
 3351DOPG   D2B62074   8.860  19.450  12.920
 3351DOPG   C3B62075   8.550  19.620  13.010
 3351DOPG   C4B62076   8.310  20.030  12.910
 3352DOPG   GL062077  10.930  26.600   6.090
 3352DOPG   PO462078  10.640  26.720   5.830
 3352DOPG   GL162079  10.520  26.340   6.100
 3352DOPG   GL262080  10.570  26.330   6.430
 3352DOPG   C1A62081  10.570  25.860   6.120
 3352DOPG   D2A62082  10.760  25.520   6.480
 3352DOPG   C3A62083  10.850  25.290   6.850
 3352DOPG   C4A62084  10.870  25.210   7.210
 3352DOPG   C1B62085  10.460  25.900   6.610
 3352DOPG   D2B62086  10.580  25.690   6.880
 3352DOPG   C3B62087  10.450  25.850   7.290
 3352DOPG   C4B62088  10.240  25.790   7.750
 3353DOPG   GL062089  12.810   9.160  21.740
 3353DOPG   PO462090  12.670   9.610  21.630
 3353DOPG   GL162091  12.360   9.770  21.300
 3353DOPG   GL262092  12.610   9.900  21.150
 3353DOPG   C1A62093  12.230   9.940  20.890
 3353DOPG   D2A62094  12.400  10.170  20.540
 3353DOPG   C3A62095  12.670  10.080  20.140
 3353DOPG   C4A62096  12.880  10.010  19.660
 3353DOPG   C1B62097  12.600   9.540  20.810
 3353DOPG   D2B62098  12.770   9.300  20.480
 3353DOPG   C3B62099  12.570   9.290  20.090
 3353DOPG   C4B62100  12.560   9.650  19.910
 3354DOPG   GL062101  35.680  26.380  18.370
 3354DOPG   PO462102  35.780  26.410  17.960
 3354DOPG   GL162103  36.140  26.410  17.850
 3354DOPG   GL262104  36.360  26.240  18.010
 3354DOPG   C1A62105  36.330  26.100  17.570
 3354DOPG   D2A62106   0.320  26.010  17.280
 3354DOPG   C3A62107   0.230  25.870  16.880
 3354DOPG   C4A62108   0.520  25.550  16.740
 3354DOPG   C1B62109   0.330  25.860  17.800
 3354DOPG   D2B62110   0.610  25.700  17.560
 3354DOPG   C3B62111   0.990  25.870  17.450
 3354DOPG   C4B62112   1.380  25.750  17.630
 3355DOPG   GL062113  35.050  14.220  14.970
 3355DOPG   PO462114  35.180  14.060  15.370
 3355DOPG   GL162115  35.520  14.300  15.150
 3355DOPG   GL262116  35.540  14.580  14.960
 3355DOPG   C1A62117  35.950  14.610  15.210
 3355DOPG   D2A62118  36.130  14.920  15.350
 3355DOPG   C3A62119   0.230  14.870  15.480
 3355DOPG   C4A62120   0.590  15.050  15.330
 3355DOPG   C1B62121  35.880  14.370  14.790
 3355DOPG   D2B62122  36.030  14.450  14.400
 3355DOPG   C3B62123   0.100  14.530  14.520
 3355DOPG   C4B62124   0.460  14.430  14.580
 3356DOPG   GL062125   6.350  18.120   3.970
 3356DOPG   PO462126   6.760  18.350   3.900
 3356DOPG   GL162127   6.680  18.520   4.230
 3356DOPG   GL262128   6.430  18.700   4.210
 3356DOPG   C1A62129   6.490  18.370   4.600
 3356DOPG   D2A62130   6.180  18.360   4.860
 3356DOPG   C3A62131   6.090  18.620   5.190
 3356DOPG   C4A62132   5.960  18.940   5.600
 3356DOPG   C1B62133   6.430  18.930   4.800
 3356DOPG   D2B62134   6.630  19.210   5.020
 3356DOPG   C3B62135   7.010  19.180   4.830
 3356DOPG   C4B62136   7.340  19.120   4.680
 3357DOPG   GL062137  13.720  17.400  15.740
 3357DOPG   PO462138  13.840  17.240  16.160
 3357DOPG   GL162139  13.950  16.790  16.320
 3357DOPG   GL262140  14.250  16.840  16.230
 3357DOPG   C1A62141  14.390  16.660  16.660
 3357DOPG   D2A62142  14.570  16.260  16.570
 3357DOPG   C3A62143  14.830  16.150  16.910
 3357DOPG   C4A62144  15.170  16.370  16.890
 3357DOPG   C1B62145  14.260  16.390  16.100
 3357DOPG   D2B62146  14.330  15.990  16.200
 3357DOPG   C3B62147  14.660  15.790  16.550
 3357DOPG   C4B62148  15.120  15.730  16.280
 3358DOPG   GL062149   1.220  26.640  21.270
 3358DOPG   PO462150   1.120  26.820  20.900
 3358DOPG   GL162151   1.530  26.630  20.780
 3358DOPG   GL262152   1.730  26.520  21.060
 3358DOPG   C1A62153   1.680  26.230  20.600
 3358DOPG   D2A62154   1.820  25.950  20.240
 3358DOPG   C3A62155   2.270  26.010  19.930
 3358DOPG   C4A62156   2.470  26.210  19.580
 3358DOPG   C1B62157   2.120  26.460  21.310
 3358DOPG   D2B62158   2.390  26.070  21.410
 3358DOPG   C3B62159   2.850  25.850  21.300
 3358DOPG   C4B62160   3.120  25.610  21.160
 3359DOPG   GL062161  12.890  20.940  17.230
 3359DOPG   PO462162  12.850  21.460  17.120
 3359DOPG   GL162163  12.900  21.860  17.350
 3359DOPG   GL262164  13.140  21.920  17.510
 3359DOPG   C1A62165  12.730  22.280  17.480
 3359DOPG   D2A62166  12.900  22.640  17.570
 3359DOPG   C3A62167  12.920  22.770  17.950
 3359DOPG   C4A62168  13.290  22.680  18.270
 3359DOPG   C1B62169  13.120  22.090  17.820
 3359DOPG   D2B62170  13.110  22.080  18.290
 3359DOPG   C3B62171  12.880  22.460  18.500
 3359DOPG   C4B62172  12.860  22.460  18.930
 3360DOPG   GL062173  12.170  16.410  21.100
 3360DOPG   PO462174  12.270  16.720  20.950
 3360DOPG   GL162175  12.140  16.950  20.580
 3360DOPG   GL262176  11.970  17.120  20.690
 3360DOPG   C1A62177  12.220  17.180  20.190
 3360DOPG   D2A62178  12.280  17.130  19.770
 3360DOPG   C3A62179  11.910  17.010  19.580
 3360DOPG   C4A62180  11.620  16.950  19.270
 3360DOPG   C1B62181  11.650  17.220  20.560
 3360DOPG   D2B62182  11.380  17.480  20.870
 3360DOPG   C3B62183  11.050  17.430  20.530
 3360DOPG   C4B62184  10.960  17.280  20.170
 3361DOPG   GL062185  12.020  22.050  12.000
 3361DOPG   PO462186  12.330  21.690  12.270
 3361DOPG   GL162187  12.380  21.730  11.840
 3361DOPG   GL262188  12.140  21.590  11.570
 3361DOPG   C1A62189  12.270  22.040  11.510
 3361DOPG   D2A62190  11.880  22.090  11.240
 3361DOPG   C3A62191  11.590  21.630  11.190
 3361DOPG   C4A62192  11.440  21.210  11.280
 3361DOPG   C1B62193  11.710  21.500  11.820
 3361DOPG   D2B62194  11.340  21.450  12.040
 3361DOPG   C3B62195  11.070  21.740  11.960
 3361DOPG   C4B62196  10.780  21.800  11.710
 3362DOPG   GL062197  11.110  15.900  13.310
 3362DOPG   PO462198  11.460  15.720  13.060
 3362DOPG   GL162199  11.490  15.320  12.900
 3362DOPG   GL262200  11.770  15.330  12.990
 3362DOPG   C1A62201  11.570  14.890  12.790
 3362DOPG   D2A62202  11.440  14.440  12.890
 3362DOPG   C3A62203  11.070  14.120  12.800
 3362DOPG   C4A62204  10.600  14.100  12.920
 3362DOPG   C1B62205  12.030  15.100  12.680
 3362DOPG   D2B62206  12.500  15.180  12.420
 3362DOPG   C3B62207  12.720  14.780  12.190
 3362DOPG   C4B62208  12.810  14.340  12.350
 3363DOPG   GL062209   5.770   9.150  19.180
 3363DOPG   PO462210   6.130   9.030  18.940
 3363DOPG   GL162211   6.050   9.390  18.790
 3363DOPG   GL262212   6.010   9.270  18.510
 3363DOPG   C1A62213   5.730   9.690  18.600
 3363DOPG   D2A62214   5.660  10.010  18.370
 3363DOPG   C3A62215   5.200  10.030  18.250
 3363DOPG   C4A62216   4.830  10.120  18.430
 3363DOPG   C1B62217   5.870   9.530  18.160
 3363DOPG   D2B62218   5.970   9.460  17.790
 3363DOPG   C3B62219   6.380   9.650  17.590
 3363DOPG   C4B62220   6.740   9.770  17.560
 3364DOPG   GL062221  23.340  21.040  16.560
 3364DOPG   PO462222  23.350  20.630  16.310
 3364DOPG   GL162223  22.990  20.420  16.150
 3364DOPG   GL262224  22.760  20.570  16.210
 3364DOPG   C1A62225  22.670  20.310  15.780
 3364DOPG   D2A62226  22.280  19.960  15.630
 3364DOPG   C3A62227  21.940  20.070  15.570
 3364DOPG   C4A62228  21.660  20.130  15.260
 3364DOPG   C1B62229  22.360  20.420  16.340
 3364DOPG   D2B62230  21.830  20.390  16.380
 3364DOPG   C3B62231  21.620  20.500  16.670
 3364DOPG   C4B62232  21.310  20.850  16.820
 3365DOPG   GL062233   6.690  29.600  20.860
 3365DOPG   PO462234   6.750  29.670  20.360
 3365DOPG   GL162235   6.670  29.330  20.180
 3365DOPG   GL262236   6.690  29.490  19.820
 3365DOPG   C1A62237   6.910  29.010  19.950
 3365DOPG   D2A62238   7.030  28.540  19.710
 3365DOPG   C3A62239   6.810  28.240  19.860
 3365DOPG   C4A62240   6.860  27.930  20.090
 3365DOPG   C1B62241   6.470  29.440  19.430
 3365DOPG   D2B62242   6.210  29.220  19.180
 3365DOPG   C3B62243   6.160  29.030  18.850
 3365DOPG   C4B62244   6.080  28.660  18.610
 3366DOPG   GL062245   3.200  13.540   6.570
 3366DOPG   PO462246   3.080  13.950   6.760
 3366DOPG   GL162247   3.190  13.950   7.110
 3366DOPG   GL262248   3.520  13.790   7.110
 3366DOPG   C1A62249   3.450  14.350   7.250
 3366DOPG   D2A62250   3.330  14.710   7.120
 3366DOPG   C3A62251   3.650  15.000   6.830
 3366DOPG   C4A62252   4.090  15.120   6.600
 3366DOPG   C1B62253   3.910  14.010   7.280
 3366DOPG   D2B62254   4.110  14.290   7.490
 3366DOPG   C3B62255   4.460  14.220   7.570
 3366DOPG   C4B62256   4.640  14.220   7.960
 3367DOPG   GL062257  10.220  31.820  18.140
 3367DOPG   PO462258  10.430  31.470  17.920
 3367DOPG   GL162259  10.430  31.030  17.820
 3367DOPG   GL262260  10.380  30.950  17.450
 3367DOPG   C1A62261  10.550  30.660  17.830
 3367DOPG   D2A62262  10.620  30.320  17.550
 3367DOPG   C3A62263  10.380  29.900  17.540
 3367DOPG   C4A62264  10.160  29.690  17.200
 3367DOPG   C1B62265  10.660  30.720  17.140
 3367DOPG   D2B62266  10.600  30.460  16.710
 3367DOPG   C3B62267  10.460  30.690  16.350
 3367DOPG   C4B62268  10.210  30.610  16.000
 3368DOPG   GL062269   9.680  17.200  13.040
 3368DOPG   PO462270   9.700  17.600  13.000
 3368DOPG   GL162271   9.300  17.370  12.800
 3368DOPG   GL262272   9.270  17.020  12.790
 3368DOPG   C1A62273   8.920  17.340  12.660
 3368DOPG   D2A62274   8.570  17.200  12.550
 3368DOPG   C3A62275   8.280  17.410  12.370
 3368DOPG   C4A62276   8.080  17.730  12.080
 3368DOPG   C1B62277   9.020  16.930  12.360
 3368DOPG   D2B62278   9.080  16.860  11.950
 3368DOPG   C3B62279   8.720  16.800  11.570
 3368DOPG   C4B62280   8.260  16.840  11.610
 3369DOPG   GL062281  34.690  21.180  19.910
 3369DOPG   PO462282  35.070  21.310  19.620
 3369DOPG   GL162283  35.470  21.410  19.440
 3369DOPG   GL262284  35.680  21.210  19.580
 3369DOPG   C1A62285  35.570  21.680  19.090
 3369DOPG   D2A62286  35.860  21.970  19.000
 3369DOPG   C3A62287  36.090  22.250  19.340
 3369DOPG   C4A62288  36.170  22.450  19.820
 3369DOPG   C1B62289  36.150  21.140  19.480
 3369DOPG   D2B62290   0.180  21.110  19.190
 3369DOPG   C3B62291   0.500  21.450  19.210
 3369DOPG   C4B62292   0.640  21.940  19.100
 3370DOPG   GL062293   9.220  17.140  14.560
 3370DOPG   PO462294   8.740  16.890  14.620
 3370DOPG   GL162295   8.390  16.900  14.570
 3370DOPG   GL262296   8.390  16.580  14.690
 3370DOPG   C1A62297   7.990  16.990  14.400
 3370DOPG   D2A62298   7.620  16.890  14.320
 3370DOPG   C3A62299   7.330  16.960  14.690
 3370DOPG   C4A62300   6.960  17.060  14.640
 3370DOPG   C1B62301   8.000  16.610  14.690
 3370DOPG   D2B62302   7.540  16.530  14.660
 3370DOPG   C3B62303   7.230  16.550  14.320
 3370DOPG   C4B62304   6.970  16.410  13.990
 3371DOPG   GL062305  11.340  15.530  14.250
 3371DOPG   PO462306  10.950  15.580  14.210
 3371DOPG   GL162307  10.690  15.180  14.340
 3371DOPG   GL262308  10.710  15.030  14.080
 3371DOPG   C1A62309  10.810  14.860  14.540
 3371DOPG   D2A62310  11.160  14.630  14.630
 3371DOPG   C3A62311  11.140  14.230  14.790
 3371DOPG   C4A62312  10.820  14.050  14.800
 3371DOPG   C1B62313  10.380  14.730  14.200
 3371DOPG   D2B62314  10.290  14.640  14.610
 3371DOPG   C3B62315   9.950  14.640  14.830
 3371DOPG   C4B62316   9.730  14.900  15.120
 3372DOPG   GL062317  12.130  22.140   3.230
 3372DOPG   PO462318  12.370  22.530   3.070
 3372DOPG   GL162319  12.540  22.300   3.460
 3372DOPG   GL262320  12.250  22.210   3.700
 3372DOPG   C1A62321  12.660  22.300   4.010
 3372DOPG   D2A62322  12.500  22.030   4.430
 3372DOPG   C3A62323  12.520  21.800   4.790
 3372DOPG   C4A62324  12.540  21.760   5.220
 3372DOPG   C1B62325  12.170  22.040   4.100
 3372DOPG   D2B62326  12.240  21.630   4.300
 3372DOPG   C3B62327  11.860  21.480   4.480
 3372DOPG   C4B62328  11.760  21.410   4.890
 3373DOPG   GL062329  11.220  21.280  17.860
 3373DOPG   PO462330  11.060  21.520  17.530
 3373DOPG   GL162331  11.090  21.830  17.790
 3373DOPG   GL262332  10.900  21.830  18.040
 3373DOPG   C1A62333  11.290  22.090  18.030
 3373DOPG   D2A62334  11.370  21.980  18.530
 3373DOPG   C3A62335  11.320  22.150  18.780
 3373DOPG   C4A62336  11.320  22.520  18.970
 3373DOPG   C1B62337  10.880  22.050  18.390
 3373DOPG   D2B62338  10.620  22.230  18.750
 3373DOPG   C3B62339  10.180  22.300  18.610
 3373DOPG   C4B62340   9.850  22.010  18.610
 3374DOPG   GL062341   2.270  23.020  23.980
 3374DOPG   PO462342   2.030  23.230  23.730
 3374DOPG   GL162343   2.290  23.020  23.500
 3374DOPG   GL262344   2.300  22.820  23.250
 3374DOPG   C1A62345   2.680  23.130  23.270
 3374DOPG   D2A62346   2.780  23.270  22.850
 3374DOPG   C3A62347   2.320  23.410  22.770
 3374DOPG   C4A62348   1.890  23.590  22.770
 3374DOPG   C1B62349   2.420  22.660  22.870
 3374DOPG   D2B62350   2.720  22.620  22.650
 3374DOPG   C3B62351   3.010  22.920  22.480
 3374DOPG   C4B62352   3.080  23.300  22.270
 3375DOPG   GL062353  19.290  14.430   6.130
 3375DOPG   PO462354  19.030  14.060   6.220
 3375DOPG   GL162355  18.860  14.460   6.440
 3375DOPG   GL262356  18.760  14.390   6.740
 3375DOPG   C1A62357  18.630  14.910   6.490
 3375DOPG   D2A62358  18.170  15.300   6.430
 3375DOPG   C3A62359  17.860  15.520   6.610
 3375DOPG   C4A62360  17.660  15.500   6.980
 3375DOPG   C1B62361  18.520  14.720   7.000
 3375DOPG   D2B62362  18.560  14.950   7.350
 3375DOPG   C3B62363  18.300  15.080   7.670
 3375DOPG   C4B62364  17.970  14.910   8.000
 3376DOPG   GL062365   7.950  28.810  23.080
 3376DOPG   PO462366   8.310  28.880  23.210
 3376DOPG   GL162367   8.510  28.790  22.980
 3376DOPG   GL262368   8.440  28.950  22.690
 3376DOPG   C1A62369   8.560  28.450  22.750
 3376DOPG   D2A62370   8.840  28.270  22.440
 3376DOPG   C3A62371   8.750  28.260  21.950
 3376DOPG   C4A62372   8.290  28.110  21.790
 3376DOPG   C1B62373   8.110  28.560  22.620
 3376DOPG   D2B62374   7.950  28.360  22.910
 3376DOPG   C3B62375   7.780  28.010  22.750
 3376DOPG   C4B62376   7.640  27.670  23.000
 3377DOPG   GL062377   0.720  10.990  13.510
 3377DOPG   PO462378   0.820  11.260  13.920
 3377DOPG   GL162379   1.260  11.450  13.890
 3377DOPG   GL262380   1.500  11.240  13.850
 3377DOPG   C1A62381   1.390  11.920  14.060
 3377DOPG   D2A62382   1.440  12.020  14.410
 3377DOPG   C3A62383   1.250  12.420  14.660
 3377DOPG   C4A62384   1.340  12.850  14.540
 3377DOPG   C1B62385   1.910  11.170  13.730
 3377DOPG   D2B62386   2.240  11.310  13.360
 3377DOPG   C3B62387   2.660  11.340  13.210
 3377DOPG   C4B62388   2.830  11.220  12.820
 3378DOPG   GL062389  12.510  15.620  13.210
 3378DOPG   PO462390  12.540  15.920  13.030
 3378DOPG   GL162391  12.630  15.570  12.780
 3378DOPG   GL262392  12.960  15.590  12.940
 3378DOPG   C1A62393  12.670  15.140  12.850
 3378DOPG   D2A62394  12.560  14.710  12.750
 3378DOPG   C3A62395  12.240  14.730  12.380
 3378DOPG   C4A62396  12.080  14.540  11.970
 3378DOPG   C1B62397  13.280  15.350  12.720
 3378DOPG   D2B62398  13.470  15.190  12.370
 3378DOPG   C3B62399  13.920  15.170  12.210
 3378DOPG   C4B62400  14.300  15.030  12.480
 3379DOPG   GL062401  10.730  26.110  14.780
 3379DOPG   PO462402  10.870  26.040  14.300
 3379DOPG   GL162403  11.030  25.750  14.570
 3379DOPG   GL262404  10.870  25.650  14.850
 3379DOPG   C1A62405  11.320  25.390  14.790
 3379DOPG   D2A62406  11.630  25.030  14.650
 3379DOPG   C3A62407  11.510  24.510  14.640
 3379DOPG   C4A62408  11.540  24.290  14.270
 3379DOPG   C1B62409  10.760  25.200  14.650
 3379DOPG   D2B62410  10.840  24.760  14.700
 3379DOPG   C3B62411  11.080  24.630  14.990
 3379DOPG   C4B62412  11.470  24.490  15.130
 3380DOPG   GL062413   2.040  21.020   5.830
 3380DOPG   PO462414   1.980  21.110   6.180
 3380DOPG   GL162415   2.340  21.090   6.450
 3380DOPG   GL262416   2.210  20.850   6.570
 3380DOPG   C1A62417   2.600  21.230   6.770
 3380DOPG   D2A62418   2.700  21.480   7.060
 3380DOPG   C3A62419   2.450  21.780   7.350
 3380DOPG   C4A62420   2.050  21.960   7.470
 3380DOPG   C1B62421   2.580  20.690   6.700
 3380DOPG   D2B62422   2.900  20.730   6.780
 3380DOPG   C3B62423   3.360  20.560   6.830
 3380DOPG   C4B62424   3.820  20.380   6.990
 3381DOPG   GL062425   6.100  16.360   8.530
 3381DOPG   PO462426   6.180  16.740   8.510
 3381DOPG   GL162427   6.080  16.610   8.040
 3381DOPG   GL262428   6.040  16.280   8.020
 3381DOPG   C1A62429   5.910  16.610   7.670
 3381DOPG   D2A62430   5.570  16.670   7.360
 3381DOPG   C3A62431   5.580  16.930   7.050
 3381DOPG   C4A62432   5.520  17.420   6.920
 3381DOPG   C1B62433   5.900  15.980   7.740
 3381DOPG   D2B62434   5.850  15.660   7.430
 3381DOPG   C3B62435   5.540  15.500   7.250
 3381DOPG   C4B62436   5.200  15.220   7.250
 3382DOPG   GL062437  11.650  21.580   8.750
 3382DOPG   PO462438  11.680  22.030   8.700
 3382DOPG   GL162439  11.720  22.040   9.080
 3382DOPG   GL262440  11.890  21.760   9.150
 3382DOPG   C1A62441  11.410  21.730   9.180
 3382DOPG   D2A62442  11.400  21.420   9.390
 3382DOPG   C3A62443  11.080  21.270   9.580
 3382DOPG   C4A62444  11.160  21.040   9.990
 3382DOPG   C1B62445  11.960  21.440   9.380
 3382DOPG   D2B62446  11.790  21.380   9.680
 3382DOPG   C3B62447  11.490  21.410   9.970
 3382DOPG   C4B62448  11.530  21.230  10.340
 3383DOPG   GL062449  22.640  21.560  20.090
 3383DOPG   PO462450  22.260  21.420  19.990
 3383DOPG   GL162451  21.740  21.200  19.880
 3383DOPG   GL262452  21.700  21.500  19.800
 3383DOPG   C1A62453  21.510  20.860  20.170
 3383DOPG   D2A62454  21.190  20.600  20.170
 3383DOPG   C3A62455  21.170  20.280  20.030
 3383DOPG   C4A62456  20.730  20.140  19.860
 3383DOPG   C1B62457  21.500  21.230  19.470
 3383DOPG   D2B62458  21.260  21.130  19.260
 3383DOPG   C3B62459  21.030  20.690  19.210
 3383DOPG   C4B62460  20.620  20.420  19.430
 3384DOPG   GL062461  14.790  18.380  14.750
 3384DOPG   PO462462  14.670  18.440  15.120
 3384DOPG   GL162463  14.980  18.240  15.240
 3384DOPG   GL262464  14.850  17.960  15.020
 3384DOPG   C1A62465  15.310  18.180  15.530
 3384DOPG   D2A62466  15.660  18.280  15.880
 3384DOPG   C3A62467  15.730  18.340  16.270
 3384DOPG   C4A62468  15.440  18.300  16.540
 3384DOPG   C1B62469  15.250  17.800  15.090
 3384DOPG   D2B62470  15.470  17.640  15.430
 3384DOPG   C3B62471  15.570  17.280  15.730
 3384DOPG   C4B62472  15.710  16.990  16.120
 3385DOPG   GL062473  18.220  16.830  16.520
 3385DOPG   PO462474  18.480  17.120  16.330
 3385DOPG   GL162475  18.080  17.040  16.050
 3385DOPG   GL262476  17.840  17.110  16.230
 3385DOPG   C1A62477  17.610  17.040  15.860
 3385DOPG   D2A62478  17.280  17.240  15.840
 3385DOPG   C3A62479  17.020  17.160  15.550
 3385DOPG   C4A62480  17.000  17.370  15.180
 3385DOPG   C1B62481  17.510  17.320  16.430
 3385DOPG   D2B62482  17.090  17.490  16.470
 3385DOPG   C3B62483  16.920  17.560  16.030
 3385DOPG   C4B62484  16.630  17.420  15.720
 3386DOPG   GL062485   0.100  13.110  10.370
 3386DOPG   PO462486   0.400  12.710  10.320
 3386DOPG   GL162487   0.560  12.920  10.510
 3386DOPG   GL262488   0.510  13.180  10.800
 3386DOPG   C1A62489   1.000  13.020  10.460
 3386DOPG   D2A62490   1.410  12.780  10.450
 3386DOPG   C3A62491   1.660  12.890  10.730
 3386DOPG   C4A62492   1.850  13.140  11.040
 3386DOPG   C1B62493   0.890  13.450  10.860
 3386DOPG   D2B62494   1.290  13.780  10.870
 3386DOPG   C3B62495   1.400  13.980  11.290
 3386DOPG   C4B62496   1.350  14.210  11.690
 3387DOPG   GL062497   4.550   9.700  18.800
 3387DOPG   PO462498   4.460   9.900  19.180
 3387DOPG   GL162499   4.550  10.200  18.890
 3387DOPG   GL262500   4.630  10.400  19.110
 3387DOPG   C1A62501   4.930  10.510  18.720
 3387DOPG   D2A62502   4.970  10.930  18.630
 3387DOPG   C3A62503   5.350  11.190  18.590
 3387DOPG   C4A62504   5.690  10.990  18.370
 3387DOPG   C1B62505   4.780  10.840  19.110
 3387DOPG   D2B62506   5.080  11.200  19.120
 3387DOPG   C3B62507   5.580  11.290  19.070
 3387DOPG   C4B62508   5.910  11.600  18.930
 3388DOPG   GL062509  10.920  19.680  17.760
 3388DOPG   PO462510  10.800  19.420  18.250
 3388DOPG   GL162511  10.550  19.460  18.590
 3388DOPG   GL262512  10.860  19.500  18.780
 3388DOPG   C1A62513  10.100  19.590  18.690
 3388DOPG   D2A62514   9.680  19.640  18.790
 3388DOPG   C3A62515   9.440  19.360  19.110
 3388DOPG   C4A62516   9.050  19.340  19.430
 3388DOPG   C1B62517  11.160  19.460  19.050
 3388DOPG   D2B62518  11.390  19.640  19.450
 3388DOPG   C3B62519  11.270  19.540  19.860
 3388DOPG   C4B62520  11.050  19.680  20.260
 3389DOPG   GL062521  13.100  23.570   3.700
 3389DOPG   PO462522  13.320  23.890   3.870
 3389DOPG   GL162523  13.310  23.640   4.150
 3389DOPG   GL262524  13.590  23.450   3.910
 3389DOPG   C1A62525  13.320  23.450   4.380
 3389DOPG   D2A62526  13.400  23.150   4.580
 3389DOPG   C3A62527  13.730  23.080   4.870
 3389DOPG   C4A62528  13.960  22.960   5.230
 3389DOPG   C1B62529  13.850  23.630   4.350
 3389DOPG   D2B62530  13.660  23.550   4.760
 3389DOPG   C3B62531  13.210  23.560   4.830
 3389DOPG   C4B62532  12.980  23.890   4.570
 3390DOPG   GL062533   6.450  17.380  10.120
 3390DOPG   PO462534   6.880  17.260  10.270
 3390DOPG   GL162535   7.040  16.950  10.540
 3390DOPG   GL262536   6.970  17.010  10.870
 3390DOPG   C1A62537   7.460  16.910  10.820
 3390DOPG   D2A62538   7.570  16.850  11.250
 3390DOPG   C3A62539   7.840  17.010  11.490
 3390DOPG   C4A62540   7.880  17.460  11.510
 3390DOPG   C1B62541   7.090  16.700  11.310
 3390DOPG   D2B62542   7.310  16.590  11.580
 3390DOPG   C3B62543   7.180  16.590  12.050
 3390DOPG   C4B62544   7.040  16.770  12.470
 3391DOPG   GL062545  10.450  19.480  17.630
 3391DOPG   PO462546  10.040  19.350  17.860
 3391DOPG   GL162547   9.860  18.990  18.140
 3391DOPG   GL262548   9.810  19.200  18.370
 3391DOPG   C1A62549   9.520  18.780  18.510
 3391DOPG   D2A62550   9.020  18.840  18.590
 3391DOPG   C3A62551   8.590  18.790  18.440
 3391DOPG   C4A62552   8.240  18.530  18.470
 3391DOPG   C1B62553   9.840  19.100  18.790
 3391DOPG   D2B62554   9.740  18.940  19.090
 3391DOPG   C3B62555   9.520  18.510  18.960
 3391DOPG   C4B62556   9.240  18.380  18.670
 3392DOPG   GL062557  34.240  18.030  14.470
 3392DOPG   PO462558  34.160  17.580  14.370
 3392DOPG   GL162559  34.460  17.670  14.060
 3392DOPG   GL262560  34.620  17.960  14.210
 3392DOPG   C1A62561  34.890  17.630  13.900
 3392DOPG   D2A62562  35.320  17.700  14.170
 3392DOPG   C3A62563  35.650  17.970  14.110
 3392DOPG   C4A62564  35.500  18.280  14.010
 3392DOPG   C1B62565  35.050  18.130  14.080
 3392DOPG   D2B62566  35.240  18.200  14.460
 3392DOPG   C3B62567  35.460  18.550  14.490
 3392DOPG   C4B62568  35.500  18.810  14.210
 3393DOPG   GL062569  15.980  18.890  26.070
 3393DOPG   PO462570  15.870  18.820  25.650
 3393DOPG   GL162571  15.930  18.750  25.340
 3393DOPG   GL262572  16.160  18.840  25.120
 3393DOPG   C1A62573  15.520  18.750  25.020
 3393DOPG   D2A62574  15.070  18.900  24.750
 3393DOPG   C3A62575  14.660  18.880  24.440
 3393DOPG   C4A62576  14.470  18.770  24.030
 3393DOPG   C1B62577  16.430  18.480  24.880
 3393DOPG   D2B62578  16.700  18.500  24.680
 3393DOPG   C3B62579  16.460  18.680  24.320
 3393DOPG   C4B62580  16.440  18.900  23.900
 3394DOPG   GL062581  35.440  24.900  18.220
 3394DOPG   PO462582  35.170  24.540  18.210
 3394DOPG   GL162583  35.550  24.130  18.230
 3394DOPG   GL262584  35.620  23.960  18.520
 3394DOPG   C1A62585  36.000  23.910  18.120
 3394DOPG   D2A62586   0.050  23.570  18.220
 3394DOPG   C3A62587   0.390  23.410  18.000
 3394DOPG   C4A62588   0.770  23.290  17.910
 3394DOPG   C1B62589  35.980  24.180  18.540
 3394DOPG   D2B62590  36.220  24.430  18.260
 3394DOPG   C3B62591  36.350  24.460  17.840
 3394DOPG   C4B62592   0.100  24.130  17.550
 3395DOPG   GL062593   2.780  30.430  16.480
 3395DOPG   PO462594   3.140  30.250  16.450
 3395DOPG   GL162595   3.370  30.000  16.320
 3395DOPG   GL262596   3.590  29.890  16.450
 3395DOPG   C1A62597   3.340  29.610  16.060
 3395DOPG   D2A62598   3.660  29.280  15.940
 3395DOPG   C3A62599   3.590  28.980  16.150
 3395DOPG   C4A62600   3.780  28.750  16.320
 3395DOPG   C1B62601   4.030  29.740  16.250
 3395DOPG   D2B62602   4.460  29.990  16.140
 3395DOPG   C3B62603   4.740  29.810  16.250
 3395DOPG   C4B62604   5.080  29.800  16.590
 3396DOPG   GL062605   9.130  21.880  14.730
 3396DOPG   PO462606   9.440  21.620  14.910
 3396DOPG   GL162607   9.210  21.700  15.190
 3396DOPG   GL262608   9.240  22.030  15.180
 3396DOPG   C1A62609   8.780  21.980  15.160
 3396DOPG   D2A62610   8.580  22.380  15.350
 3396DOPG   C3A62611   8.180  22.620  15.350
 3396DOPG   C4A62612   7.820  22.600  15.610
 3396DOPG   C1B62613   9.020  22.410  15.150
 3396DOPG   D2B62614   8.880  22.790  15.410
 3396DOPG   C3B62615   9.030  22.900  15.770
 3396DOPG   C4B62616   9.390  23.040  16.000
 3397DOPG   GL062617  11.120  26.490  15.970
 3397DOPG   PO462618  10.940  26.120  15.840
 3397DOPG   GL162619  11.040  25.650  15.860
 3397DOPG   GL262620  11.090  25.630  16.130
 3397DOPG   C1A62621  11.230  25.270  15.740
 3397DOPG   D2A62622  11.250  24.770  15.910
 3397DOPG   C3A62623  10.900  24.490  16.030
 3397DOPG   C4A62624  10.460  24.310  16.130
 3397DOPG   C1B62625  11.370  25.280  16.230
 3397DOPG   D2B62626  11.810  25.090  16.170
 3397DOPG   C3B62627  12.130  25.220  15.990
 3397DOPG   C4B62628  12.500  25.410  16.050
 3398DOPG   GL062629   5.170  21.570   8.850
 3398DOPG   PO462630   5.460  21.820   9.090
 3398DOPG   GL162631   5.560  21.960   8.660
 3398DOPG   GL262632   5.520  21.670   8.490
 3398DOPG   C1A62633   5.580  22.220   8.290
 3398DOPG   D2A62634   5.310  22.390   8.020
 3398DOPG   C3A62635   4.960  22.190   7.790
 3398DOPG   C4A62636   4.600  21.950   7.610
 3398DOPG   C1B62637   5.130  21.910   8.390
 3398DOPG   D2B62638   4.670  22.050   8.300
 3398DOPG   C3B62639   4.450  21.840   8.070
 3398DOPG   C4B62640   4.490  21.460   7.890
 3399DOPG   GL062641  15.880  14.060   4.070
 3399DOPG   PO462642  15.670  13.740   4.380
 3399DOPG   GL162643  15.320  13.950   4.540
 3399DOPG   GL262644  15.050  13.970   4.460
 3399DOPG   C1A62645  15.180  14.070   4.950
 3399DOPG   D2A62646  15.310  13.870   5.400
 3399DOPG   C3A62647  15.430  14.100   5.770
 3399DOPG   C4A62648  15.490  14.430   6.000
 3399DOPG   C1B62649  14.830  14.320   4.710
 3399DOPG   D2B62650  15.050  14.600   4.840
 3399DOPG   C3B62651  14.900  14.770   5.290
 3399DOPG   C4B62652  14.780  15.030   5.620
 3400DOPG   GL062653   6.260  31.210  16.080
 3400DOPG   PO462654   6.070  31.030  16.420
 3400DOPG   GL162655   6.260  30.710  16.730
 3400DOPG   GL262656   6.430  30.600  17.000
 3400DOPG   C1A62657   6.370  30.320  16.550
 3400DOPG   D2A62658   6.450  29.850  16.750
 3400DOPG   C3A62659   6.620  29.450  16.550
 3400DOPG   C4A62660   6.410  29.120  16.590
 3400DOPG   C1B62661   6.660  30.330  17.170
 3400DOPG   D2B62662   7.100  30.270  17.200
 3400DOPG   C3B62663   7.480  30.070  17.380
 3400DOPG   C4B62664   8.000  29.980  17.500
 3401DOPG   GL062665  14.470  20.940  14.100
 3401DOPG   PO462666  14.680  20.890  14.390
 3401DOPG   GL162667  15.030  21.040  14.490
 3401DOPG   GL262668  15.160  21.400  14.410
 3401DOPG   C1A62669  15.250  21.240  14.870
 3401DOPG   D2A62670  15.600  21.470  14.720
 3401DOPG   C3A62671  15.580  21.660  14.410
 3401DOPG   C4A62672  15.380  21.670  13.900
 3401DOPG   C1B62673  15.130  21.730  14.750
 3401DOPG   D2B62674  15.350  22.170  14.790
 3401DOPG   C3B62675  15.810  22.040  14.760
 3401DOPG   C4B62676  16.100  21.680  14.600
 3402DOPG   GL062677  12.020  20.140  11.460
 3402DOPG   PO462678  12.030  19.700  11.640
 3402DOPG   GL162679  11.820  19.710  11.260
 3402DOPG   GL262680  11.500  19.650  11.310
 3402DOPG   C1A62681  12.030  19.910  10.930
 3402DOPG   D2A62682  12.420  19.720  10.680
 3402DOPG   C3A62683  12.240  19.890  10.390
 3402DOPG   C4A62684  12.030  20.290  10.320
 3402DOPG   C1B62685  11.550  19.900  10.890
 3402DOPG   D2B62686  11.650  19.970  10.490
 3402DOPG   C3B62687  11.830  19.840  10.080
 3402DOPG   C4B62688  11.940  19.470  10.030
 3403DOPG   GL062689   0.260  19.710  23.190
 3403DOPG   PO462690   0.390  20.060  22.870
 3403DOPG   GL162691   0.730  19.960  22.550
 3403DOPG   GL262692   0.890  19.710  22.440
 3403DOPG   C1A62693   0.610  20.090  22.110
 3403DOPG   D2A62694   0.980  20.090  21.930
 3403DOPG   C3A62695   1.410  20.010  21.990
 3403DOPG   C4A62696   1.630  20.140  22.270
 3403DOPG   C1B62697   1.270  19.640  22.300
 3403DOPG   D2B62698   1.580  19.560  22.040
 3403DOPG   C3B62699   1.830  19.730  21.670
 3403DOPG   C4B62700   1.880  19.700  21.290
 3404DOPG   GL062701  12.700  20.330  11.980
 3404DOPG   PO462702  12.610  20.060  11.650
 3404DOPG   GL162703  12.660  20.280  11.240
 3404DOPG   GL262704  12.960  20.420  11.090
 3404DOPG   C1A62705  12.500  20.200  10.800
 3404DOPG   D2A62706  12.130  20.390  10.980
 3404DOPG   C3A62707  11.790  20.610  10.770
 3404DOPG   C4A62708  11.860  20.770  10.420
 3404DOPG   C1B62709  13.050  20.310  10.710
 3404DOPG   D2B62710  13.130  20.390  10.260
 3404DOPG   C3B62711  13.340  20.050  10.050
 3404DOPG   C4B62712  13.430  19.610  10.060
 3405DOPG   GL062713   1.170  16.800   7.480
 3405DOPG   PO462714   0.880  17.060   7.660
 3405DOPG   GL162715   1.130  17.030   8.020
 3405DOPG   GL262716   1.140  16.730   8.040
 3405DOPG   C1A62717   1.280  17.420   8.260
 3405DOPG   D2A62718   1.320  17.820   8.490
 3405DOPG   C3A62719   1.070  18.130   8.460
 3405DOPG   C4A62720   0.630  18.130   8.430
 3405DOPG   C1B62721   1.310  16.450   8.300
 3405DOPG   D2B62722   1.580  16.500   8.600
 3405DOPG   C3B62723   1.890  16.760   8.890
 3405DOPG   C4B62724   2.270  16.900   9.060
 3406DOPG   GL062725  34.250  19.070  11.240
 3406DOPG   PO462726  34.270  19.520  11.110
 3406DOPG   GL162727  34.740  19.530  11.090
 3406DOPG   GL262728  34.750  19.800  11.460
 3406DOPG   C1A62729  35.130  19.600  10.880
 3406DOPG   D2A62730  35.510  19.690  10.670
 3406DOPG   C3A62731  35.840  19.570  10.830
 3406DOPG   C4A62732  36.280  19.240  10.760
 3406DOPG   C1B62733  35.270  19.910  11.410
 3406DOPG   D2B62734  35.590  20.250  11.550
 3406DOPG   C3B62735  35.950  20.180  11.330
 3406DOPG   C4B62736  36.250  20.340  10.990
 3407DOPG   GL062737  10.760  25.470  25.470
 3407DOPG   PO462738  10.910  25.050  25.400
 3407DOPG   GL162739  11.030  24.760  25.090
 3407DOPG   GL262740  10.930  24.520  25.250
 3407DOPG   C1A62741  10.970  24.540  24.730
 3407DOPG   D2A62742  10.720  24.220  24.520
 3407DOPG   C3A62743  10.580  23.770  24.530
 3407DOPG   C4A62744  10.200  23.620  24.210
 3407DOPG   C1B62745  10.950  24.070  24.940
 3407DOPG   D2B62746  11.020  23.740  24.740
 3407DOPG   C3B62747  11.400  23.660  24.480
 3407DOPG   C4B62748  11.630  23.340  24.440
 3408DOPG   GL062749   4.760  24.660  10.940
 3408DOPG   PO462750   5.100  24.460  11.100
 3408DOPG   GL162751   5.240  24.800  10.830
 3408DOPG   GL262752   5.230  25.200  10.870
 3408DOPG   C1A62753   4.960  24.780  10.450
 3408DOPG   D2A62754   4.740  24.780  10.010
 3408DOPG   C3A62755   4.840  24.960   9.620
 3408DOPG   C4A62756   5.140  24.820   9.360
 3408DOPG   C1B62757   4.800  25.130  10.820
 3408DOPG   D2B62758   4.560  25.000  10.660
 3408DOPG   C3B62759   4.380  25.130  10.220
 3408DOPG   C4B62760   4.280  24.860   9.840
 3409DOPG   GL062761  12.470  15.450  15.000
 3409DOPG   PO462762  12.480  15.320  15.450
 3409DOPG   GL162763  12.570  14.890  15.660
 3409DOPG   GL262764  12.410  14.730  15.500
 3409DOPG   C1A62765  12.990  14.610  15.770
 3409DOPG   D2A62766  13.190  14.180  15.660
 3409DOPG   C3A62767  13.100  13.900  15.940
 3409DOPG   C4A62768  13.500  13.850  16.280
 3409DOPG   C1B62769  12.180  14.320  15.530
 3409DOPG   D2B62770  12.250  13.930  15.830
 3409DOPG   C3B62771  12.600  13.640  15.690
 3409DOPG   C4B62772  12.930  13.700  15.530
 3410DOPG   GL062773   7.390  31.520  11.940
 3410DOPG   PO462774   7.730  31.340  12.130
 3410DOPG   GL162775   7.790  30.900  12.190
 3410DOPG   GL262776   7.520  30.700  12.300
 3410DOPG   C1A62777   8.100  30.590  12.220
 3410DOPG   D2A62778   8.290  30.210  12.210
 3410DOPG   C3A62779   8.860  30.180  12.310
 3410DOPG   C4A62780   9.130  30.260  12.680
 3410DOPG   C1B62781   7.600  30.310  12.510
 3410DOPG   D2B62782   7.560  29.840  12.470
 3410DOPG   C3B62783   7.710  29.520  12.550
 3410DOPG   C4B62784   8.040  29.160  12.570
 3411DOPG   GL062785   6.750  21.630  11.400
 3411DOPG   PO462786   7.190  21.660  11.530
 3411DOPG   GL162787   7.430  21.400  11.700
 3411DOPG   GL262788   7.760  21.220  11.510
 3411DOPG   C1A62789   7.790  21.320  12.120
 3411DOPG   D2A62790   8.230  21.220  12.220
 3411DOPG   C3A62791   8.400  21.420  12.630
 3411DOPG   C4A62792   8.020  21.690  12.880
 3411DOPG   C1B62793   8.080  20.900  11.830
 3411DOPG   D2B62794   8.350  20.530  11.710
 3411DOPG   C3B62795   8.580  20.190  11.780
 3411DOPG   C4B62796   8.880  20.030  12.050
 3412DOPG   GL062797  15.750  17.350   8.700
 3412DOPG   PO462798  16.030  17.460   9.090
 3412DOPG   GL162799  15.810  17.680   9.460
 3412DOPG   GL262800  16.030  17.710   9.680
 3412DOPG   C1A62801  15.580  17.920   9.870
 3412DOPG   D2A62802  15.510  17.770  10.290
 3412DOPG   C3A62803  15.400  18.110  10.560
 3412DOPG   C4A62804  15.320  18.320  10.840
 3412DOPG   C1B62805  16.020  17.610  10.150
 3412DOPG   D2B62806  16.380  17.630  10.370
 3412DOPG   C3B62807  16.340  17.730  10.810
 3412DOPG   C4B62808  16.140  17.610  11.190
 3413DOPG   GL062809  13.120  32.090  15.170
 3413DOPG   PO462810  12.810  31.900  15.300
 3413DOPG   GL162811  12.740  31.620  15.670
 3413DOPG   GL262812  13.040  31.390  15.690
 3413DOPG   C1A62813  12.680  31.090  15.770
 3413DOPG   D2A62814  12.900  30.800  15.820
 3413DOPG   C3A62815  12.740  30.500  15.660
 3413DOPG   C4A62816  12.570  30.330  15.370
 3413DOPG   C1B62817  12.680  31.170  15.300
 3413DOPG   D2B62818  12.690  30.790  15.040
 3413DOPG   C3B62819  12.700  30.440  14.890
 3413DOPG   C4B62820  12.760  30.070  14.550
 3414DOPG   GL062821   1.850  18.930   5.250
 3414DOPG   PO462822   2.240  18.730   5.440
 3414DOPG   GL162823   2.240  18.560   5.880
 3414DOPG   GL262824   2.220  18.670   6.190
 3414DOPG   C1A62825   2.660  18.320   6.140
 3414DOPG   D2A62826   2.960  18.110   6.030
 3414DOPG   C3A62827   3.350  18.260   6.190
 3414DOPG   C4A62828   3.880  18.370   6.270
 3414DOPG   C1B62829   2.560  18.960   6.250
 3414DOPG   D2B62830   2.740  19.170   6.600
 3414DOPG   C3B62831   2.610  19.310   6.900
 3414DOPG   C4B62832   2.870  19.240   7.220
 3415DOPG   GL062833  11.120  20.410   2.220
 3415DOPG   PO462834  11.070  20.420   2.740
 3415DOPG   GL162835  11.210  20.290   3.080
 3415DOPG   GL262836  11.520  20.250   2.990
 3415DOPG   C1A62837  11.400  20.460   3.520
 3415DOPG   D2A62838  11.440  20.170   3.960
 3415DOPG   C3A62839  11.350  19.780   4.190
 3415DOPG   C4A62840  10.890  19.420   4.330
 3415DOPG   C1B62841  11.690  20.070   3.410
 3415DOPG   D2B62842  11.880  19.980   3.810
 3415DOPG   C3B62843  11.930  19.920   4.240
 3415DOPG   C4B62844  11.710  20.070   4.660
 3416DOPG   GL062845   8.270  32.100  15.560
 3416DOPG   PO462846   8.610  31.640  15.710
 3416DOPG   GL162847   8.700  31.290  15.830
 3416DOPG   GL262848   9.040  31.360  15.850
 3416DOPG   C1A62849   8.490  30.920  15.910
 3416DOPG   D2A62850   8.280  30.750  15.680
 3416DOPG   C3A62851   8.410  30.360  15.350
 3416DOPG   C4A62852   8.680  30.000  15.590
 3416DOPG   C1B62853   9.120  30.970  15.570
 3416DOPG   D2B62854   8.810  30.650  15.590
 3416DOPG   C3B62855   8.650  30.430  15.940
 3416DOPG   C4B62856   8.610  30.080  16.200
 3417DOPG   GL062857  17.480  15.120  16.320
 3417DOPG   PO462858  17.420  14.980  16.690
 3417DOPG   GL162859  17.060  15.230  16.520
 3417DOPG   GL262860  16.780  15.260  16.720
 3417DOPG   C1A62861  17.020  15.530  16.110
 3417DOPG   D2A62862  17.290  15.730  15.810
 3417DOPG   C3A62863  17.170  16.150  15.710
 3417DOPG   C4A62864  16.720  16.310  15.530
 3417DOPG   C1B62865  16.570  15.480  16.500
 3417DOPG   D2B62866  16.530  15.800  16.200
 3417DOPG   C3B62867  16.750  15.800  15.750
 3417DOPG   C4B62868  16.950  15.650  15.310
 3418DOPG   GL062869  16.490  19.500   9.560
 3418DOPG   PO462870  16.330  19.230   9.500
 3418DOPG   GL162871  16.210  19.200   9.790
 3418DOPG   GL262872  16.260  19.110  10.090
 3418DOPG   C1A62873  15.850  19.290   9.890
 3418DOPG   D2A62874  15.580  19.250  10.150
 3418DOPG   C3A62875  15.270  18.970   9.930
 3418DOPG   C4A62876  14.860  19.090   9.800
 3418DOPG   C1B62877  16.050  19.270  10.400
 3418DOPG   D2B62878  15.650  19.500  10.570
 3418DOPG   C3B62879  15.540  19.680  10.880
 3418DOPG   C4B62880  15.460  19.620  11.240
 3419DOPG   GL062881  11.000  19.400  12.410
 3419DOPG   PO462882  10.770  19.710  12.090
 3419DOPG   GL162883  10.640  20.090  11.830
 3419DOPG   GL262884  10.670  20.420  11.890
 3419DOPG   C1A62885  10.650  20.230  11.390
 3419DOPG   D2A62886  10.590  20.230  11.000
 3419DOPG   C3A62887  10.060  20.060  10.930
 3419DOPG   C4A62888   9.790  19.960  11.230
 3419DOPG   C1B62889  10.490  20.730  11.540
 3419DOPG   D2B62890  10.480  20.780  11.100
 3419DOPG   C3B62891  10.160  21.110  11.210
 3419DOPG   C4B62892   9.880  21.370  11.530
 3420DOPG   GL062893  34.840  25.620  15.800
 3420DOPG   PO462894  34.830  25.970  16.100
 3420DOPG   GL162895  35.170  25.760  16.220
 3420DOPG   GL262896  35.220  25.450  16.140
 3420DOPG   C1A62897  35.550  25.830  16.490
 3420DOPG   D2A62898  36.030  25.770  16.640
 3420DOPG   C3A62899  36.220  25.980  16.180
 3420DOPG   C4A62900   0.290  26.070  15.860
 3420DOPG   C1B62901  35.660  25.400  16.310
 3420DOPG   D2B62902  36.160  25.480  16.270
 3420DOPG   C3B62903   0.030  25.020  16.150
 3420DOPG   C4B62904   0.370  24.650  16.250
 3421DOPG   GL062905   8.880  17.720  16.490
 3421DOPG   PO462906   8.980  17.320  16.460
 3421DOPG   GL162907   8.620  17.260  16.750
 3421DOPG   GL262908   8.630  17.210  17.070
 3421DOPG   C1A62909   8.130  17.370  16.700
 3421DOPG   D2A62910   7.820  17.400  16.340
 3421DOPG   C3A62911   7.390  17.500  16.470
 3421DOPG   C4A62912   7.140  17.650  16.830
 3421DOPG   C1B62913   8.320  17.540  17.210
 3421DOPG   D2B62914   8.060  17.870  17.480
 3421DOPG   C3B62915   7.600  17.880  17.470
 3421DOPG   C4B62916   7.130  18.050  17.700
 3422DOPG   GL062917   6.640  24.040  15.350
 3422DOPG   PO462918   6.660  24.130  15.730
 3422DOPG   GL162919   7.000  23.950  15.790
 3422DOPG   GL262920   6.930  23.660  15.980
 3422DOPG   C1A62921   7.420  23.840  15.990
 3422DOPG   D2A62922   7.540  23.540  16.200
 3422DOPG   C3A62923   8.050  23.480  16.250
 3422DOPG   C4A62924   8.460  23.560  16.260
 3422DOPG   C1B62925   6.870  23.150  16.110
 3422DOPG   D2B62926   6.940  22.680  16.010
 3422DOPG   C3B62927   7.120  22.930  15.660
 3422DOPG   C4B62928   7.490  22.970  15.640
 3423DOPG   GL062929   2.340  27.030  22.520
 3423DOPG   PO462930   2.410  27.170  22.030
 3423DOPG   GL162931   2.330  26.820  21.760
 3423DOPG   GL262932   2.340  26.940  21.370
 3423DOPG   C1A62933   2.320  26.390  21.780
 3423DOPG   D2A62934   2.510  25.910  21.870
 3423DOPG   C3A62935   2.520  25.550  21.630
 3423DOPG   C4A62936   2.570  25.370  21.210
 3423DOPG   C1B62937   2.630  26.650  21.360
 3423DOPG   D2B62938   2.830  26.340  21.570
 3423DOPG   C3B62939   3.220  26.210  21.290
 3423DOPG   C4B62940   3.560  25.950  21.390
 3424DOPG   GL062941   6.020   9.110   9.210
 3424DOPG   PO462942   5.930   8.960   9.710
 3424DOPG   GL162943   6.070   9.470   9.580
 3424DOPG   GL262944   6.350   9.470   9.520
 3424DOPG   C1A62945   6.090   9.920   9.760
 3424DOPG   D2A62946   6.220  10.320   9.950
 3424DOPG   C3A62947   6.340  10.490  10.370
 3424DOPG   C4A62948   6.520  10.730  10.700
 3424DOPG   C1B62949   6.710   9.680   9.740
 3424DOPG   D2B62950   7.010   9.840  10.000
 3424DOPG   C3B62951   7.170   9.610  10.260
 3424DOPG   C4B62952   7.350   9.240  10.430
 3425DOPG   GL062953   1.360  24.510  23.560
 3425DOPG   PO462954   1.720  24.750  23.540
 3425DOPG   GL162955   1.830  24.500  23.080
 3425DOPG   GL262956   2.010  24.250  23.020
 3425DOPG   C1A62957   1.980  24.670  22.740
 3425DOPG   D2A62958   2.160  24.830  22.460
 3425DOPG   C3A62959   2.450  24.650  22.340
 3425DOPG   C4A62960   2.640  24.460  21.940
 3425DOPG   C1B62961   2.420  24.250  23.160
 3425DOPG   D2B62962   2.810  24.250  22.880
 3425DOPG   C3B62963   2.770  23.730  22.620
 3425DOPG   C4B62964   2.640  23.510  22.380
 3426DOPG   GL062965  11.240   9.400  21.620
 3426DOPG   PO462966  11.500   9.570  21.820
 3426DOPG   GL162967  11.410   9.870  21.490
 3426DOPG   GL262968  11.560  10.170  21.620
 3426DOPG   C1A62969  11.100  10.220  21.570
 3426DOPG   D2A62970  10.980  10.510  21.290
 3426DOPG   C3A62971  11.200  10.530  20.950
 3426DOPG   C4A62972  11.530  10.680  20.610
 3426DOPG   C1B62973  11.580  10.470  21.340
 3426DOPG   D2B62974  11.630  10.840  21.110
 3426DOPG   C3B62975  11.640  11.210  21.260
 3426DOPG   C4B62976  11.890  11.530  21.370
 3427DOPG   GL062977  15.670  20.010  13.750
 3427DOPG   PO462978  15.440  19.840  14.090
 3427DOPG   GL162979  15.780  19.750  14.230
 3427DOPG   GL262980  15.740  19.840  14.520
 3427DOPG   C1A62981  16.220  19.940  14.450
 3427DOPG   D2A62982  16.610  20.040  14.550
 3427DOPG   C3A62983  16.980  19.790  14.680
 3427DOPG   C4A62984  17.220  19.760  14.350
 3427DOPG   C1B62985  15.900  19.950  14.930
 3427DOPG   D2B62986  16.230  20.180  15.170
 3427DOPG   C3B62987  16.490  20.470  15.150
 3427DOPG   C4B62988  16.740  20.790  15.300
 3428DOPG   GL062989   5.650  21.110  13.050
 3428DOPG   PO462990   5.900  21.470  12.940
 3428DOPG   GL162991   6.310  21.440  12.830
 3428DOPG   GL262992   6.520  21.050  12.570
 3428DOPG   C1A62993   6.680  21.170  13.070
 3428DOPG   D2A62994   6.610  21.160  13.500
 3428DOPG   C3A62995   7.050  21.150  13.510
 3428DOPG   C4A62996   7.430  21.470  13.600
 3428DOPG   C1B62997   6.910  20.760  12.680
 3428DOPG   D2B62998   7.270  20.680  12.520
 3428DOPG   C3B62999   7.670  20.810  12.690
 3428DOPG   C4B63000   7.890  20.720  13.110
 3429DOPG   GL063001  11.640  17.100  12.250
 3429DOPG   PO463002  11.390  16.770  12.220
 3429DOPG   GL163003  11.180  16.620  11.810
 3429DOPG   GL263004  10.840  16.680  11.760
 3429DOPG   C1A63005  11.300  16.230  11.520
 3429DOPG   D2A63006  11.320  16.130  11.050
 3429DOPG   C3A63007  10.860  16.070  11.050
 3429DOPG   C4A63008  10.520  15.810  11.140
 3429DOPG   C1B63009  10.690  16.810  11.340
 3429DOPG   D2B63010  10.630  16.640  10.940
 3429DOPG   C3B63011  10.700  16.890  10.640
 3429DOPG   C4B63012  10.830  17.280  10.510
 3430DOPG   GL063013   6.730   7.150  12.040
 3430DOPG   PO463014   7.080   7.080  11.930
 3430DOPG   GL163015   7.240   7.470  11.930
 3430DOPG   GL263016   7.140   7.740  11.810
 3430DOPG   C1A63017   7.270   7.780  12.300
 3430DOPG   D2A63018   7.500   8.190  12.490
 3430DOPG   C3A63019   7.590   8.400  12.180
 3430DOPG   C4A63020   7.850   8.690  11.900
 3430DOPG   C1B63021   7.210   8.180  12.020
 3430DOPG   D2B63022   7.080   8.610  12.160
 3430DOPG   C3B63023   7.410   8.730  12.490
 3430DOPG   C4B63024   7.560   9.110  12.670
 3431DOPG   GL063025  34.340  15.190  13.850
 3431DOPG   PO463026  34.510  15.490  13.580
 3431DOPG   GL163027  34.940  15.480  13.460
 3431DOPG   GL263028  35.050  15.390  13.230
 3431DOPG   C1A63029  35.250  15.790  13.350
 3431DOPG   D2A63030  35.260  16.000  13.150
 3431DOPG   C3A63031  35.570  16.430  13.250
 3431DOPG   C4A63032  35.740  16.430  13.670
 3431DOPG   C1B63033  35.430  15.390  13.180
 3431DOPG   D2B63034  35.860  15.400  13.310
 3431DOPG   C3B63035  35.860  15.830  13.150
 3431DOPG   C4B63036  35.870  16.200  12.930
 3432DOPG   GL063037   4.520  24.360   6.640
 3432DOPG   PO463038   4.280  24.160   6.290
 3432DOPG   GL163039   4.450  23.870   6.550
 3432DOPG   GL263040   4.380  23.920   6.870
 3432DOPG   C1A63041   4.770  23.530   6.530
 3432DOPG   D2A63042   4.950  23.290   6.840
 3432DOPG   C3A63043   5.340  23.180   6.990
 3432DOPG   C4A63044   5.660  22.920   7.180
 3432DOPG   C1B63045   4.160  23.950   7.290
 3432DOPG   D2B63046   4.130  23.900   7.710
 3432DOPG   C3B63047   4.180  23.790   8.030
 3432DOPG   C4B63048   4.080  23.420   8.140
 3433DOPG   GL063049  12.670  22.250  15.270
 3433DOPG   PO463050  12.990  22.450  15.050
 3433DOPG   GL163051  13.320  22.570  15.130
 3433DOPG   GL263052  13.590  22.640  15.400
 3433DOPG   C1A63053  13.450  22.960  14.980
 3433DOPG   D2A63054  13.690  23.200  14.660
 3433DOPG   C3A63055  14.000  23.430  14.720
 3433DOPG   C4A63056  14.150  23.900  14.620
 3433DOPG   C1B63057  13.650  23.030  15.500
 3433DOPG   D2B63058  13.550  23.410  15.680
 3433DOPG   C3B63059  13.780  23.630  15.500
 3433DOPG   C4B63060  14.060  23.710  15.220
 3434DOPG   GL063061  13.820  18.310  15.790
 3434DOPG   PO463062  14.290  18.140  15.900
 3434DOPG   GL163063  14.590  18.470  16.210
 3434DOPG   GL263064  14.880  18.580  16.100
 3434DOPG   C1A63065  14.920  18.590  16.550
 3434DOPG   D2A63066  15.220  18.810  16.850
 3434DOPG   C3A63067  15.540  18.570  17.000
 3434DOPG   C4A63068  15.740  18.320  16.890
 3434DOPG   C1B63069  15.220  18.240  16.050
 3434DOPG   D2B63070  15.380  17.870  16.380
 3434DOPG   C3B63071  15.780  17.850  16.690
 3434DOPG   C4B63072  15.970  17.470  16.840
 3435DOPG   GL063073   9.660  23.500  21.570
 3435DOPG   PO463074   9.640  23.830  21.930
 3435DOPG   GL163075   9.750  24.070  22.200
 3435DOPG   GL263076  10.040  24.160  22.240
 3435DOPG   C1A63077   9.510  24.360  22.420
 3435DOPG   D2A63078   9.450  24.540  22.800
 3435DOPG   C3A63079   9.560  24.330  23.110
 3435DOPG   C4A63080   9.540  23.930  23.200
 3435DOPG   C1B63081   9.910  24.650  22.290
 3435DOPG   D2B63082   9.860  25.000  22.460
 3435DOPG   C3B63083   9.780  24.970  22.880
 3435DOPG   C4B63084   9.500  24.920  23.210
 3436DOPG   GL063085   1.900  16.700  15.290
 3436DOPG   PO463086   1.690  16.800  14.920
 3436DOPG   GL163087   1.380  16.940  14.630
 3436DOPG   GL263088   1.340  17.060  14.370
 3436DOPG   C1A63089   0.930  16.860  14.460
 3436DOPG   D2A63090   0.530  16.900  14.530
 3436DOPG   C3A63091   0.390  16.540  14.660
 3436DOPG   C4A63092   0.170  16.230  14.820
 3436DOPG   C1B63093   0.940  17.230  14.150
 3436DOPG   D2B63094   0.460  17.310  14.240
 3436DOPG   C3B63095   0.140  17.000  14.300
 3436DOPG   C4B63096   0.070  16.590  14.260
 3437DOPG   GL063097  15.730  19.490  13.800
 3437DOPG   PO463098  15.560  19.340  14.070
 3437DOPG   GL163099  16.040  19.220  14.150
 3437DOPG   GL263100  16.250  19.510  14.170
 3437DOPG   C1A63101  16.470  19.060  14.080
 3437DOPG   D2A63102  16.800  18.810  14.120
 3437DOPG   C3A63103  16.850  18.800  13.650
 3437DOPG   C4A63104  16.520  18.750  13.410
 3437DOPG   C1B63105  16.530  19.540  14.470
 3437DOPG   D2B63106  16.600  19.530  14.890
 3437DOPG   C3B63107  16.360  19.560  15.210
 3437DOPG   C4B63108  16.190  19.550  15.610
 3438DOPG   GL063109   9.890  15.290  14.970
 3438DOPG   PO463110  10.270  15.270  14.710
 3438DOPG   GL163111   9.840  15.010  14.450
 3438DOPG   GL263112   9.530  15.170  14.510
 3438DOPG   C1A63113   9.920  14.490  14.220
 3438DOPG   D2A63114  10.020  14.240  14.470
 3438DOPG   C3A63115  10.210  13.940  14.450
 3438DOPG   C4A63116  10.570  13.720  14.350
 3438DOPG   C1B63117   9.310  14.820  14.500
 3438DOPG   D2B63118   9.250  14.460  14.800
 3438DOPG   C3B63119   9.520  14.160  14.620
 3438DOPG   C4B63120   9.880  13.930  14.790
 3439DOPG   GL063121   8.680   7.160  10.900
 3439DOPG   PO463122   8.690   7.460  11.320
 3439DOPG   GL163123   8.980   7.630  11.460
 3439DOPG   GL263124   9.220   7.630  11.210
 3439DOPG   C1A63125   9.320   7.850  11.690
 3439DOPG   D2A63126   9.730   7.930  11.890
 3439DOPG   C3A63127   9.660   7.890  12.290
 3439DOPG   C4A63128   9.890   7.840  12.630
 3439DOPG   C1B63129   9.320   7.930  10.990
 3439DOPG   D2B63130   9.480   8.240  10.620
 3439DOPG   C3B63131   9.850   8.420  10.580
 3439DOPG   C4B63132  10.270   8.550  10.710
 3440DOPG   GL063133  18.800  20.690  23.910
 3440DOPG   PO463134  18.860  20.270  23.880
 3440DOPG   GL163135  19.040  20.110  23.490
 3440DOPG   GL263136  18.830  19.790  23.420
 3440DOPG   C1A63137  18.800  20.130  23.040
 3440DOPG   D2A63138  18.390  20.040  22.810
 3440DOPG   C3A63139  18.180  19.730  22.640
 3440DOPG   C4A63140  17.940  19.390  22.680
 3440DOPG   C1B63141  18.470  19.790  23.210
 3440DOPG   D2B63142  18.120  19.630  23.110
 3440DOPG   C3B63143  17.790  20.030  22.970
 3440DOPG   C4B63144  17.840  20.280  22.740
 3441DOPG   GL063145   7.500  13.230  12.170
 3441DOPG   PO463146   7.140  13.350  12.460
 3441DOPG   GL163147   7.340  13.380  12.810
 3441DOPG   GL263148   7.280  13.700  12.880
 3441DOPG   C1A63149   7.720  13.540  13.120
 3441DOPG   D2A63150   8.100  13.470  13.470
 3441DOPG   C3A63151   8.370  13.790  13.670
 3441DOPG   C4A63152   8.720  13.910  13.940
 3441DOPG   C1B63153   7.470  13.950  13.210
 3441DOPG   D2B63154   7.860  13.960  13.540
 3441DOPG   C3B63155   7.830  14.080  13.920
 3441DOPG   C4B63156   7.570  14.080  14.230
 3442DOPG   GL063157   0.600  28.300  17.790
 3442DOPG   PO463158   0.480  27.860  17.700
 3442DOPG   GL163159   0.650  27.520  17.520
 3442DOPG   GL263160   0.970  27.400  17.630
 3442DOPG   C1A63161   0.790  27.280  17.190
 3442DOPG   D2A63162   1.100  27.390  16.770
 3442DOPG   C3A63163   1.120  26.950  16.530
 3442DOPG   C4A63164   1.080  26.580  16.190
 3442DOPG   C1B63165   1.430  27.310  17.640
 3442DOPG   D2B63166   1.860  27.340  17.440
 3442DOPG   C3B63167   2.080  27.060  17.270
 3442DOPG   C4B63168   2.420  26.790  17.480
 3443DOPG   GL063169  10.160  20.700  13.620
 3443DOPG   PO463170   9.810  20.800  13.370
 3443DOPG   GL163171   9.440  20.790  13.340
 3443DOPG   GL263172   9.400  21.100  13.620
 3443DOPG   C1A63173   9.210  20.670  12.970
 3443DOPG   D2A63174   8.930  20.730  12.740
 3443DOPG   C3A63175   8.500  20.930  12.850
 3443DOPG   C4A63176   8.140  20.910  12.720
 3443DOPG   C1B63177   9.170  21.450  13.440
 3443DOPG   D2B63178   9.210  21.650  13.000
 3443DOPG   C3B63179   8.990  22.000  12.860
 3443DOPG   C4B63180   8.910  22.270  12.510
 3444DOPG   GL063181  13.900  19.590  16.670
 3444DOPG   PO463182  14.360  19.540  16.800
 3444DOPG   GL163183  14.430  19.250  17.240
 3444DOPG   GL263184  14.320  19.010  17.180
 3444DOPG   C1A63185  14.880  19.070  17.410
 3444DOPG   D2A63186  15.060  18.680  17.730
 3444DOPG   C3A63187  15.190  18.340  17.490
 3444DOPG   C4A63188  15.290  18.040  17.280
 3444DOPG   C1B63189  14.650  18.770  17.080
 3444DOPG   D2B63190  14.810  18.440  17.190
 3444DOPG   C3B63191  15.040  18.240  16.870
 3444DOPG   C4B63192  14.900  18.070  16.520
 3445DOPG   GL063193  11.780  19.580  17.880
 3445DOPG   PO463194  11.620  19.830  18.080
 3445DOPG   GL163195  11.470  20.080  18.440
 3445DOPG   GL263196  11.830  20.190  18.380
 3445DOPG   C1A63197  11.460  20.530  18.710
 3445DOPG   D2A63198  11.530  21.070  18.780
 3445DOPG   C3A63199  11.840  21.290  18.590
 3445DOPG   C4A63200  12.160  21.450  18.810
 3445DOPG   C1B63201  11.890  20.290  18.800
 3445DOPG   D2B63202  12.050  20.630  19.010
 3445DOPG   C3B63203  11.820  20.980  19.170
 3445DOPG   C4B63204  11.450  21.220  19.250
 3446DOPG   GL063205   7.870  22.430   8.840
 3446DOPG   PO463206   7.540  22.510   8.710
 3446DOPG   GL163207   7.330  22.760   8.450
 3446DOPG   GL263208   7.610  22.860   8.240
 3446DOPG   C1A63209   7.120  22.990   8.120
 3446DOPG   D2A63210   7.140  22.910   7.650
 3446DOPG   C3A63211   7.200  23.090   7.190
 3446DOPG   C4A63212   7.270  23.320   6.690
 3446DOPG   C1B63213   7.540  23.240   7.910
 3446DOPG   D2B63214   7.400  23.520   7.590
 3446DOPG   C3B63215   7.490  23.970   7.510
 3446DOPG   C4B63216   7.370  24.250   7.150
 3447DOPG   GL063217  22.120  24.550  18.570
 3447DOPG   PO463218  22.140  24.150  18.580
 3447DOPG   GL163219  21.770  23.980  18.270
 3447DOPG   GL263220  21.440  23.980  18.460
 3447DOPG   C1A63221  21.500  23.720  17.890
 3447DOPG   D2A63222  21.140  23.450  17.700
 3447DOPG   C3A63223  20.830  23.520  17.510
 3447DOPG   C4A63224  20.800  23.620  17.150
 3447DOPG   C1B63225  21.190  23.610  18.270
 3447DOPG   D2B63226  20.720  23.590  18.110
 3447DOPG   C3B63227  20.650  23.230  17.890
 3447DOPG   C4B63228  20.600  22.850  18.020
 3448DOPG   GL063229  17.650   8.620  12.420
 3448DOPG   PO463230  17.450   8.360  12.760
 3448DOPG   GL163231  17.330   8.760  13.000
 3448DOPG   GL263232  17.420   9.060  12.670
 3448DOPG   C1A63233  17.060   9.030  13.130
 3448DOPG   D2A63234  16.730   9.340  13.150
 3448DOPG   C3A63235  16.630   9.690  13.400
 3448DOPG   C4A63236  16.490  10.150  13.380
 3448DOPG   C1B63237  17.520   9.240  13.130
 3448DOPG   D2B63238  17.660   9.320  13.570
 3448DOPG   C3B63239  17.580   9.730  13.650
 3448DOPG   C4B63240  17.640  10.090  13.820
 3449DOPG   GL063241  13.230  24.660  19.150
 3449DOPG   PO463242  13.130  24.690  18.750
 3449DOPG   GL163243  13.580  24.570  18.480
 3449DOPG   GL263244  13.420  24.400  18.260
 3449DOPG   C1A63245  13.950  24.350  18.290
 3449DOPG   D2A63246  14.200  23.960  18.410
 3449DOPG   C3A63247  14.180  23.750  18.810
 3449DOPG   C4A63248  14.040  23.470  19.130
 3449DOPG   C1B63249  13.270  24.080  18.510
 3449DOPG   D2B63250  13.200  23.580  18.450
 3449DOPG   C3B63251  13.490  23.480  18.830
 3449DOPG   C4B63252  13.860  23.250  18.660
 3450DOPG   GL063253  15.700  29.450  20.620
 3450DOPG   PO463254  16.140  29.620  20.620
 3450DOPG   GL163255  16.000  29.150  20.360
 3450DOPG   GL263256  15.690  29.030  20.260
 3450DOPG   C1A63257  16.080  28.690  20.160
 3450DOPG   D2A63258  15.870  28.370  19.860
 3450DOPG   C3A63259  15.720  27.970  19.730
 3450DOPG   C4A63260  15.660  27.960  19.290
 3450DOPG   C1B63261  15.750  28.630  20.610
 3450DOPG   D2B63262  15.610  28.350  21.050
 3450DOPG   C3B63263  15.460  28.000  20.820
 3450DOPG   C4B63264  15.300  28.100  20.390
 3451DOPG   GL063265   8.970  18.790  15.640
 3451DOPG   PO463266   8.660  19.080  15.700
 3451DOPG   GL163267   8.580  19.490  15.580
 3451DOPG   GL263268   8.270  19.570  15.820
 3451DOPG   C1A63269   8.220  19.530  15.320
 3451DOPG   D2A63270   8.120  19.750  15.000
 3451DOPG   C3A63271   7.780  20.000  15.080
 3451DOPG   C4A63272   7.480  20.120  15.400
 3451DOPG   C1B63273   7.820  19.510  15.830
 3451DOPG   D2B63274   7.370  19.310  15.670
 3451DOPG   C3B63275   7.240  19.330  15.250
 3451DOPG   C4B63276   6.930  19.370  14.950
 3452DOPG   GL063277   2.780  13.560  22.250
 3452DOPG   PO463278   3.160  13.780  22.100
 3452DOPG   GL163279   3.500  14.120  21.950
 3452DOPG   GL263280   3.660  14.060  21.660
 3452DOPG   C1A63281   3.530  14.520  21.750
 3452DOPG   D2A63282   3.840  14.880  21.820
 3452DOPG   C3A63283   3.880  15.190  21.500
 3452DOPG   C4A63284   3.390  15.410  21.380
 3452DOPG   C1B63285   4.070  13.990  21.410
 3452DOPG   D2B63286   4.270  14.090  21.060
 3452DOPG   C3B63287   4.680  14.100  21.030
 3452DOPG   C4B63288   5.160  14.110  21.110
 3453DOPG   GL063289  10.380  18.830   7.220
 3453DOPG   PO463290  10.160  18.930   7.560
 3453DOPG   GL163291  10.450  18.790   7.940
 3453DOPG   GL263292  10.420  18.540   8.050
 3453DOPG   C1A63293  10.650  18.910   8.300
 3453DOPG   D2A63294  10.550  18.830   8.770
 3453DOPG   C3A63295  10.330  18.940   9.230
 3453DOPG   C4A63296  10.210  18.770   9.590
 3453DOPG   C1B63297  10.260  18.460   8.380
 3453DOPG   D2B63298  10.230  18.060   8.680
 3453DOPG   C3B63299  10.530  17.870   8.800
 3453DOPG   C4B63300  10.800  17.570   8.610
 3454DOPG   GL063301   0.650  25.410   9.220
 3454DOPG   PO463302   0.490  24.950   9.250
 3454DOPG   GL163303   0.960  25.030   9.160
 3454DOPG   GL263304   1.100  25.140   9.390
 3454DOPG   C1A63305   1.370  24.730   9.240
 3454DOPG   D2A63306   1.780  24.400   9.430
 3454DOPG   C3A63307   2.070  24.200   9.610
 3454DOPG   C4A63308   2.350  24.280  10.050
 3454DOPG   C1B63309   1.020  25.020   9.780
 3454DOPG   D2B63310   0.930  24.650  10.170
 3454DOPG   C3B63311   1.050  24.570  10.540
 3454DOPG   C4B63312   1.450  24.690  10.710
 3455DOPG   GL063313   7.810   8.970   8.040
 3455DOPG   PO463314   7.640   9.420   7.900
 3455DOPG   GL163315   8.100   9.450   8.130
 3455DOPG   GL263316   8.370   9.630   7.990
 3455DOPG   C1A63317   8.220   9.430   8.610
 3455DOPG   D2A63318   8.560   9.380   8.810
 3455DOPG   C3A63319   8.900   9.170   9.090
 3455DOPG   C4A63320   9.140   9.230   9.470
 3455DOPG   C1B63321   8.170   9.930   8.390
 3455DOPG   D2B63322   7.870  10.240   8.410
 3455DOPG   C3B63323   7.730  10.560   8.810
 3455DOPG   C4B63324   7.320  10.630   8.890
 3456DOPG   GL063325   4.030  24.590   6.220
 3456DOPG   PO463326   3.970  24.360   6.560
 3456DOPG   GL163327   4.090  24.400   6.990
 3456DOPG   GL263328   4.010  24.660   7.220
 3456DOPG   C1A63329   4.480  24.370   7.190
 3456DOPG   D2A63330   4.740  24.570   7.260
 3456DOPG   C3A63331   5.130  24.550   7.210
 3456DOPG   C4A63332   5.350  24.360   6.880
 3456DOPG   C1B63333   4.260  24.600   7.620
 3456DOPG   D2B63334   4.680  24.840   7.670
 3456DOPG   C3B63335   4.670  25.090   8.120
 3456DOPG   C4B63336   4.560  25.150   8.580
 3457DOPG   GL063337  13.260  17.030  12.660
 3457DOPG   PO463338  13.640  17.110  12.500
 3457DOPG   GL163339  13.980  16.820  12.250
 3457DOPG   GL263340  13.890  16.650  12.130
 3457DOPG   C1A63341  14.190  17.060  11.850
 3457DOPG   D2A63342  14.310  17.040  11.420
 3457DOPG   C3A63343  14.560  16.600  11.200
 3457DOPG   C4A63344  14.720  16.220  10.950
 3457DOPG   C1B63345  13.960  16.560  11.720
 3457DOPG   D2B63346  14.050  16.590  11.260
 3457DOPG   C3B63347  14.170  16.230  10.890
 3457DOPG   C4B63348  14.300  15.840  10.890
 3458DOPG   GL063349   3.960  14.630  23.570
 3458DOPG   PO463350   4.150  14.900  23.440
 3458DOPG   GL163351   4.040  14.990  22.990
 3458DOPG   GL263352   4.300  14.790  22.740
 3458DOPG   C1A63353   4.040  15.310  22.660
 3458DOPG   D2A63354   4.020  15.780  22.470
 3458DOPG   C3A63355   3.950  16.170  22.260
 3458DOPG   C4A63356   3.610  16.410  22.310
 3458DOPG   C1B63357   4.460  15.110  22.450
 3458DOPG   D2B63358   4.760  15.160  22.140
 3458DOPG   C3B63359   5.170  15.380  22.030
 3458DOPG   C4B63360   5.630  15.460  21.880
 3459DOPG   GL063361  12.690  21.430  17.600
 3459DOPG   PO463362  12.790  21.060  17.830
 3459DOPG   GL163363  12.860  21.310  18.100
 3459DOPG   GL263364  13.150  21.570  17.980
 3459DOPG   C1A63365  12.870  21.660  18.440
 3459DOPG   D2A63366  13.270  21.840  18.680
 3459DOPG   C3A63367  13.140  22.080  19.100
 3459DOPG   C4A63368  12.750  21.990  19.320
 3459DOPG   C1B63369  13.380  21.610  18.290
 3459DOPG   D2B63370  13.640  21.570  18.570
 3459DOPG   C3B63371  13.950  21.270  18.360
 3459DOPG   C4B63372  14.250  21.130  18.160
 3460DOPG   GL063373   3.970  16.590  18.520
 3460DOPG   PO463374   3.570  16.490  18.570
 3460DOPG   GL163375   3.210  16.260  18.630
 3460DOPG   GL263376   2.920  16.500  18.850
 3460DOPG   C1A63377   3.040  15.960  18.930
 3460DOPG   D2A63378   2.990  15.780  19.380
 3460DOPG   C3A63379   3.030  15.790  19.700
 3460DOPG   C4A63380   2.810  15.560  20.060
 3460DOPG   C1B63381   2.490  16.390  18.830
 3460DOPG   D2B63382   2.080  16.610  18.780
 3460DOPG   C3B63383   2.290  17.000  18.870
 3460DOPG   C4B63384   2.310  17.370  18.720
 3461DOPG   GL063385  10.150  15.890  13.260
 3461DOPG   PO463386  10.030  15.640  13.560
 3461DOPG   GL163387   9.730  15.390  13.400
 3461DOPG   GL263388   9.790  15.560  13.000
 3461DOPG   C1A63389   9.590  14.980  13.440
 3461DOPG   D2A63390   9.630  14.600  13.340
 3461DOPG   C3A63391   9.340  14.380  13.390
 3461DOPG   C4A63392   9.220  13.930  13.650
 3461DOPG   C1B63393   9.450  15.200  12.930
 3461DOPG   D2B63394   9.320  14.800  13.000
 3461DOPG   C3B63395   9.480  14.420  12.860
 3461DOPG   C4B63396   9.300  14.130  12.540
 3462DOPG   GL063397  14.320  23.000   3.430
 3462DOPG   PO463398  13.980  22.830   3.270
 3462DOPG   GL163399  13.880  22.870   3.700
 3462DOPG   GL263400  13.620  22.500   3.880
 3462DOPG   C1A63401  14.130  22.710   4.040
 3462DOPG   D2A63402  14.050  22.470   4.460
 3462DOPG   C3A63403  14.350  22.120   4.430
 3462DOPG   C4A63404  14.710  22.110   4.220
 3462DOPG   C1B63405  13.550  22.680   4.290
 3462DOPG   D2B63406  13.680  22.650   4.720
 3462DOPG   C3B63407  13.890  22.370   5.060
 3462DOPG   C4B63408  13.980  22.060   5.400
 3463DOPG   GL063409   9.850  20.060  16.500
 3463DOPG   PO463410   9.370  19.890  16.630
 3463DOPG   GL163411   9.060  20.270  16.620
 3463DOPG   GL263412   9.020  20.130  16.900
 3463DOPG   C1A63413   8.620  20.490  16.680
 3463DOPG   D2A63414   8.270  20.620  16.880
 3463DOPG   C3A63415   8.250  21.090  16.770
 3463DOPG   C4A63416   8.470  21.330  16.400
 3463DOPG   C1B63417   8.710  20.130  17.240
 3463DOPG   D2B63418   8.590  20.280  17.710
 3463DOPG   C3B63419   8.440  20.710  17.770
 3463DOPG   C4B63420   8.080  20.990  17.800
 3464DOPG   GL063421  10.100  16.930  13.290
 3464DOPG   PO463422   9.820  16.590  13.280
 3464DOPG   GL163423   9.410  16.380  13.170
 3464DOPG   GL263424   9.380  16.540  12.880
 3464DOPG   C1A63425   9.000  16.280  12.980
 3464DOPG   D2A63426   8.740  16.200  12.690
 3464DOPG   C3A63427   8.400  15.920  12.560
 3464DOPG   C4A63428   8.120  15.860  12.230
 3464DOPG   C1B63429   9.130  16.500  12.490
 3464DOPG   D2B63430   8.820  16.490  12.080
 3464DOPG   C3B63431   8.550  16.880  12.070
 3464DOPG   C4B63432   8.130  16.890  12.330
 3465DOPG   GL063433   4.360  10.420  20.420
 3465DOPG   PO463434   4.490  10.710  20.790
 3465DOPG   GL163435   4.720  10.780  20.340
 3465DOPG   GL263436   4.720  11.080  20.010
 3465DOPG   C1A63437   5.170  10.780  20.010
 3465DOPG   D2A63438   5.410  10.510  19.920
 3465DOPG   C3A63439   5.420  10.340  19.580
 3465DOPG   C4A63440   5.680  10.390  19.240
 3465DOPG   C1B63441   4.930  11.400  19.810
 3465DOPG   D2B63442   5.330  11.520  19.600
 3465DOPG   C3B63443   5.380  11.860  19.440
 3465DOPG   C4B63444   5.480  12.360  19.500
 3466DOPG   GL063445  12.180  21.710  16.490
 3466DOPG   PO463446  12.220  21.940  16.840
 3466DOPG   GL163447  12.280  22.270  17.210
 3466DOPG   GL263448  12.050  22.420  17.290
 3466DOPG   C1A63449  12.410  22.740  17.260
 3466DOPG   D2A63450  12.760  22.970  17.190
 3466DOPG   C3A63451  13.100  23.090  17.370
 3466DOPG   C4A63452  13.370  22.930  17.710
 3466DOPG   C1B63453  11.970  22.650  17.720
 3466DOPG   D2B63454  12.100  22.970  18.050
 3466DOPG   C3B63455  12.320  22.780  18.420
 3466DOPG   C4B63456  12.730  22.930  18.620
 3467DOPG   GL063457  10.550  16.720  13.180
 3467DOPG   PO463458  10.240  16.410  12.920
 3467DOPG   GL163459   9.870  16.240  12.850
 3467DOPG   GL263460   9.710  16.280  12.540
 3467DOPG   C1A63461   9.370  16.060  12.790
 3467DOPG   D2A63462   9.230  16.000  12.420
 3467DOPG   C3A63463   8.790  15.960  12.240
 3467DOPG   C4A63464   8.560  15.630  12.010
 3467DOPG   C1B63465   9.820  15.880  12.450
 3467DOPG   D2B63466   9.680  15.420  12.560
 3467DOPG   C3B63467   9.390  15.120  12.380
 3467DOPG   C4B63468   9.250  14.690  12.490
 3468DOPG   GL063469   9.450  20.610  17.770
 3468DOPG   PO463470   9.690  20.080  17.690
 3468DOPG   GL163471   9.420  19.820  18.000
 3468DOPG   GL263472   9.500  19.660  18.350
 3468DOPG   C1A63473   9.010  19.700  18.120
 3468DOPG   D2A63474   8.770  20.060  18.160
 3468DOPG   C3A63475   8.360  20.110  18.280
 3468DOPG   C4A63476   8.000  20.090  18.260
 3468DOPG   C1B63477   9.100  19.830  18.610
 3468DOPG   D2B63478   8.710  19.720  18.510
 3468DOPG   C3B63479   8.460  19.930  18.800
 3468DOPG   C4B63480   8.020  20.110  18.780
 3469DOPG   GL063481  12.450  21.450   3.030
 3469DOPG   PO463482  12.740  21.230   3.050
 3469DOPG   GL163483  12.570  20.950   3.400
 3469DOPG   GL263484  12.380  20.610   3.390
 3469DOPG   C1A63485  12.710  20.880   3.730
 3469DOPG   D2A63486  12.740  21.140   4.140
 3469DOPG   C3A63487  12.760  21.520   4.350
 3469DOPG   C4A63488  13.020  21.830   4.760
 3469DOPG   C1B63489  12.590  20.380   3.790
 3469DOPG   D2B63490  12.630  20.360   4.230
 3469DOPG   C3B63491  12.410  20.220   4.540
 3469DOPG   C4B63492  12.190  19.970   4.740
 3470DOPG   GL063493   3.920  16.510   4.830
 3470DOPG   PO463494   3.800  16.600   5.260
 3470DOPG   GL163495   4.080  16.590   5.590
 3470DOPG   GL263496   4.550  16.620   5.670
 3470DOPG   C1A63497   4.220  16.450   5.980
 3470DOPG   D2A63498   4.140  16.760   6.420
 3470DOPG   C3A63499   4.430  16.660   6.810
 3470DOPG   C4A63500   4.700  16.380   6.890
 3470DOPG   C1B63501   5.000  16.540   5.830
 3470DOPG   D2B63502   5.250  16.860   6.150
 3470DOPG   C3B63503   5.660  17.010   6.150
 3470DOPG   C4B63504   6.000  16.910   6.410
 3471DOPG   GL063505  12.430  17.110  17.110
 3471DOPG   PO463506  12.740  17.370  17.100
 3471DOPG   GL163507  12.940  17.040  17.320
 3471DOPG   GL263508  12.750  16.800  17.560
 3471DOPG   C1A63509  13.310  16.800  17.540
 3471DOPG   D2A63510  13.540  16.530  17.380
 3471DOPG   C3A63511  13.930  16.590  17.430
 3471DOPG   C4A63512  14.110  16.620  17.800
 3471DOPG   C1B63513  12.400  16.600  17.500
 3471DOPG   D2B63514  12.030  16.500  17.700
 3471DOPG   C3B63515  11.650  16.470  18.070
 3471DOPG   C4B63516  11.390  16.270  18.380
 3472DOPG   GL063517  36.000  15.900  19.090
 3472DOPG   PO463518  36.240  15.560  19.300
 3472DOPG   GL163519   0.230  15.750  19.060
 3472DOPG   GL263520   0.310  15.660  18.710
 3472DOPG   C1A63521   0.370  16.140  18.950
 3472DOPG   D2A63522   0.590  16.440  18.780
 3472DOPG   C3A63523   0.490  16.790  18.420
 3472DOPG   C4A63524  36.360  16.830  18.270
 3472DOPG   C1B63525   0.760  15.840  18.660
 3472DOPG   D2B63526   0.970  15.580  18.190
 3472DOPG   C3B63527   1.390  15.580  18.300
 3472DOPG   C4B63528   1.730  15.320  18.060
 3473DOPG   GL063529   3.620  24.960   7.140
 3473DOPG   PO463530   3.790  25.350   7.170
 3473DOPG   GL163531   3.930  25.150   7.560
 3473DOPG   GL263532   3.660  24.860   7.610
 3473DOPG   C1A63533   4.200  25.120   7.910
 3473DOPG   D2A63534   4.290  24.800   8.330
 3473DOPG   C3A63535   4.590  24.550   8.140
 3473DOPG   C4A63536   4.850  24.240   8.200
 3473DOPG   C1B63537   3.880  24.660   7.950
 3473DOPG   D2B63538   4.190  24.310   8.020
 3473DOPG   C3B63539   4.330  24.210   8.360
 3473DOPG   C4B63540   4.670  24.240   8.660
 3474DOPG   GL063541  10.560  30.700  20.450
 3474DOPG   PO463542  10.980  30.470  20.380
 3474DOPG   GL163543  10.960  30.070  20.310
 3474DOPG   GL263544  11.220  29.860  20.110
 3474DOPG   C1A63545  10.730  29.700  20.240
 3474DOPG   D2A63546  10.510  29.240  20.180
 3474DOPG   C3A63547  10.130  29.240  20.320
 3474DOPG   C4A63548   9.890  29.610  20.100
 3474DOPG   C1B63549  11.370  29.470  20.260
 3474DOPG   D2B63550  11.370  29.070  20.030
 3474DOPG   C3B63551  11.160  28.680  20.060
 3474DOPG   C4B63552  11.090  28.280  20.370
 3475DOPG   GL063553  11.390  17.710  21.330
 3475DOPG   PO463554  11.380  18.070  21.510
 3475DOPG   GL163555  10.990  18.080  21.110
 3475DOPG   GL263556  10.910  17.810  20.910
 3475DOPG   C1A63557  11.040  18.400  20.810
 3475DOPG   D2A63558  10.780  18.740  20.600
 3475DOPG   C3A63559  10.620  18.730  20.140
 3475DOPG   C4A63560  10.530  18.830  19.730
 3475DOPG   C1B63561  11.030  17.980  20.540
 3475DOPG   D2B63562  11.370  18.180  20.430
 3475DOPG   C3B63563  11.450  18.490  20.080
 3475DOPG   C4B63564  11.630  18.830  19.960
 3476DOPG   GL063565   2.110  16.170  14.510
 3476DOPG   PO463566   1.950  16.380  14.250
 3476DOPG   GL163567   1.410  16.310  14.270
 3476DOPG   GL263568   1.270  16.470  14.410
 3476DOPG   C1A63569   1.040  16.040  14.150
 3476DOPG   D2A63570   0.710  15.810  14.220
 3476DOPG   C3A63571   0.290  15.910  14.450
 3476DOPG   C4A63572  36.270  16.080  14.430
 3476DOPG   C1B63573   0.830  16.350  14.530
 3476DOPG   D2B63574   0.580  16.290  14.260
 3476DOPG   C3B63575   0.590  16.060  13.820
 3476DOPG   C4B63576   0.430  16.160  13.390
 3477DOPG   GL063577   7.460  13.040  16.250
 3477DOPG   PO463578   7.390  12.960  15.780
 3477DOPG   GL163579   7.610  13.360  15.660
 3477DOPG   GL263580   7.680  13.380  15.830
 3477DOPG   C1A63581   7.590  13.790  15.490
 3477DOPG   D2A63582   7.600  14.200  15.290
 3477DOPG   C3A63583   7.990  14.380  15.330
 3477DOPG   C4A63584   8.250  14.720  15.280
 3477DOPG   C1B63585   8.050  13.670  15.730
 3477DOPG   D2B63586   8.550  13.790  15.820
 3477DOPG   C3B63587   8.770  13.840  15.410
 3477DOPG   C4B63588   9.120  14.110  15.110
 3478DOPG   GL063589   4.460  21.200  26.040
 3478DOPG   PO463590   4.790  21.220  25.890
 3478DOPG   GL163591   5.030  21.540  25.560
 3478DOPG   GL263592   5.130  21.770  25.750
 3478DOPG   C1A63593   5.100  21.620  25.040
 3478DOPG   D2A63594   5.320  21.570  24.720
 3478DOPG   C3A63595   5.280  21.770  24.370
 3478DOPG   C4A63596   5.340  21.590  23.920
 3478DOPG   C1B63597   5.250  21.970  25.370
 3478DOPG   D2B63598   5.310  22.020  24.940
 3478DOPG   C3B63599   4.980  22.090  24.640
 3478DOPG   C4B63600   5.070  22.260  24.280
 3479DOPG   GL063601  35.650  16.120  19.370
 3479DOPG   PO463602  35.840  15.790  19.600
 3479DOPG   GL163603  36.120  16.150  19.660
 3479DOPG   GL263604  36.010  16.500  19.530
 3479DOPG   C1A63605   0.110  16.240  19.450
 3479DOPG   D2A63606   0.470  16.550  19.220
 3479DOPG   C3A63607   0.480  16.960  19.020
 3479DOPG   C4A63608   0.230  17.430  18.900
 3479DOPG   C1B63609  36.150  16.970  19.630
 3479DOPG   D2B63610  36.270  17.400  19.640
 3479DOPG   C3B63611   0.360  17.360  19.560
 3479DOPG   C4B63612   0.610  17.540  19.240
 3480DOPG   GL063613   8.610  15.460  19.650
 3480DOPG   PO463614   8.170  15.590  19.740
 3480DOPG   GL163615   8.410  15.730  19.340
 3480DOPG   GL263616   8.130  15.850  19.270
 3480DOPG   C1A63617   8.760  15.580  19.060
 3480DOPG   D2A63618   9.000  15.640  18.610
 3480DOPG   C3A63619   9.180  15.340  18.400
 3480DOPG   C4A63620   9.470  15.070  18.080
 3480DOPG   C1B63621   8.180  16.280  19.120
 3480DOPG   D2B63622   8.070  16.610  19.000
 3480DOPG   C3B63623   8.300  16.860  18.930
 3480DOPG   C4B63624   8.730  17.000  19.100
 3481DOPG   GL063625  14.970   6.930  13.200
 3481DOPG   PO463626  14.930   7.240  12.910
 3481DOPG   GL163627  14.670   7.580  12.980
 3481DOPG   GL263628  14.770   7.950  12.970
 3481DOPG   C1A63629  14.480   7.890  13.350
 3481DOPG   D2A63630  14.110   7.950  13.610
 3481DOPG   C3A63631  14.090   8.310  13.840
 3481DOPG   C4A63632  13.890   8.740  14.110
 3481DOPG   C1B63633  14.890   8.180  13.320
 3481DOPG   D2B63634  14.680   8.400  13.640
 3481DOPG   C3B63635  14.920   8.830  13.730
 3481DOPG   C4B63636  15.100   9.150  13.590
 3482DOPG   GL063637   0.800  16.290  21.230
 3482DOPG   PO463638   0.350  16.180  21.170
 3482DOPG   GL163639   0.730  16.110  20.740
 3482DOPG   GL263640   0.590  16.060  20.440
 3482DOPG   C1A63641   1.060  16.010  20.550
 3482DOPG   D2A63642   1.410  16.190  20.410
 3482DOPG   C3A63643   1.760  16.370  20.320
 3482DOPG   C4A63644   1.960  16.600  20.570
 3482DOPG   C1B63645   0.490  16.400  20.160
 3482DOPG   D2B63646   0.580  16.690  19.990
 3482DOPG   C3B63647   1.040  16.850  19.910
 3482DOPG   C4B63648   1.280  17.200  19.870
 3483DOPG   GL063649   8.960   9.910   6.740
 3483DOPG   PO463650   9.370   9.780   6.520
 3483DOPG   GL163651   9.530  10.180   6.850
 3483DOPG   GL263652   9.100  10.340   6.910
 3483DOPG   C1A63653   9.400  10.580   7.270
 3483DOPG   D2A63654   9.690  10.800   7.640
 3483DOPG   C3A63655   9.660  11.210   7.760
 3483DOPG   C4A63656   9.240  11.480   7.780
 3483DOPG   C1B63657   8.870  10.640   7.180
 3483DOPG   D2B63658   8.890  10.720   7.630
 3483DOPG   C3B63659   9.240  10.820   7.880
 3483DOPG   C4B63660   9.630  10.850   8.260
 3484DOPG   GL063661   8.720  28.580   7.420
 3484DOPG   PO463662   8.660  28.180   7.340
 3484DOPG   GL163663   8.800  27.910   7.710
 3484DOPG   GL263664   8.520  27.730   7.910
 3484DOPG   C1A63665   9.000  27.540   7.850
 3484DOPG   D2A63666   9.180  27.150   8.100
 3484DOPG   C3A63667   8.960  26.860   8.460
 3484DOPG   C4A63668   8.540  26.940   8.630
 3484DOPG   C1B63669   8.500  27.330   8.310
 3484DOPG   D2B63670   8.860  27.380   8.790
 3484DOPG   C3B63671   8.970  27.420   9.190
 3484DOPG   C4B63672   9.240  27.420   9.610
 3485DOPG   GL063673   8.120  12.000  11.510
 3485DOPG   PO463674   7.620  12.020  11.410
 3485DOPG   GL163675   7.770  11.630  11.370
 3485DOPG   GL263676   7.680  11.460  11.530
 3485DOPG   C1A63677   8.090  11.380  11.160
 3485DOPG   D2A63678   8.290  11.030  11.180
 3485DOPG   C3A63679   8.520  10.820  10.950
 3485DOPG   C4A63680   8.900  10.740  10.770
 3485DOPG   C1B63681   7.380  11.260  11.220
 3485DOPG   D2B63682   7.230  11.200  10.920
 3485DOPG   C3B63683   7.050  10.840  10.710
 3485DOPG   C4B63684   6.960  10.510  11.020
 3486DOPG   GL063685  35.520  22.540   9.090
 3486DOPG   PO463686  35.860  22.200   9.060
 3486DOPG   GL163687  35.970  22.450   9.380
 3486DOPG   GL263688  35.830  22.440   9.740
 3486DOPG   C1A63689   0.090  22.380   9.490
 3486DOPG   D2A63690   0.350  21.970   9.410
 3486DOPG   C3A63691   0.730  21.810   9.590
 3486DOPG   C4A63692   1.190  21.900   9.710
 3486DOPG   C1B63693  36.190  22.130   9.780
 3486DOPG   D2B63694   0.330  21.980   9.880
 3486DOPG   C3B63695   0.400  21.570  10.040
 3486DOPG   C4B63696   0.590  21.210  10.260
 3487DOPG   GL063697  10.690  16.310  16.130
 3487DOPG   PO463698  10.640  16.290  16.480
 3487DOPG   GL163699  10.640  16.140  16.850
 3487DOPG   GL263700  10.830  16.000  17.040
 3487DOPG   C1A63701  10.340  15.760  17.090
 3487DOPG   D2A63702  10.340  15.300  17.150
 3487DOPG   C3A63703  10.030  15.090  17.230
 3487DOPG   C4A63704   9.680  14.850  17.190
 3487DOPG   C1B63705  10.670  15.880  17.480
 3487DOPG   D2B63706  10.520  15.520  17.710
 3487DOPG   C3B63707  10.620  15.140  17.980
 3487DOPG   C4B63708  10.780  15.200  18.510
 3488DOPG   GL063709  10.190  22.070  15.790
 3488DOPG   PO463710  10.180  22.610  15.900
 3488DOPG   GL163711   9.880  22.970  16.120
 3488DOPG   GL263712  10.070  23.100  16.270
 3488DOPG   C1A63713   9.680  23.430  16.120
 3488DOPG   D2A63714   9.380  23.560  15.920
 3488DOPG   C3A63715   9.350  24.060  15.810
 3488DOPG   C4A63716   9.670  24.140  15.440
 3488DOPG   C1B63717  10.080  23.350  15.820
 3488DOPG   D2B63718   9.890  23.700  15.580
 3488DOPG   C3B63719   9.650  23.390  15.390
 3488DOPG   C4B63720   9.120  23.370  15.450
 3489DOPG   GL063721  22.710  23.050  16.730
 3489DOPG   PO463722  22.680  23.440  16.410
 3489DOPG   GL163723  22.350  23.230  16.420
 3489DOPG   GL263724  22.250  23.200  16.750
 3489DOPG   C1A63725  22.060  23.030  16.120
 3489DOPG   D2A63726  22.030  22.640  16.110
 3489DOPG   C3A63727  21.640  22.520  15.950
 3489DOPG   C4A63728  21.340  22.380  15.670
 3489DOPG   C1B63729  21.890  23.360  16.900
 3489DOPG   D2B63730  21.910  23.670  17.180
 3489DOPG   C3B63731  21.650  23.930  17.510
 3489DOPG   C4B63732  21.130  23.920  17.490
 3490DOPG   GL063733  15.970  30.700  16.540
 3490DOPG   PO463734  15.760  30.910  16.950
 3490DOPG   GL163735  15.770  30.420  16.930
 3490DOPG   GL263736  15.590  30.320  16.700
 3490DOPG   C1A63737  15.670  29.980  17.100
 3490DOPG   D2A63738  15.860  29.720  17.430
 3490DOPG   C3A63739  15.870  29.280  17.400
 3490DOPG   C4A63740  15.870  28.790  17.510
 3490DOPG   C1B63741  15.840  30.210  16.320
 3490DOPG   D2B63742  15.930  30.140  15.880
 3490DOPG   C3B63743  16.330  30.050  15.810
 3490DOPG   C4B63744  16.550  29.740  16.030
 3491DOPG   GL063745  13.890  21.070  16.290
 3491DOPG   PO463746  14.240  20.870  16.510
 3491DOPG   GL163747  14.400  20.960  16.870
 3491DOPG   GL263748  14.270  21.220  16.990
 3491DOPG   C1A63749  14.670  21.020  17.270
 3491DOPG   D2A63750  15.030  21.250  17.400
 3491DOPG   C3A63751  15.450  21.090  17.520
 3491DOPG   C4A63752  15.860  20.950  17.430
 3491DOPG   C1B63753  14.450  21.510  17.300
 3491DOPG   D2B63754  14.260  21.760  17.640
 3491DOPG   C3B63755  14.320  22.270  17.610
 3491DOPG   C4B63756  14.670  22.690  17.570
 3492DOPG   GL063757   6.500  28.220  23.620
 3492DOPG   PO463758   6.850  27.960  23.690
 3492DOPG   GL163759   6.790  27.630  23.310
 3492DOPG   GL263760   6.610  27.370  23.510
 3492DOPG   C1A63761   7.060  27.790  22.940
 3492DOPG   D2A63762   7.290  27.650  22.640
 3492DOPG   C3A63763   6.960  27.440  22.360
 3492DOPG   C4A63764   6.930  27.280  21.940
 3492DOPG   C1B63765   6.610  27.000  23.360
 3492DOPG   D2B63766   6.470  26.580  23.200
 3492DOPG   C3B63767   6.550  26.470  22.750
 3492DOPG   C4B63768   6.870  26.490  22.430
 3493DOPG   GL063769  12.690  22.090  16.960
 3493DOPG   PO463770  12.980  22.360  16.800
 3493DOPG   GL163771  13.010  22.780  16.830
 3493DOPG   GL263772  13.240  22.900  16.510
 3493DOPG   C1A63773  13.200  23.140  16.940
 3493DOPG   D2A63774  13.390  23.470  17.220
 3493DOPG   C3A63775  13.270  23.500  17.600
 3493DOPG   C4A63776  13.090  23.250  17.930
 3493DOPG   C1B63777  13.600  23.080  16.640
 3493DOPG   D2B63778  14.020  22.900  16.790
 3493DOPG   C3B63779  14.190  23.030  17.110
 3493DOPG   C4B63780  14.590  23.120  17.250
 3494DOPG   GL063781  12.310  14.970  15.030
 3494DOPG   PO463782  11.960  14.830  15.250
 3494DOPG   GL163783  12.050  14.430  15.090
 3494DOPG   GL263784  12.310  14.460  15.000
 3494DOPG   C1A63785  11.940  14.010  15.060
 3494DOPG   D2A63786  12.100  13.600  14.990
 3494DOPG   C3A63787  12.450  13.500  15.180
 3494DOPG   C4A63788  12.630  13.190  15.360
 3494DOPG   C1B63789  12.440  14.180  14.680
 3494DOPG   D2B63790  12.160  14.320  14.360
 3494DOPG   C3B63791  11.970  14.010  14.270
 3494DOPG   C4B63792  11.680  13.790  14.020
 3495DOPG   GL063793  10.520  19.210  11.510
 3495DOPG   PO463794  10.320  19.430  11.870
 3495DOPG   GL163795  10.220  19.670  11.570
 3495DOPG   GL263796  10.260  19.920  11.490
 3495DOPG   C1A63797  10.200  19.550  11.060
 3495DOPG   D2A63798   9.940  19.610  10.770
 3495DOPG   C3A63799   9.490  19.500  10.850
 3495DOPG   C4A63800   9.110  19.450  10.890
 3495DOPG   C1B63801  10.210  20.390  11.240
 3495DOPG   D2B63802  10.040  20.600  10.810
 3495DOPG   C3B63803  10.240  20.960  10.540
 3495DOPG   C4B63804  10.510  21.260  10.240
 3496DOPG   GL063805  34.970  18.600  19.540
 3496DOPG   PO463806  34.960  18.580  19.220
 3496DOPG   GL163807  35.370  18.820  19.270
 3496DOPG   GL263808  35.410  19.190  19.110
 3496DOPG   C1A63809  35.820  18.940  19.130
 3496DOPG   D2A63810  36.100  19.320  19.150
 3496DOPG   C3A63811   0.080  19.450  19.230
 3496DOPG   C4A63812   0.530  19.400  19.180
 3496DOPG   C1B63813  35.740  19.440  18.830
 3496DOPG   D2B63814  35.770  19.690  18.470
 3496DOPG   C3B63815  35.570  19.590  18.080
 3496DOPG   C4B63816  35.450  19.520  17.790
 3497DOPG   GL063817  10.390  21.400  14.150
 3497DOPG   PO463818  10.080  21.650  14.340
 3497DOPG   GL163819  10.140  21.880  13.970
 3497DOPG   GL263820  10.110  21.750  13.710
 3497DOPG   C1A63821   9.910  22.210  13.920
 3497DOPG   D2A63822   9.650  22.280  13.530
 3497DOPG   C3A63823   9.190  22.260  13.500
 3497DOPG   C4A63824   8.900  22.110  13.340
 3497DOPG   C1B63825  10.040  22.050  13.350
 3497DOPG   D2B63826   9.930  22.520  13.190
 3497DOPG   C3B63827   9.450  22.730  13.230
 3497DOPG   C4B63828   9.030  22.830  12.970
 3498DOPG   GL063829  11.100  18.700  11.350
 3498DOPG   PO463830  10.860  18.780  11.540
 3498DOPG   GL163831  10.580  18.720  11.330
 3498DOPG   GL263832  10.710  18.530  11.130
 3498DOPG   C1A63833  10.440  18.910  10.880
 3498DOPG   D2A63834  10.250  19.220  10.640
 3498DOPG   C3A63835  10.390  19.320  10.220
 3498DOPG   C4A63836  10.430  19.260   9.800
 3498DOPG   C1B63837  10.940  18.870  10.920
 3498DOPG   D2B63838  11.170  18.820  10.540
 3498DOPG   C3B63839  11.210  19.080  10.310
 3498DOPG   C4B63840  10.960  19.380  10.060
 3499DOPG   GL063841   6.690   8.530   9.370
 3499DOPG   PO463842   6.800   8.820   9.010
 3499DOPG   GL163843   6.880   9.160   9.100
 3499DOPG   GL263844   6.840   9.350   9.410
 3499DOPG   C1A63845   7.070   9.620   8.950
 3499DOPG   D2A63846   7.180  10.090   9.040
 3499DOPG   C3A63847   7.450  10.120   8.790
 3499DOPG   C4A63848   7.490   9.810   8.480
 3499DOPG   C1B63849   7.140   9.670   9.470
 3499DOPG   D2B63850   7.230  10.050   9.640
 3499DOPG   C3B63851   7.170  10.410   9.890
 3499DOPG   C4B63852   7.160  10.600  10.260
 3500DOPG   GL063853  21.000  27.040  18.160
 3500DOPG   PO463854  20.930  26.830  17.880
 3500DOPG   GL163855  20.720  26.530  17.600
 3500DOPG   GL263856  20.940  26.320  17.450
 3500DOPG   C1A63857  20.540  26.540  17.110
 3500DOPG   D2A63858  20.120  26.250  17.060
 3500DOPG   C3A63859  20.160  25.960  17.330
 3500DOPG   C4A63860  20.190  25.600  17.510
 3500DOPG   C1B63861  20.730  25.980  17.190
 3500DOPG   D2B63862  20.690  25.540  17.180
 3500DOPG   C3B63863  20.880  25.150  17.460
 3500DOPG   C4B63864  20.880  24.810  17.740
 3501DOPG   GL063865  12.050  31.000  11.480
 3501DOPG   PO463866  12.390  31.040  11.310
 3501DOPG   GL163867  12.420  30.620  11.550
 3501DOPG   GL263868  12.490  30.780  11.760
 3501DOPG   C1A63869  12.510  30.240  11.590
 3501DOPG   D2A63870  12.650  29.810  11.580
 3501DOPG   C3A63871  12.580  29.720  11.130
 3501DOPG   C4A63872  12.180  29.550  10.960
 3501DOPG   C1B63873  12.280  30.520  11.990
 3501DOPG   D2B63874  12.230  30.060  12.000
 3501DOPG   C3B63875  12.120  29.630  12.030
 3501DOPG   C4B63876  11.710  29.480  12.130
 3502DOPG   GL063877   7.910  23.320  10.650
 3502DOPG   PO463878   8.100  22.930  10.770
 3502DOPG   GL163879   8.320  22.690  11.130
 3502DOPG   GL263880   8.560  22.680  10.990
 3502DOPG   C1A63881   8.540  22.840  11.430
 3502DOPG   D2A63882   8.900  22.950  11.670
 3502DOPG   C3A63883   9.090  22.660  11.900
 3502DOPG   C4A63884   9.510  22.520  11.730
 3502DOPG   C1B63885   8.900  22.880  11.150
 3502DOPG   D2B63886   9.200  22.750  11.270
 3502DOPG   C3B63887   9.600  22.670  11.240
 3502DOPG   C4B63888  10.020  22.650  11.050
 3503DOPG   GL063889  10.110  16.080   3.190
 3503DOPG   PO463890  10.200  16.470   2.980
 3503DOPG   GL163891  10.170  16.560   3.370
 3503DOPG   GL263892   9.880  16.330   3.520
 3503DOPG   C1A63893  10.410  16.580   3.690
 3503DOPG   D2A63894  10.760  16.330   3.960
 3503DOPG   C3A63895  10.740  16.300   4.450
 3503DOPG   C4A63896  10.630  16.600   4.880
 3503DOPG   C1B63897   9.890  16.210   3.980
 3503DOPG   D2B63898   9.900  16.230   4.510
 3503DOPG   C3B63899  10.260  16.190   4.670
 3503DOPG   C4B63900  10.530  15.990   4.820
 3504DOPG   GL063901  12.380  22.500  16.790
 3504DOPG   PO463902  12.540  22.750  16.610
 3504DOPG   GL163903  12.590  23.160  16.750
 3504DOPG   GL263904  12.910  23.260  16.580
 3504DOPG   C1A63905  12.780  23.480  17.050
 3504DOPG   D2A63906  12.890  23.870  16.910
 3504DOPG   C3A63907  13.130  24.020  16.500
 3504DOPG   C4A63908  13.610  24.070  16.370
 3504DOPG   C1B63909  13.180  23.530  16.620
 3504DOPG   D2B63910  13.520  23.570  16.630
 3504DOPG   C3B63911  13.800  23.400  16.990
 3504DOPG   C4B63912  14.190  23.500  17.210
 3505DOPG   GL063913  11.830  17.790  17.470
 3505DOPG   PO463914  11.940  18.100  17.590
 3505DOPG   GL163915  12.010  17.900  17.990
 3505DOPG   GL263916  12.260  17.720  18.030
 3505DOPG   C1A63917  11.850  17.840  18.360
 3505DOPG   D2A63918  12.040  17.740  18.690
 3505DOPG   C3A63919  12.210  17.300  18.730
 3505DOPG   C4A63920  11.990  17.050  18.970
 3505DOPG   C1B63921  12.120  17.460  18.270
 3505DOPG   D2B63922  11.810  17.280  18.470
 3505DOPG   C3B63923  11.590  17.540  18.630
 3505DOPG   C4B63924  11.210  17.810  18.580
 3506DOPG   GL063925  10.600  16.760  16.350
 3506DOPG   PO463926  10.470  16.730  16.760
 3506DOPG   GL163927  10.160  16.670  17.090
 3506DOPG   GL263928   9.970  16.790  17.330
 3506DOPG   C1A63929   9.730  16.370  17.210
 3506DOPG   D2A63930   9.490  16.490  17.640
 3506DOPG   C3A63931   9.350  16.260  18.030
 3506DOPG   C4A63932   9.640  15.880  18.170
 3506DOPG   C1B63933   9.970  16.540  17.620
 3506DOPG   D2B63934   9.940  16.260  18.020
 3506DOPG   C3B63935  10.200  16.320  18.430
 3506DOPG   C4B63936  10.560  16.160  18.490
 3507DOPG   GL063937   2.120  13.740  20.470
 3507DOPG   PO463938   1.770  13.920  20.670
 3507DOPG   GL163939   2.130  14.190  20.720
 3507DOPG   GL263940   2.280  14.340  21.070
 3507DOPG   C1A63941   2.430  14.340  20.580
 3507DOPG   D2A63942   2.770  14.610  20.610
 3507DOPG   C3A63943   3.080  14.770  20.390
 3507DOPG   C4A63944   3.470  15.030  20.180
 3507DOPG   C1B63945   2.370  14.730  21.100
 3507DOPG   D2B63946   2.710  15.050  20.940
 3507DOPG   C3B63947   3.150  14.910  20.910
 3507DOPG   C4B63948   3.280  14.510  20.720
 3508DOPG   GL063949  12.100  13.360  10.330
 3508DOPG   PO463950  11.770  13.300   9.890
 3508DOPG   GL163951  11.630  13.620  10.000
 3508DOPG   GL263952  11.630  13.800  10.350
 3508DOPG   C1A63953  11.770  14.100   9.980
 3508DOPG   D2A63954  11.800  14.550  10.100
 3508DOPG   C3A63955  11.570  14.900  10.270
 3508DOPG   C4A63956  11.260  15.160  10.570
 3508DOPG   C1B63957  11.720  14.100  10.700
 3508DOPG   D2B63958  11.640  14.260  11.220
 3508DOPG   C3B63959  11.700  14.020  11.640
 3508DOPG   C4B63960  11.750  13.980  12.120
 3509DOPG   GL063961  35.100  19.830   8.900
 3509DOPG   PO463962  35.370  20.150   8.680
 3509DOPG   GL163963  35.620  20.420   8.900
 3509DOPG   GL263964  35.470  20.740   9.130
 3509DOPG   C1A63965  35.980  20.480   9.110
 3509DOPG   D2A63966  36.170  20.170   9.380
 3509DOPG   C3A63967  36.200  19.770   9.360
 3509DOPG   C4A63968   0.160  19.650   9.460
 3509DOPG   C1B63969  35.780  20.890   9.350
 3509DOPG   D2B63970  36.060  21.080   9.650
 3509DOPG   C3B63971   0.050  21.040   9.540
 3509DOPG   C4B63972   0.330  20.940   9.290
 3510DOPG   GL063973  12.350  29.180   8.230
 3510DOPG   PO463974  12.140  28.970   8.070
 3510DOPG   GL163975  12.330  28.640   8.240
 3510DOPG   GL263976  12.710  28.680   8.270
 3510DOPG   C1A63977  12.500  28.280   8.150
 3510DOPG   D2A63978  12.510  27.830   8.310
 3510DOPG   C3A63979  12.140  27.660   8.160
 3510DOPG   C4A63980  11.750  27.870   7.830
 3510DOPG   C1B63981  12.880  28.250   8.430
 3510DOPG   D2B63982  12.930  27.910   8.600
 3510DOPG   C3B63983  13.010  27.780   9.060
 3510DOPG   C4B63984  12.890  27.360   9.120
 3511DOPG   GL063985  19.870  25.290   7.680
 3511DOPG   PO463986  19.730  25.170   8.070
 3511DOPG   GL163987  19.480  24.880   8.150
 3511DOPG   GL263988  19.350  24.740   7.930
 3511DOPG   C1A63989  19.370  24.570   8.470
 3511DOPG   D2A63990  18.950  24.710   8.620
 3511DOPG   C3A63991  18.630  24.550   8.930
 3511DOPG   C4A63992  18.180  24.640   8.940
 3511DOPG   C1B63993  18.950  24.850   8.110
 3511DOPG   D2B63994  18.650  25.110   8.320
 3511DOPG   C3B63995  18.520  25.060   8.700
 3511DOPG   C4B63996  18.450  25.070   9.150
 3512DOPG   GL063997   5.000  14.300  10.720
 3512DOPG   PO463998   4.740  14.010  10.540
 3512DOPG   GL163999   4.540  14.180  10.090
 3512DOPG   GL264000   4.470  14.460  10.050
 3512DOPG   C1A64001   4.470  13.960   9.710
 3512DOPG   D2A64002   4.390  13.650   9.350
 3512DOPG   C3A64003   4.780  13.390   9.340
 3512DOPG   C4A64004   5.150  13.290   9.230
 3512DOPG   C1B64005   4.270  14.430   9.640
 3512DOPG   D2B64006   3.860  14.530   9.370
 3512DOPG   C3B64007   3.580  14.180   9.140
 3512DOPG   C4B64008   3.440  13.740   9.200
 3513DOPG   GL064009  12.720  16.450  21.080
 3513DOPG   PO464010  13.060  16.620  20.830
 3513DOPG   GL164011  13.170  16.880  20.440
 3513DOPG   GL264012  13.530  17.070  20.340
 3513DOPG   C1A64013  13.100  16.910  20.080
 3513DOPG   D2A64014  13.110  17.070  19.610
 3513DOPG   C3A64015  13.070  17.440  19.300
 3513DOPG   C4A64016  13.140  17.930  19.390
 3513DOPG   C1B64017  13.610  17.270  20.080
 3513DOPG   D2B64018  13.420  17.470  19.670
 3513DOPG   C3B64019  13.210  17.740  19.880
 3513DOPG   C4B64020  12.790  18.040  19.930
 3514DOPG   GL064021  20.460  16.110  22.320
 3514DOPG   PO464022  20.550  15.750  22.420
 3514DOPG   GL164023  20.130  15.820  22.190
 3514DOPG   GL264024  20.010  16.140  22.170
 3514DOPG   C1A64025  19.660  15.820  21.970
 3514DOPG   D2A64026  19.730  15.980  21.570
 3514DOPG   C3A64027  19.410  16.330  21.490
 3514DOPG   C4A64028  18.960  16.370  21.610
 3514DOPG   C1B64029  19.890  16.410  21.760
 3514DOPG   D2B64030  20.280  16.630  21.430
 3514DOPG   C3B64031  20.230  16.480  21.010
 3514DOPG   C4B64032  20.080  16.130  20.680
 3515DOPG   GL064033  11.150  22.470  15.350
 3515DOPG   PO464034  11.460  22.860  15.260
 3515DOPG   GL164035  11.560  23.160  15.530
 3515DOPG   GL264036  11.950  23.100  15.640
 3515DOPG   C1A64037  11.410  23.580  15.640
 3515DOPG   D2A64038  11.260  23.970  15.910
 3515DOPG   C3A64039  11.470  24.280  16.150
 3515DOPG   C4A64040  11.270  24.450  16.520
 3515DOPG   C1B64041  12.000  23.490  15.450
 3515DOPG   D2B64042  12.010  23.820  15.150
 3515DOPG   C3B64043  11.690  24.100  14.950
 3515DOPG   C4B64044  11.300  24.090  14.800
 3516DOPG   GL064045  10.130  20.930  14.050
 3516DOPG   PO464046   9.820  21.250  14.140
 3516DOPG   GL164047   9.630  21.630  13.880
 3516DOPG   GL264048   9.670  21.890  14.110
 3516DOPG   C1A64049   9.180  21.860  13.760
 3516DOPG   D2A64050   8.760  21.720  13.720
 3516DOPG   C3A64051   8.270  21.840  13.830
 3516DOPG   C4A64052   7.730  21.810  13.800
 3516DOPG   C1B64053   9.330  22.060  14.200
 3516DOPG   D2B64054   8.950  21.980  14.170
 3516DOPG   C3B64055   8.840  21.610  14.310
 3516DOPG   C4B64056   8.480  21.510  14.150
 3517DOPG   GL064057   4.450  14.510  11.970
 3517DOPG   PO464058   4.100  14.630  11.920
 3517DOPG   GL164059   3.710  14.430  11.730
 3517DOPG   GL264060   3.610  14.210  11.880
 3517DOPG   C1A64061   3.420  14.150  11.460
 3517DOPG   D2A64062   3.020  13.810  11.450
 3517DOPG   C3A64063   2.960  13.410  11.330
 3517DOPG   C4A64064   2.950  12.940  11.440
 3517DOPG   C1B64065   3.250  13.910  12.040
 3517DOPG   D2B64066   3.410  13.500  12.270
 3517DOPG   C3B64067   3.310  13.060  12.440
 3517DOPG   C4B64068   2.980  13.020  12.620
 3518DOPG   GL064069   3.840  28.710  20.960
 3518DOPG   PO464070   4.120  28.710  20.730
 3518DOPG   GL164071   4.540  28.480  20.620
 3518DOPG   GL264072   4.600  28.450  20.160
 3518DOPG   C1A64073   4.560  28.050  20.540
 3518DOPG   D2A64074   4.600  27.660  20.320
 3518DOPG   C3A64075   4.670  27.550  19.900
 3518DOPG   C4A64076   4.810  27.120  19.740
 3518DOPG   C1B64077   4.980  28.330  20.000
 3518DOPG   D2B64078   5.050  28.420  19.560
 3518DOPG   C3B64079   4.950  28.200  19.270
 3518DOPG   C4B64080   4.980  27.730  19.190
 3519DOPG   GL064081  19.810  21.920   6.790
 3519DOPG   PO464082  20.060  22.260   6.600
 3519DOPG   GL164083  19.750  22.380   6.910
 3519DOPG   GL264084  19.490  22.420   6.810
 3519DOPG   C1A64085  19.790  22.620   7.210
 3519DOPG   D2A64086  19.620  22.820   7.600
 3519DOPG   C3A64087  19.280  22.880   7.770
 3519DOPG   C4A64088  19.030  22.850   8.150
 3519DOPG   C1B64089  19.070  22.600   6.770
 3519DOPG   D2B64090  18.630  22.510   6.550
 3519DOPG   C3B64091  18.470  22.720   6.770
 3519DOPG   C4B64092  18.570  23.130   7.040
 3520DOPG   GL064093   9.040  17.660  16.000
 3520DOPG   PO464094   8.720  17.910  15.950
 3520DOPG   GL164095   8.400  17.710  16.140
 3520DOPG   GL264096   8.450  17.350  16.210
 3520DOPG   C1A64097   8.000  17.840  16.370
 3520DOPG   D2A64098   7.550  17.990  16.560
 3520DOPG   C3A64099   7.370  18.010  17.080
 3520DOPG   C4A64100   7.150  17.670  17.340
 3520DOPG   C1B64101   8.310  16.840  16.210
 3520DOPG   D2B64102   7.850  16.620  16.080
 3520DOPG   C3B64103   7.540  16.480  16.400
 3520DOPG   C4B64104   7.400  16.260  16.730
 3521DOPG   GL064105  10.330  19.720  18.190
 3521DOPG   PO464106  10.020  19.850  18.030
 3521DOPG   GL164107   9.990  20.000  18.460
 3521DOPG   GL264108  10.040  20.320  18.540
 3521DOPG   C1A64109   9.830  20.120  18.940
 3521DOPG   D2A64110   9.770  20.240  19.320
 3521DOPG   C3A64111   9.690  20.670  19.330
 3521DOPG   C4A64112   9.810  21.110  19.180
 3521DOPG   C1B64113  10.340  20.370  18.910
 3521DOPG   D2B64114  10.690  20.530  19.110
 3521DOPG   C3B64115  10.760  20.980  19.270
 3521DOPG   C4B64116  10.910  21.310  19.620
 3522DOPG   GL064117   7.250  31.040  14.050
 3522DOPG   PO464118   7.580  30.940  13.880
 3522DOPG   GL164119   7.790  30.590  13.870
 3522DOPG   GL264120   7.640  30.410  13.680
 3522DOPG   C1A64121   8.160  30.270  13.960
 3522DOPG   D2A64122   8.330  29.850  13.960
 3522DOPG   C3A64123   8.130  29.590  13.750
 3522DOPG   C4A64124   7.970  29.340  13.980
 3522DOPG   C1B64125   7.740  29.990  13.470
 3522DOPG   D2B64126   7.430  29.650  13.390
 3522DOPG   C3B64127   7.210  29.450  13.700
 3522DOPG   C4B64128   6.950  29.300  13.970
 3523DOPG   GL064129   3.580  23.750  25.280
 3523DOPG   PO464130   3.840  23.410  25.280
 3523DOPG   GL164131   4.190  23.400  24.920
 3523DOPG   GL264132   4.030  23.120  24.730
 3523DOPG   C1A64133   4.640  23.220  24.810
 3523DOPG   D2A64134   4.970  23.410  24.500
 3523DOPG   C3A64135   5.370  23.350  24.730
 3523DOPG   C4A64136   5.580  22.940  24.640
 3523DOPG   C1B64137   4.400  23.170  24.400
 3523DOPG   D2B64138   4.670  22.940  24.040
 3523DOPG   C3B64139   4.990  23.140  23.870
 3523DOPG   C4B64140   5.390  23.020  23.760
 3524DOPG   GL064141  34.200  22.840  12.140
 3524DOPG   PO464142  34.110  22.520  12.400
 3524DOPG   GL164143  34.510  22.430  12.240
 3524DOPG   GL264144  34.720  22.470  12.530
 3524DOPG   C1A64145  34.890  22.370  11.950
 3524DOPG   D2A64146  35.240  22.590  12.160
 3524DOPG   C3A64147  35.640  22.530  12.250
 3524DOPG   C4A64148  36.030  22.300  12.300
 3524DOPG   C1B64149  35.220  22.450  12.650
 3524DOPG   D2B64150  35.600  22.670  12.860
 3524DOPG   C3B64151  36.010  22.740  12.740
 3524DOPG   C4B64152   0.080  22.970  12.800
 3525DOPG   GL064153  13.440  25.700  11.870
 3525DOPG   PO464154  13.760  25.400  12.060
 3525DOPG   GL164155  13.590  25.170  12.350
 3525DOPG   GL264156  13.360  25.190  12.610
 3525DOPG   C1A64157  13.690  24.650  12.510
 3525DOPG   D2A64158  13.380  24.390  12.550
 3525DOPG   C3A64159  13.380  23.960  12.330
 3525DOPG   C4A64160  13.140  23.790  11.960
 3525DOPG   C1B64161  13.320  24.840  12.770
 3525DOPG   D2B64162  13.010  24.560  12.820
 3525DOPG   C3B64163  12.890  24.130  12.670
 3525DOPG   C4B64164  13.080  23.710  12.740
 3526DOPG   GL064165  19.100  27.310  20.790
 3526DOPG   PO464166  19.020  26.870  20.770
 3526DOPG   GL164167  19.060  26.640  20.380
 3526DOPG   GL264168  19.160  26.410  20.420
 3526DOPG   C1A64169  18.820  26.690  20.000
 3526DOPG   D2A64170  18.530  26.490  19.790
 3526DOPG   C3A64171  18.200  26.370  20.050
 3526DOPG   C4A64172  17.930  26.760  20.250
 3526DOPG   C1B64173  18.700  26.190  20.520
 3526DOPG   D2B64174  18.320  26.060  20.500
 3526DOPG   C3B64175  18.100  25.850  20.250
 3526DOPG   C4B64176  17.950  25.730  19.740
 3527DOPG   GL064177  33.940  19.760  15.150
 3527DOPG   PO464178  34.200  19.930  15.570
 3527DOPG   GL164179  34.560  19.960  15.370
 3527DOPG   GL264180  34.470  20.000  15.090
 3527DOPG   C1A64181  34.900  19.970  15.330
 3527DOPG   D2A64182  35.230  20.120  15.540
 3527DOPG   C3A64183  35.560  20.330  15.540
 3527DOPG   C4A64184  35.880  20.230  15.350
 3527DOPG   C1B64185  34.780  19.860  14.840
 3527DOPG   D2B64186  35.110  19.960  14.580
 3527DOPG   C3B64187  35.570  20.050  14.450
 3527DOPG   C4B64188  36.040  20.140  14.600
 3528DOPG   GL064189   4.530  28.430   9.510
 3528DOPG   PO464190   4.900  28.420   9.820
 3528DOPG   GL164191   5.000  28.010   9.960
 3528DOPG   GL264192   4.850  28.230  10.240
 3528DOPG   C1A64193   5.290  27.900  10.270
 3528DOPG   D2A64194   5.350  27.620  10.620
 3528DOPG   C3A64195   5.570  27.730  11.050
 3528DOPG   C4A64196   6.120  27.730  11.090
 3528DOPG   C1B64197   5.020  28.420  10.620
 3528DOPG   D2B64198   5.390  28.210  10.800
 3528DOPG   C3B64199   5.820  27.960  10.700
 3528DOPG   C4B64200   5.890  28.200  10.350
 3529DOPG   GL064201   6.680  24.560  25.860
 3529DOPG   PO464202   6.420  24.520  25.590
 3529DOPG   GL164203   6.600  24.760  25.370
 3529DOPG   GL264204   6.570  24.500  25.040
 3529DOPG   C1A64205   6.810  24.930  25.050
 3529DOPG   D2A64206   6.850  25.260  24.730
 3529DOPG   C3A64207   7.100  25.400  24.460
 3529DOPG   C4A64208   7.380  25.580  24.210
 3529DOPG   C1B64209   6.280  24.180  25.090
 3529DOPG   D2B64210   6.120  23.890  24.800
 3529DOPG   C3B64211   6.360  23.620  24.540
 3529DOPG   C4B64212   6.650  23.680  24.420
 3530DOPG   GL064213  14.860  19.160  13.580
 3530DOPG   PO464214  15.060  19.020  13.260
 3530DOPG   GL164215  15.560  19.050  13.190
 3530DOPG   GL264216  15.810  19.180  13.360
 3530DOPG   C1A64217  15.770  19.070  12.820
 3530DOPG   D2A64218  15.750  18.970  12.330
 3530DOPG   C3A64219  16.070  18.870  12.140
 3530DOPG   C4A64220  16.310  18.640  12.020
 3530DOPG   C1B64221  16.160  19.300  13.690
 3530DOPG   D2B64222  16.620  19.470  13.740
 3530DOPG   C3B64223  16.750  19.850  13.980
 3530DOPG   C4B64224  17.000  20.150  14.140
 3531DOPG   GL064225   4.920   9.230  18.030
 3531DOPG   PO464226   4.690   9.340  18.410
 3531DOPG   GL164227   4.870   9.600  18.330
 3531DOPG   GL264228   5.220   9.540  18.350
 3531DOPG   C1A64229   4.920   9.780  17.940
 3531DOPG   D2A64230   5.170  10.130  17.800
 3531DOPG   C3A64231   5.400  10.080  17.410
 3531DOPG   C4A64232   5.660  10.290  17.300
 3531DOPG   C1B64233   5.420   9.620  17.980
 3531DOPG   D2B64234   5.610  10.050  17.880
 3531DOPG   C3B64235   5.880  10.410  17.770
 3531DOPG   C4B64236   6.090  10.700  17.460
 3532DOPG   GL064237   9.250  20.480  15.720
 3532DOPG   PO464238   9.000  20.700  15.460
 3532DOPG   GL164239   8.620  20.710  15.500
 3532DOPG   GL264240   8.580  20.450  15.340
 3532DOPG   C1A64241   8.210  20.860  15.590
 3532DOPG   D2A64242   8.050  20.750  15.950
 3532DOPG   C3A64243   8.340  20.860  16.320
 3532DOPG   C4A64244   8.820  21.010  16.410
 3532DOPG   C1B64245   8.160  20.390  15.480
 3532DOPG   D2B64246   7.810  20.500  15.520
 3532DOPG   C3B64247   7.720  20.830  15.160
 3532DOPG   C4B64248   7.800  21.130  14.860
 3533DOPG   GL064249  14.220  20.210  15.960
 3533DOPG   PO464250  14.540  20.470  16.320
 3533DOPG   GL164251  14.830  20.590  16.570
 3533DOPG   GL264252  14.940  20.820  16.340
 3533DOPG   C1A64253  15.330  20.640  16.760
 3533DOPG   D2A64254  15.650  20.360  16.680
 3533DOPG   C3A64255  15.700  20.050  16.960
 3533DOPG   C4A64256  15.700  19.610  16.980
 3533DOPG   C1B64257  15.210  20.920  16.070
 3533DOPG   D2B64258  15.490  21.240  15.990
 3533DOPG   C3B64259  15.490  21.420  15.580
 3533DOPG   C4B64260  15.520  21.260  15.250
 3534DOPG   GL064261   9.770  31.290  11.790
 3534DOPG   PO464262  10.030  30.940  11.580
 3534DOPG   GL164263   9.950  30.500  11.570
 3534DOPG   GL264264   9.650  30.250  11.410
 3534DOPG   C1A64265  10.140  30.070  11.580
 3534DOPG   D2A64266  10.460  29.670  11.620
 3534DOPG   C3A64267  10.370  29.290  11.650
 3534DOPG   C4A64268   9.950  29.020  11.600
 3534DOPG   C1B64269   9.660  29.950  11.750
 3534DOPG   D2B64270   9.850  29.760  12.130
 3534DOPG   C3B64271  10.240  29.490  12.040
 3534DOPG   C4B64272  10.530  29.000  12.010
 3535DOPG   GL064273  36.000  13.890  10.280
 3535DOPG   PO464274  35.890  13.690  10.750
 3535DOPG   GL164275  36.030  13.980  11.020
 3535DOPG   GL264276  36.060  14.230  11.180
 3535DOPG   C1A64277   0.000  14.130  10.730
 3535DOPG   D2A64278  36.270  14.320  10.320
 3535DOPG   C3A64279   0.260  14.620  10.270
 3535DOPG   C4A64280   0.260  15.020   9.960
 3535DOPG   C1B64281  36.130  14.720  11.030
 3535DOPG   D2B64282  36.160  15.090  11.110
 3535DOPG   C3B64283   0.080  15.210  11.410
 3535DOPG   C4B64284   0.300  15.370  11.710
 3536DOPG   GL064285   6.740  24.690  21.150
 3536DOPG   PO464286   7.170  24.950  21.090
 3536DOPG   GL164287   7.100  25.370  21.090
 3536DOPG   GL264288   6.740  25.410  21.170
 3536DOPG   C1A64289   7.090  25.870  21.110
 3536DOPG   D2A64290   7.180  26.320  21.180
 3536DOPG   C3A64291   6.900  26.640  21.350
 3536DOPG   C4A64292   6.730  26.940  21.620
 3536DOPG   C1B64293   6.760  25.720  21.530
 3536DOPG   D2B64294   6.730  26.140  21.530
 3536DOPG   C3B64295   6.800  26.270  21.910
 3536DOPG   C4B64296   7.140  26.570  22.050
 3537DOPG   GL064297  13.370  16.020  13.650
 3537DOPG   PO464298  13.260  15.540  13.900
 3537DOPG   GL164299  13.610  15.370  13.880
 3537DOPG   GL264300  13.610  15.120  14.060
 3537DOPG   C1A64301  13.860  15.150  13.470
 3537DOPG   D2A64302  13.950  14.920  13.070
 3537DOPG   C3A64303  13.730  14.790  12.700
 3537DOPG   C4A64304  13.660  14.370  12.430
 3537DOPG   C1B64305  13.780  14.750  14.210
 3537DOPG   D2B64306  14.240  14.460  14.190
 3537DOPG   C3B64307  14.260  14.300  14.560
 3537DOPG   C4B64308  14.540  14.330  14.920
 3538DOPG   GL064309  14.670  20.860  14.910
 3538DOPG   PO464310  14.400  21.130  15.070
 3538DOPG   GL164311  14.730  21.390  15.260
 3538DOPG   GL264312  14.580  21.620  15.440
 3538DOPG   C1A64313  15.090  21.570  15.240
 3538DOPG   D2A64314  15.400  21.800  15.150
 3538DOPG   C3A64315  15.710  21.850  15.310
 3538DOPG   C4A64316  16.100  22.110  15.460
 3538DOPG   C1B64317  14.930  21.930  15.520
 3538DOPG   D2B64318  15.260  22.070  15.560
 3538DOPG   C3B64319  15.640  21.840  15.820
 3538DOPG   C4B64320  15.990  21.620  16.020
 3539DOPG   GL064321   1.110  10.930  16.170
 3539DOPG   PO464322   1.210  11.000  15.820
 3539DOPG   GL164323   1.530  11.400  15.850
 3539DOPG   GL264324   1.680  11.160  15.540
 3539DOPG   C1A64325   1.600  11.820  15.880
 3539DOPG   D2A64326   1.930  12.130  15.760
 3539DOPG   C3A64327   2.210  12.130  15.410
 3539DOPG   C4A64328   2.600  12.180  15.100
 3539DOPG   C1B64329   2.010  11.370  15.250
 3539DOPG   D2B64330   2.290  11.070  15.110
 3539DOPG   C3B64331   2.740  11.200  14.920
 3539DOPG   C4B64332   3.080  11.130  14.960
 3540DOPG   GL064333   2.280  19.250  12.310
 3540DOPG   PO464334   2.070  19.210  11.990
 3540DOPG   GL164335   1.780  18.940  11.870
 3540DOPG   GL264336   1.670  18.920  11.660
 3540DOPG   C1A64337   1.310  18.750  11.970
 3540DOPG   D2A64338   0.890  18.870  11.990
 3540DOPG   C3A64339   0.620  18.990  12.340
 3540DOPG   C4A64340   0.140  19.280  12.360
 3540DOPG   C1B64341   1.230  19.070  11.370
 3540DOPG   D2B64342   0.770  19.100  11.490
 3540DOPG   C3B64343   0.490  18.930  11.550
 3540DOPG   C4B64344   0.330  18.540  11.460
 3541DOPG   GL064345   9.600  17.250  12.120
 3541DOPG   PO464346   9.490  17.610  12.360
 3541DOPG   GL164347   9.130  17.450  12.200
 3541DOPG   GL264348   9.060  17.740  12.110
 3541DOPG   C1A64349   8.800  17.250  11.820
 3541DOPG   D2A64350   8.310  17.360  11.710
 3541DOPG   C3A64351   7.880  17.230  11.940
 3541DOPG   C4A64352   7.590  16.980  12.270
 3541DOPG   C1B64353   8.990  17.730  11.750
 3541DOPG   D2B64354   8.860  17.740  11.390
 3541DOPG   C3B64355   8.580  18.040  11.240
 3541DOPG   C4B64356   8.460  18.440  11.370
 3542DOPG   GL064357  12.260  23.240  20.430
 3542DOPG   PO464358  12.680  23.420  20.410
 3542DOPG   GL164359  12.670  23.120  20.090
 3542DOPG   GL264360  12.550  23.150  19.660
 3542DOPG   C1A64361  12.530  22.750  19.930
 3542DOPG   D2A64362  12.190  22.470  19.830
 3542DOPG   C3A64363  12.140  22.320  19.540
 3542DOPG   C4A64364  12.180  22.210  19.140
 3542DOPG   C1B64365  12.400  23.390  19.440
 3542DOPG   D2B64366  12.630  23.750  19.360
 3542DOPG   C3B64367  12.320  24.090  19.280
 3542DOPG   C4B64368  11.890  24.030  19.030
 3543DOPG   GL064369  12.020  22.720  16.390
 3543DOPG   PO464370  11.630  22.580  16.350
 3543DOPG   GL164371  11.320  22.950  16.290
 3543DOPG   GL264372  11.280  23.180  15.940
 3543DOPG   C1A64373  11.220  23.440  16.350
 3543DOPG   D2A64374  11.190  23.900  16.430
 3543DOPG   C3A64375  10.830  24.120  16.550
 3543DOPG   C4A64376  10.480  24.350  16.670
 3543DOPG   C1B64377  10.940  23.500  15.860
 3543DOPG   D2B64378  10.640  23.420  15.620
 3543DOPG   C3B64379  10.340  23.790  15.580
 3543DOPG   C4B64380  10.180  24.120  15.350
 3544DOPG   GL064381   4.420  15.480  24.800
 3544DOPG   PO464382   4.820  15.440  24.810
 3544DOPG   GL164383   5.060  15.470  24.440
 3544DOPG   GL264384   5.270  15.280  24.270
 3544DOPG   C1A64385   4.830  15.610  24.080
 3544DOPG   D2A64386   4.740  15.930  23.740
 3544DOPG   C3A64387   4.490  16.100  23.670
 3544DOPG   C4A64388   4.450  16.480  23.860
 3544DOPG   C1B64389   5.360  15.620  24.040
 3544DOPG   D2B64390   5.340  16.090  23.890
 3544DOPG   C3B64391   5.550  16.500  23.930
 3544DOPG   C4B64392   5.700  16.700  23.490
 3545DOPG   GL064393  11.340  26.100  12.980
 3545DOPG   PO464394  10.870  25.880  13.250
 3545DOPG   GL164395  10.760  25.530  13.500
 3545DOPG   GL264396  11.040  25.340  13.470
 3545DOPG   C1A64397  10.440  25.410  13.700
 3545DOPG   D2A64398  10.060  25.320  13.970
 3545DOPG   C3A64399   9.990  24.950  14.170
 3545DOPG   C4A64400  10.100  24.540  13.890
 3545DOPG   C1B64401  11.330  24.890  13.510
 3545DOPG   D2B64402  11.340  24.590  13.260
 3545DOPG   C3B64403  11.410  24.670  12.870
 3545DOPG   C4B64404  11.270  24.840  12.450
 3546DOPG   GL064405  18.310  27.750  21.890
 3546DOPG   PO464406  18.000  27.680  21.720
 3546DOPG   GL164407  17.770  27.360  21.550
 3546DOPG   GL264408  17.420  27.250  21.650
 3546DOPG   C1A64409  17.890  27.130  21.190
 3546DOPG   D2A64410  17.760  27.410  20.840
 3546DOPG   C3A64411  17.390  27.250  20.850
 3546DOPG   C4A64412  17.050  27.050  20.740
 3546DOPG   C1B64413  17.240  27.120  21.320
 3546DOPG   D2B64414  17.440  26.780  21.110
 3546DOPG   C3B64415  17.170  26.590  20.790
 3546DOPG   C4B64416  16.890  26.510  20.500
 3547DOPG   GL064417  17.260  21.590  24.940
 3547DOPG   PO464418  17.450  21.340  24.560
 3547DOPG   GL164419  17.330  21.080  24.270
 3547DOPG   GL264420  17.380  20.730  24.150
 3547DOPG   C1A64421  17.030  20.990  23.930
 3547DOPG   D2A64422  16.970  20.700  23.600
 3547DOPG   C3A64423  16.580  20.700  23.420
 3547DOPG   C4A64424  16.390  20.600  23.030
 3547DOPG   C1B64425  17.400  20.400  23.930
 3547DOPG   D2B64426  17.210  19.960  23.870
 3547DOPG   C3B64427  17.020  20.030  23.540
 3547DOPG   C4B64428  16.820  19.950  23.110
 3548DOPG   GL064429   2.850  24.530  15.340
 3548DOPG   PO464430   3.090  24.880  15.280
 3548DOPG   GL164431   2.880  25.280  15.110
 3548DOPG   GL264432   2.580  25.290  15.150
 3548DOPG   C1A64433   2.880  25.630  15.420
 3548DOPG   D2A64434   3.000  26.090  15.320
 3548DOPG   C3A64435   3.160  26.330  15.660
 3548DOPG   C4A64436   3.400  26.450  15.980
 3548DOPG   C1B64437   2.290  25.580  15.140
 3548DOPG   D2B64438   1.940  25.800  15.100
 3548DOPG   C3B64439   1.630  26.120  15.410
 3548DOPG   C4B64440   1.630  26.530  15.480
 3549DOPG   GL064441  34.760  16.960  12.570
 3549DOPG   PO464442  34.670  16.570  12.590
 3549DOPG   GL164443  34.960  16.790  12.980
 3549DOPG   GL264444  35.080  17.090  12.970
 3549DOPG   C1A64445  35.050  16.510  13.300
 3549DOPG   D2A64446  35.080  16.250  13.610
 3549DOPG   C3A64447  35.320  16.370  13.980
 3549DOPG   C4A64448  35.660  16.190  14.320
 3549DOPG   C1B64449  35.430  16.920  12.980
 3549DOPG   D2B64450  35.810  17.180  13.030
 3549DOPG   C3B64451  35.790  17.570  13.170
 3549DOPG   C4B64452  35.600  18.020  13.290
 3550DOPG   GL064453   8.260  22.380  19.640
 3550DOPG   PO464454   8.380  22.890  19.670
 3550DOPG   GL164455   8.700  22.520  19.530
 3550DOPG   GL264456   8.830  22.190  19.580
 3550DOPG   C1A64457   9.060  22.800  19.250
 3550DOPG   D2A64458   9.510  22.900  19.180
 3550DOPG   C3A64459   9.810  22.690  18.900
 3550DOPG   C4A64460   9.630  22.430  18.570
 3550DOPG   C1B64461   9.000  22.280  19.180
 3550DOPG   D2B64462   9.170  22.510  18.830
 3550DOPG   C3B64463   9.160  22.100  18.540
 3550DOPG   C4B64464   9.390  21.890  18.240
 3551DOPG   GL064465  10.230  19.750  12.680
 3551DOPG   PO464466  10.230  19.620  12.340
 3551DOPG   GL164467  10.230  19.900  11.990
 3551DOPG   GL264468  10.190  20.220  12.140
 3551DOPG   C1A64469   9.800  20.150  11.770
 3551DOPG   D2A64470   9.460  20.050  11.560
 3551DOPG   C3A64471   9.290  20.390  11.310
 3551DOPG   C4A64472   9.120  20.770  11.180
 3551DOPG   C1B64473  10.140  20.510  11.870
 3551DOPG   D2B64474   9.970  20.900  11.650
 3551DOPG   C3B64475   9.560  21.010  11.340
 3551DOPG   C4B64476   9.350  21.030  10.870
 3552DOPG   GL064477  22.400  14.030  10.270
 3552DOPG   PO464478  22.450  14.070  10.740
 3552DOPG   GL164479  22.090  14.280  10.610
 3552DOPG   GL264480  22.020  14.520  10.250
 3552DOPG   C1A64481  21.890  14.590  10.800
 3552DOPG   D2A64482  21.770  14.610  11.210
 3552DOPG   C3A64483  21.390  14.830  11.110
 3552DOPG   C4A64484  21.020  14.990  11.140
 3552DOPG   C1B64485  21.680  14.660  10.110
 3552DOPG   D2B64486  21.550  14.830  10.540
 3552DOPG   C3B64487  21.240  15.100  10.660
 3552DOPG   C4B64488  20.780  15.330  10.720
 3553DOPG   GL064489   3.360  23.370  19.260
 3553DOPG   PO464490   3.410  23.030  19.530
 3553DOPG   GL164491   3.140  23.240  19.790
 3553DOPG   GL264492   3.190  23.630  19.930
 3553DOPG   C1A64493   2.720  23.370  19.940
 3553DOPG   D2A64494   2.480  23.800  20.080
 3553DOPG   C3A64495   2.400  23.900  20.490
 3553DOPG   C4A64496   2.270  23.860  20.990
 3553DOPG   C1B64497   2.950  23.910  19.950
 3553DOPG   D2B64498   2.730  24.190  20.200
 3553DOPG   C3B64499   2.410  24.390  20.430
 3553DOPG   C4B64500   2.140  24.280  20.790
 3554DOPG   GL064501   7.970   8.680  20.290
 3554DOPG   PO464502   8.140   8.990  20.470
 3554DOPG   GL164503   8.200   9.290  20.160
 3554DOPG   GL264504   8.300   9.470  20.380
 3554DOPG   C1A64505   8.330   9.630  19.810
 3554DOPG   D2A64506   8.490  10.200  19.890
 3554DOPG   C3A64507   8.320  10.490  19.620
 3554DOPG   C4A64508   8.020  10.390  19.360
 3554DOPG   C1B64509   8.210   9.890  20.190
 3554DOPG   D2B64510   8.000  10.100  19.810
 3554DOPG   C3B64511   8.100   9.900  19.400
 3554DOPG   C4B64512   8.430   9.810  19.010
 3555DOPG   GL064513  18.590  10.960   7.940
 3555DOPG   PO464514  18.900  11.080   8.340
 3555DOPG   GL164515  18.540  11.290   8.450
 3555DOPG   GL264516  18.240  11.210   8.340
 3555DOPG   C1A64517  18.540  11.710   8.620
 3555DOPG   D2A64518  18.380  12.020   8.800
 3555DOPG   C3A64519  18.150  12.360   8.680
 3555DOPG   C4A64520  18.170  12.690   8.380
 3555DOPG   C1B64521  18.040  11.500   8.550
 3555DOPG   D2B64522  17.940  11.830   8.830
 3555DOPG   C3B64523  17.480  11.780   8.900
 3555DOPG   C4B64524  17.170  11.740   9.210
 3556DOPG   GL064525   3.550  24.650  11.520
 3556DOPG   PO464526   3.450  24.170  11.660
 3556DOPG   GL164527   3.330  24.190  11.220
 3556DOPG   GL264528   3.080  24.360  11.290
 3556DOPG   C1A64529   3.030  24.050  10.890
 3556DOPG   D2A64530   2.630  24.340  10.730
 3556DOPG   C3A64531   2.800  24.480  10.360
 3556DOPG   C4A64532   2.850  24.200  10.030
 3556DOPG   C1B64533   3.160  24.530  10.810
 3556DOPG   D2B64534   3.430  24.740  10.670
 3556DOPG   C3B64535   3.670  24.670  10.360
 3556DOPG   C4B64536   4.020  24.510  10.160
 3557DOPG   GL064537  11.080  16.020  12.860
 3557DOPG   PO464538  10.890  16.170  12.490
 3557DOPG   GL164539  10.810  15.810  12.320
 3557DOPG   GL264540  10.980  15.720  12.050
 3557DOPG   C1A64541  10.550  15.490  12.090
 3557DOPG   D2A64542  10.230  15.270  12.140
 3557DOPG   C3A64543   9.900  15.550  12.100
 3557DOPG   C4A64544   9.480  15.600  12.130
 3557DOPG   C1B64545  10.890  15.410  11.680
 3557DOPG   D2B64546  10.820  15.300  11.310
 3557DOPG   C3B64547  10.930  15.530  11.010
 3557DOPG   C4B64548  11.090  15.710  10.710
 3558DOPG   GL064549   4.700  11.550   6.820
 3558DOPG   PO464550   4.780  11.960   6.560
 3558DOPG   GL164551   5.200  12.160   6.870
 3558DOPG   GL264552   5.440  12.060   6.900
 3558DOPG   C1A64553   5.380  12.470   7.220
 3558DOPG   D2A64554   5.550  12.640   7.680
 3558DOPG   C3A64555   5.930  12.710   7.710
 3558DOPG   C4A64556   6.260  12.990   7.750
 3558DOPG   C1B64557   5.960  12.020   6.970
 3558DOPG   D2B64558   6.250  12.190   7.320
 3558DOPG   C3B64559   6.420  12.540   7.470
 3558DOPG   C4B64560   6.730  12.930   7.530
 3559DOPG   GL064561   5.690  21.030  13.540
 3559DOPG   PO464562   5.990  21.190  13.780
 3559DOPG   GL164563   6.230  20.920  13.750
 3559DOPG   GL264564   6.170  20.750  14.070
 3559DOPG   C1A64565   6.650  20.870  13.850
 3559DOPG   D2A64566   7.020  20.730  13.910
 3559DOPG   C3A64567   7.390  20.820  13.680
 3559DOPG   C4A64568   7.710  20.940  13.940
 3559DOPG   C1B64569   6.630  20.650  14.300
 3559DOPG   D2B64570   7.100  20.760  14.430
 3559DOPG   C3B64571   7.430  20.720  14.210
 3559DOPG   C4B64572   7.580  20.330  14.040
 3560DOPG   GL064573  12.120  16.350  13.090
 3560DOPG   PO464574  12.130  16.180  12.740
 3560DOPG   GL164575  12.240  15.840  12.470
 3560DOPG   GL264576  12.110  15.480  12.340
 3560DOPG   C1A64577  12.550  15.700  12.190
 3560DOPG   D2A64578  12.720  15.440  11.870
 3560DOPG   C3A64579  13.140  15.510  11.850
 3560DOPG   C4A64580  13.490  15.630  11.580
 3560DOPG   C1B64581  12.060  15.120  12.060
 3560DOPG   D2B64582  11.850  14.990  11.720
 3560DOPG   C3B64583  11.710  15.190  11.500
 3560DOPG   C4B64584  11.870  15.410  11.130
 3561DOPG   GL064585   4.290  23.080   5.000
 3561DOPG   PO464586   4.390  23.080   5.300
 3561DOPG   GL164587   4.640  22.700   5.440
 3561DOPG   GL264588   4.370  22.420   5.400
 3561DOPG   C1A64589   4.890  22.400   5.770
 3561DOPG   D2A64590   5.080  21.930   5.740
 3561DOPG   C3A64591   4.920  21.620   6.060
 3561DOPG   C4A64592   4.570  21.460   6.040
 3561DOPG   C1B64593   4.220  22.030   5.450
 3561DOPG   D2B64594   4.110  21.640   5.690
 3561DOPG   C3B64595   4.100  21.330   6.010
 3561DOPG   C4B64596   4.210  20.870   6.140
 3562DOPG   GL064597  14.100  16.770   7.410
 3562DOPG   PO464598  14.540  16.790   7.380
 3562DOPG   GL164599  14.660  16.890   6.990
 3562DOPG   GL264600  15.060  16.910   6.890
 3562DOPG   C1A64601  14.610  16.730   6.630
 3562DOPG   D2A64602  14.410  16.530   6.250
 3562DOPG   C3A64603  14.720  16.160   6.140
 3562DOPG   C4A64604  14.890  15.990   5.810
 3562DOPG   C1B64605  15.250  16.750   6.500
 3562DOPG   D2B64606  15.560  16.610   6.280
 3562DOPG   C3B64607  15.890  16.180   6.070
 3562DOPG   C4B64608  16.270  16.140   5.960
 3563DOPG   GL064609   5.910  22.250  14.300
 3563DOPG   PO464610   6.090  22.650  14.110
 3563DOPG   GL164611   6.370  22.640  14.430
 3563DOPG   GL264612   6.130  22.540  14.660
 3563DOPG   C1A64613   6.670  22.550  14.640
 3563DOPG   D2A64614   6.860  22.580  15.040
 3563DOPG   C3A64615   7.320  22.550  15.090
 3563DOPG   C4A64616   7.690  22.680  15.140
 3563DOPG   C1B64617   6.410  22.160  14.420
 3563DOPG   D2B64618   6.530  21.720  14.540
 3563DOPG   C3B64619   6.590  21.580  14.890
 3563DOPG   C4B64620   6.850  21.180  14.820
 3564DOPG   GL064621  12.720  18.990  17.800
 3564DOPG   PO464622  12.660  18.560  17.780
 3564DOPG   GL164623  12.840  18.570  18.120
 3564DOPG   GL264624  12.760  18.850  18.420
 3564DOPG   C1A64625  13.220  18.590  18.390
 3564DOPG   D2A64626  13.420  18.220  18.560
 3564DOPG   C3A64627  13.470  18.300  19.040
 3564DOPG   C4A64628  13.410  18.660  19.290
 3564DOPG   C1B64629  12.680  18.440  18.540
 3564DOPG   D2B64630  12.950  18.240  18.820
 3564DOPG   C3B64631  12.950  17.810  18.790
 3564DOPG   C4B64632  13.020  17.360  18.710
 3565DOPG   GL064633  16.970  31.120  16.510
 3565DOPG   PO464634  17.000  30.730  16.340
 3565DOPG   GL164635  16.860  30.320  16.500
 3565DOPG   GL264636  16.620  30.140  16.360
 3565DOPG   C1A64637  17.000  29.840  16.360
 3565DOPG   D2A64638  17.250  29.600  16.420
 3565DOPG   C3A64639  17.390  29.260  16.370
 3565DOPG   C4A64640  17.370  28.840  16.350
 3565DOPG   C1B64641  16.210  29.830  16.330
 3565DOPG   D2B64642  16.040  29.620  15.980
 3565DOPG   C3B64643  15.920  29.210  15.920
 3565DOPG   C4B64644  15.780  28.910  16.160
 3566DOPG   GL064645  18.040  21.910  11.620
 3566DOPG   PO464646  17.990  21.530  11.670
 3566DOPG   GL164647  17.650  21.460  11.600
 3566DOPG   GL264648  17.470  21.600  11.880
 3566DOPG   C1A64649  17.150  21.300  11.600
 3566DOPG   D2A64650  17.050  21.340  11.250
 3566DOPG   C3A64651  16.950  21.700  11.190
 3566DOPG   C4A64652  16.810  22.130  10.980
 3566DOPG   C1B64653  17.230  21.540  12.390
 3566DOPG   D2B64654  16.970  21.750  12.620
 3566DOPG   C3B64655  16.570  21.750  12.590
 3566DOPG   C4B64656  16.180  21.890  12.500
 3567DOPG   GL064657  35.260  22.800  20.350
 3567DOPG   PO464658  35.190  22.770  19.900
 3567DOPG   GL164659  35.670  22.880  19.810
 3567DOPG   GL264660  35.580  23.190  19.640
 3567DOPG   C1A64661  36.070  22.980  19.970
 3567DOPG   D2A64662   0.130  22.810  20.010
 3567DOPG   C3A64663   0.410  23.030  20.180
 3567DOPG   C4A64664   0.800  23.170  20.040
 3567DOPG   C1B64665  36.000  22.980  19.390
 3567DOPG   D2B64666  36.350  22.820  19.480
 3567DOPG   C3B64667   0.220  22.500  19.200
 3567DOPG   C4B64668   0.400  22.300  18.760
 3568DOPG   GL064669   6.920  17.360   9.310
 3568DOPG   PO464670   6.960  17.610   9.690
 3568DOPG   GL164671   7.390  17.650   9.800
 3568DOPG   GL264672   7.480  17.410   9.600
 3568DOPG   C1A64673   7.620  18.060  10.060
 3568DOPG   D2A64674   7.970  18.220  10.370
 3568DOPG   C3A64675   8.270  18.530  10.570
 3568DOPG   C4A64676   8.530  18.560  10.920
 3568DOPG   C1B64677   7.950  17.650   9.760
 3568DOPG   D2B64678   8.340  17.650   9.860
 3568DOPG   C3B64679   8.630  17.970  10.120
 3568DOPG   C4B64680   8.680  18.320  10.300
 3569DOPG   GL064681   1.470  29.520  17.610
 3569DOPG   PO464682   1.910  29.420  17.670
 3569DOPG   GL164683   2.060  28.960  17.580
 3569DOPG   GL264684   2.510  28.880  17.650
 3569DOPG   C1A64685   2.270  28.530  17.820
 3569DOPG   D2A64686   2.350  28.210  17.990
 3569DOPG   C3A64687   2.540  27.960  17.730
 3569DOPG   C4A64688   2.780  27.690  17.510
 3569DOPG   C1B64689   2.600  28.390  17.470
 3569DOPG   D2B64690   2.660  28.170  17.120
 3569DOPG   C3B64691   2.710  27.810  17.000
 3569DOPG   C4B64692   3.040  27.540  17.090
 3570DOPG   GL064693   0.410  15.170  20.560
 3570DOPG   PO464694   0.450  14.910  20.240
 3570DOPG   GL164695   0.590  15.260  20.020
 3570DOPG   GL264696   0.460  15.570  20.130
 3570DOPG   C1A64697   0.900  15.470  19.980
 3570DOPG   D2A64698   1.190  15.830  19.900
 3570DOPG   C3A64699   1.590  15.670  19.680
 3570DOPG   C4A64700   2.000  15.590  19.690
 3570DOPG   C1B64701   0.720  15.930  19.890
 3570DOPG   D2B64702   0.640  16.310  19.670
 3570DOPG   C3B64703   0.940  16.600  19.520
 3570DOPG   C4B64704   1.270  16.980  19.390
 3571DOPG   GL064705  10.240  22.000   8.080
 3571DOPG   PO464706   9.960  22.260   7.880
 3571DOPG   GL164707   9.820  22.400   7.500
 3571DOPG   GL264708   9.580  22.740   7.550
 3571DOPG   C1A64709   9.720  22.500   7.070
 3571DOPG   D2A64710   9.900  22.690   6.750
 3571DOPG   C3A64711   9.790  22.510   6.360
 3571DOPG   C4A64712   9.820  22.270   6.060
 3571DOPG   C1B64713   9.610  22.980   7.210
 3571DOPG   D2B64714   9.530  23.310   6.890
 3571DOPG   C3B64715   9.430  23.420   6.540
 3571DOPG   C4B64716   9.760  23.500   6.150
 3572DOPG   GL064717   5.330  18.830  15.870
 3572DOPG   PO464718   5.160  18.490  16.090
 3572DOPG   GL164719   5.610  18.370  15.990
 3572DOPG   GL264720   5.720  18.520  15.720
 3572DOPG   C1A64721   5.750  18.020  16.030
 3572DOPG   D2A64722   5.990  17.590  15.930
 3572DOPG   C3A64723   6.290  17.710  15.560
 3572DOPG   C4A64724   6.620  17.730  15.290
 3572DOPG   C1B64725   6.010  18.430  15.300
 3572DOPG   D2B64726   6.390  18.450  15.370
 3572DOPG   C3B64727   6.670  18.250  15.630
 3572DOPG   C4B64728   6.850  18.160  16.020
 3573DOPG   GL064729   8.500  14.480  19.190
 3573DOPG   PO464730   8.880  14.480  19.360
 3573DOPG   GL164731   9.130  14.690  19.050
 3573DOPG   GL264732   8.900  14.930  18.960
 3573DOPG   C1A64733   9.430  14.930  18.940
 3573DOPG   D2A64734   9.590  15.180  18.700
 3573DOPG   C3A64735   9.680  15.470  18.420
 3573DOPG   C4A64736   9.770  15.470  17.970
 3573DOPG   C1B64737   8.650  15.190  18.710
 3573DOPG   D2B64738   8.510  15.500  18.450
 3573DOPG   C3B64739   8.450  15.430  18.010
 3573DOPG   C4B64740   8.620  15.620  17.630
 3574DOPG   GL064741   8.100   9.580   7.010
 3574DOPG   PO464742   7.790   9.410   7.340
 3574DOPG   GL164743   8.000   9.770   7.640
 3574DOPG   GL264744   8.270   9.820   7.480
 3574DOPG   C1A64745   8.210  10.110   7.940
 3574DOPG   D2A64746   8.420  10.390   8.300
 3574DOPG   C3A64747   8.210  10.710   8.670
 3574DOPG   C4A64748   8.080  10.970   9.040
 3574DOPG   C1B64749   8.680   9.680   7.670
 3574DOPG   D2B64750   9.100   9.670   7.760
 3574DOPG   C3B64751   9.370   9.880   7.450
 3574DOPG   C4B64752   9.650  10.180   7.320
 3575DOPG   GL064753  10.090  17.670  16.850
 3575DOPG   PO464754   9.720  17.550  17.010
 3575DOPG   GL164755   9.490  17.260  17.390
 3575DOPG   GL264756   9.600  17.520  17.620
 3575DOPG   C1A64757   9.580  16.930  17.600
 3575DOPG   D2A64758   9.730  16.740  18.020
 3575DOPG   C3A64759  10.020  16.840  18.210
 3575DOPG   C4A64760  10.410  17.010  18.360
 3575DOPG   C1B64761   9.200  17.270  17.830
 3575DOPG   D2B64762   9.000  17.110  18.300
 3575DOPG   C3B64763   8.650  17.290  18.590
 3575DOPG   C4B64764   8.530  17.710  18.670
 3576DOPG   GL064765  10.280  24.720  11.290
 3576DOPG   PO464766  10.040  24.510  10.960
 3576DOPG   GL164767  10.060  24.200  11.240
 3576DOPG   GL264768  10.090  24.370  11.600
 3576DOPG   C1A64769  10.370  23.910  11.310
 3576DOPG   D2A64770  10.540  23.760  11.690
 3576DOPG   C3A64771  10.710  23.500  12.020
 3576DOPG   C4A64772  11.040  23.260  12.240
 3576DOPG   C1B64773  10.490  24.240  11.890
 3576DOPG   D2B64774  10.780  24.080  11.920
 3576DOPG   C3B64775  11.040  23.820  12.170
 3576DOPG   C4B64776  11.340  23.680  12.440
 3577DOPG   GL064777   9.140  26.960   6.130
 3577DOPG   PO464778   9.380  27.080   6.400
 3577DOPG   GL164779   9.220  26.850   6.760
 3577DOPG   GL264780   9.240  26.430   6.810
 3577DOPG   C1A64781   9.270  26.880   7.190
 3577DOPG   D2A64782   9.140  26.530   7.450
 3577DOPG   C3A64783   8.810  26.440   7.200
 3577DOPG   C4A64784   8.430  26.630   7.010
 3577DOPG   C1B64785   9.340  26.150   7.110
 3577DOPG   D2B64786   9.300  26.040   7.470
 3577DOPG   C3B64787   9.780  25.920   7.620
 3577DOPG   C4B64788   9.860  25.420   7.740
 3578DOPG   GL064789   6.830  15.100   3.700
 3578DOPG   PO464790   6.590  15.180   4.050
 3578DOPG   GL164791   6.650  15.380   4.400
 3578DOPG   GL264792   6.530  15.690   4.360
 3578DOPG   C1A64793   7.110  15.360   4.630
 3578DOPG   D2A64794   7.370  15.640   4.900
 3578DOPG   C3A64795   7.370  15.690   5.360
 3578DOPG   C4A64796   7.460  15.510   5.720
 3578DOPG   C1B64797   6.880  15.780   4.760
 3578DOPG   D2B64798   7.070  16.010   5.120
 3578DOPG   C3B64799   7.140  16.410   4.890
 3578DOPG   C4B64800   7.210  16.820   4.990
 3579DOPG   GL064801   6.580  30.840  10.420
 3579DOPG   PO464802   6.860  30.530  10.530
 3579DOPG   GL164803   6.850  30.130  10.820
 3579DOPG   GL264804   7.070  29.910  10.830
 3579DOPG   C1A64805   6.760  29.850  11.220
 3579DOPG   D2A64806   6.810  29.460  11.510
 3579DOPG   C3A64807   6.890  29.080  11.480
 3579DOPG   C4A64808   7.010  28.580  11.590
 3579DOPG   C1B64809   7.360  29.580  10.850
 3579DOPG   D2B64810   7.610  29.290  11.080
 3579DOPG   C3B64811   7.630  28.920  11.080
 3579DOPG   C4B64812   7.490  28.720  11.430
 3580DOPG   GL064813  14.490   9.010   8.600
 3580DOPG   PO464814  14.470   9.040   8.190
 3580DOPG   GL164815  14.170   9.400   8.370
 3580DOPG   GL264816  14.010   9.440   8.090
 3580DOPG   C1A64817  13.930   9.690   8.690
 3580DOPG   D2A64818  13.800   9.600   9.060
 3580DOPG   C3A64819  13.490   9.860   9.100
 3580DOPG   C4A64820  13.410  10.160   9.410
 3580DOPG   C1B64821  13.650   9.720   8.220
 3580DOPG   D2B64822  13.460   9.900   8.560
 3580DOPG   C3B64823  13.420  10.340   8.800
 3580DOPG   C4B64824  13.110  10.800   8.610
 3581DOPG   GL064825   4.930  19.780  17.520
 3581DOPG   PO464826   5.190  19.960  17.270
 3581DOPG   GL164827   5.570  20.000  17.210
 3581DOPG   GL264828   5.510  20.110  16.920
 3581DOPG   C1A64829   5.860  20.320  17.290
 3581DOPG   D2A64830   6.160  20.590  17.470
 3581DOPG   C3A64831   6.530  20.560  17.750
 3581DOPG   C4A64832   6.890  20.620  17.960
 3581DOPG   C1B64833   5.940  19.940  16.880
 3581DOPG   D2B64834   6.240  19.820  16.630
 3581DOPG   C3B64835   6.510  20.090  16.460
 3581DOPG   C4B64836   6.710  20.460  16.360
 3582DOPG   GL064837  13.960  16.400  13.890
 3582DOPG   PO464838  14.240  16.120  13.890
 3582DOPG   GL164839  14.410  15.700  13.870
 3582DOPG   GL264840  14.150  15.530  13.760
 3582DOPG   C1A64841  14.520  15.410  14.130
 3582DOPG   D2A64842  14.700  15.120  14.290
 3582DOPG   C3A64843  14.870  15.050  13.860
 3582DOPG   C4A64844  15.210  15.410  13.610
 3582DOPG   C1B64845  14.390  15.160  13.580
 3582DOPG   D2B64846  14.580  14.670  13.480
 3582DOPG   C3B64847  14.960  14.700  13.300
 3582DOPG   C4B64848  15.260  14.570  13.250
 3583DOPG   GL064849  20.830  27.160  13.230
 3583DOPG   PO464850  20.880  27.210  12.820
 3583DOPG   GL164851  20.520  26.940  12.880
 3583DOPG   GL264852  20.340  26.970  13.220
 3583DOPG   C1A64853  20.140  26.870  12.630
 3583DOPG   D2A64854  19.850  26.570  12.860
 3583DOPG   C3A64855  19.800  26.250  13.110
 3583DOPG   C4A64856  19.400  26.020  13.300
 3583DOPG   C1B64857  20.170  26.570  13.350
 3583DOPG   D2B64858  19.860  26.330  13.620
 3583DOPG   C3B64859  19.480  26.310  13.800
 3583DOPG   C4B64860  19.560  26.070  14.120
 3584DOPG   GL064861   7.090  20.760  10.370
 3584DOPG   PO464862   7.110  20.970  10.770
 3584DOPG   GL164863   7.160  20.660  10.950
 3584DOPG   GL264864   7.370  20.520  10.730
 3584DOPG   C1A64865   7.360  20.580  11.370
 3584DOPG   D2A64866   7.700  20.730  11.530
 3584DOPG   C3A64867   7.790  20.420  11.790
 3584DOPG   C4A64868   8.010  20.160  11.920
 3584DOPG   C1B64869   7.670  20.240  10.830
 3584DOPG   D2B64870   7.760  19.860  10.950
 3584DOPG   C3B64871   7.970  19.620  10.530
 3584DOPG   C4B64872   8.310  19.740  10.360
 3585DOPG   GL064873  11.610  17.480  11.940
 3585DOPG   PO464874  11.520  17.050  11.770
 3585DOPG   GL164875  11.570  16.650  11.520
 3585DOPG   GL264876  11.510  16.830  11.210
 3585DOPG   C1A64877  11.760  16.280  11.280
 3585DOPG   D2A64878  11.830  15.950  11.090
 3585DOPG   C3A64879  12.180  15.780  10.810
 3585DOPG   C4A64880  12.500  15.700  10.440
 3585DOPG   C1B64881  11.580  16.520  10.830
 3585DOPG   D2B64882  11.640  16.620  10.400
 3585DOPG   C3B64883  11.200  16.740  10.320
 3585DOPG   C4B64884  10.800  16.570  10.160
 3586DOPG   GL064885  13.390  16.380  15.100
 3586DOPG   PO464886  13.410  16.170  15.450
 3586DOPG   GL164887  13.440  15.860  15.870
 3586DOPG   GL264888  13.670  15.630  15.700
 3586DOPG   C1A64889  13.660  15.950  16.200
 3586DOPG   D2A64890  13.880  16.210  16.420
 3586DOPG   C3A64891  14.160  16.040  16.710
 3586DOPG   C4A64892  14.420  15.940  17.120
 3586DOPG   C1B64893  13.790  15.170  16.020
 3586DOPG   D2B64894  14.060  14.940  16.330
 3586DOPG   C3B64895  14.320  15.290  16.410
 3586DOPG   C4B64896  14.270  15.450  16.800
 3587DOPG   GL064897   1.260  28.850  16.470
 3587DOPG   PO464898   0.990  28.690  16.750
 3587DOPG   GL164899   1.320  28.330  16.660
 3587DOPG   GL264900   1.120  28.150  16.480
 3587DOPG   C1A64901   1.500  28.020  16.280
 3587DOPG   D2A64902   1.790  27.710  16.250
 3587DOPG   C3A64903   1.780  27.250  16.080
 3587DOPG   C4A64904   1.490  26.910  16.170
 3587DOPG   C1B64905   1.130  27.750  16.420
 3587DOPG   D2B64906   1.270  27.380  16.200
 3587DOPG   C3B64907   1.020  27.130  16.070
 3587DOPG   C4B64908   0.690  26.920  16.220
 3588DOPG   GL064909   3.180  26.450   8.070
 3588DOPG   PO464910   2.790  26.270   7.950
 3588DOPG   GL164911   2.870  26.100   8.470
 3588DOPG   GL264912   3.210  26.170   8.550
 3588DOPG   C1A64913   2.870  25.730   8.800
 3588DOPG   D2A64914   2.980  25.410   8.930
 3588DOPG   C3A64915   3.220  25.300   9.300
 3588DOPG   C4A64916   3.540  25.140   9.560
 3588DOPG   C1B64917   3.520  25.890   8.760
 3588DOPG   D2B64918   3.800  25.990   8.980
 3588DOPG   C3B64919   4.160  25.880   9.270
 3588DOPG   C4B64920   4.540  25.540   9.360
 3589DOPG   GL064921  14.560  24.380  25.570
 3589DOPG   PO464922  14.180  24.410  25.340
 3589DOPG   GL164923  14.180  24.240  24.860
 3589DOPG   GL264924  14.340  23.950  24.850
 3589DOPG   C1A64925  14.230  24.060  24.400
 3589DOPG   D2A64926  13.900  23.860  24.160
 3589DOPG   C3A64927  13.780  23.440  24.410
 3589DOPG   C4A64928  13.500  23.110  24.400
 3589DOPG   C1B64929  14.450  23.630  24.500
 3589DOPG   D2B64930  14.310  23.420  24.100
 3589DOPG   C3B64931  13.860  23.390  23.940
 3589DOPG   C4B64932  13.380  23.300  23.920
 3590DOPG   GL064933   3.920  31.030  16.570
 3590DOPG   PO464934   4.140  30.710  16.590
 3590DOPG   GL164935   4.440  30.370  16.390
 3590DOPG   GL264936   4.560  30.480  16.090
 3590DOPG   C1A64937   4.840  30.270  16.510
 3590DOPG   D2A64938   5.040  30.230  16.910
 3590DOPG   C3A64939   5.170  29.870  17.090
 3590DOPG   C4A64940   5.310  29.470  16.990
 3590DOPG   C1B64941   4.540  30.350  15.740
 3590DOPG   D2B64942   4.690  30.210  15.210
 3590DOPG   C3B64943   4.420  30.100  15.040
 3590DOPG   C4B64944   4.310  29.710  15.180
 3591DOPG   GL064945  17.060  29.290  18.820
 3591DOPG   PO464946  17.350  29.170  19.040
 3591DOPG   GL164947  17.300  28.700  19.000
 3591DOPG   GL264948  17.260  28.630  19.370
 3591DOPG   C1A64949  16.970  28.440  18.630
 3591DOPG   D2A64950  16.840  28.130  18.460
 3591DOPG   C3A64951  16.470  27.840  18.250
 3591DOPG   C4A64952  16.270  27.440  18.160
 3591DOPG   C1B64953  17.090  28.200  19.110
 3591DOPG   D2B64954  16.940  27.900  18.940
 3591DOPG   C3B64955  16.500  27.910  18.770
 3591DOPG   C4B64956  16.110  27.890  18.540
 3592DOPG   GL064957  13.170  14.960  14.880
 3592DOPG   PO464958  12.790  15.070  15.110
 3592DOPG   GL164959  13.020  14.860  15.330
 3592DOPG   GL264960  12.760  14.570  15.230
 3592DOPG   C1A64961  13.420  14.580  15.420
 3592DOPG   D2A64962  13.800  14.330  15.480
 3592DOPG   C3A64963  13.590  14.050  15.370
 3592DOPG   C4A64964  13.270  13.860  15.210
 3592DOPG   C1B64965  12.910  14.210  15.090
 3592DOPG   D2B64966  12.870  13.930  14.800
 3592DOPG   C3B64967  13.180  13.910  14.560
 3592DOPG   C4B64968  13.190  13.670  14.130
 3593DOPG   GL064969   0.220  18.740  21.220
 3593DOPG   PO464970  36.220  18.780  21.150
 3593DOPG   GL164971  36.080  18.860  20.720
 3593DOPG   GL264972  35.810  18.820  20.580
 3593DOPG   C1A64973  36.230  19.180  20.460
 3593DOPG   D2A64974   0.110  19.300  20.050
 3593DOPG   C3A64975  36.290  19.170  19.670
 3593DOPG   C4A64976  36.210  18.850  19.480
 3593DOPG   C1B64977  35.990  18.910  20.120
 3593DOPG   D2B64978  35.910  19.360  19.920
 3593DOPG   C3B64979  35.980  19.560  19.580
 3593DOPG   C4B64980  35.700  19.590  19.290
 3594DOPG   GL064981   3.160  29.690  12.610
 3594DOPG   PO464982   3.500  29.550  12.690
 3594DOPG   GL164983   3.740  29.160  12.500
 3594DOPG   GL264984   4.070  29.070  12.590
 3594DOPG   C1A64985   3.730  28.730  12.400
 3594DOPG   D2A64986   3.780  28.380  12.220
 3594DOPG   C3A64987   3.960  28.110  12.460
 3594DOPG   C4A64988   4.330  27.760  12.430
 3594DOPG   C1B64989   4.160  28.570  12.530
 3594DOPG   D2B64990   4.380  28.310  12.470
 3594DOPG   C3B64991   4.580  28.040  12.810
 3594DOPG   C4B64992   4.580  27.900  13.260
 3595DOPG   GL064993  12.150  13.680  19.970
 3595DOPG   PO464994  11.940  13.460  20.310
 3595DOPG   GL164995  12.120  13.260  20.640
 3595DOPG   GL264996  12.370  13.250  20.710
 3595DOPG   C1A64997  12.430  12.870  21.010
 3595DOPG   D2A64998  12.720  12.590  21.120
 3595DOPG   C3A64999  12.580  12.470  21.590
 3595DOPG   C4A65000  12.130  12.450  21.810
 3595DOPG   C1B65001  12.610  13.350  21.170
 3595DOPG   D2B65002  12.740  13.070  21.480
 3595DOPG   C3B65003  12.810  13.280  21.810
 3595DOPG   C4B65004  13.170  13.370  22.140
 3596DOPG   GL065005  10.580  13.480  25.290
 3596DOPG   PO465006  10.360  13.650  24.860
 3596DOPG   GL165007  10.280  14.040  24.770
 3596DOPG   GL265008  10.030  14.150  24.730
 3596DOPG   C1A65009  10.330  14.240  24.350
 3596DOPG   D2A65010  10.280  14.440  24.000
 3596DOPG   C3A65011  10.120  14.800  23.930
 3596DOPG   C4A65012   9.680  14.860  23.980
 3596DOPG   C1B65013   9.990  14.580  24.520
 3596DOPG   D2B65014   9.980  15.070  24.350
 3596DOPG   C3B65015   9.960  15.300  23.890
 3596DOPG   C4B65016   9.660  15.050  23.500
 3597DOPG   GL065017  16.270   8.230  18.640
 3597DOPG   PO465018  16.340   8.140  18.320
 3597DOPG   GL165019  16.110   8.550  18.310
 3597DOPG   GL265020  16.360   8.800  18.490
 3597DOPG   C1A65021  15.830   8.820  18.070
 3597DOPG   D2A65022  15.420   8.750  17.970
 3597DOPG   C3A65023  15.240   9.060  17.690
 3597DOPG   C4A65024  14.940   9.140  17.340
 3597DOPG   C1B65025  16.100   9.130  18.290
 3597DOPG   D2B65026  15.910   9.480  18.020
 3597DOPG   C3B65027  16.140   9.330  17.630
 3597DOPG   C4B65028  15.960   9.270  17.110
 3598DOPG   GL065029   9.010  16.040  14.030
 3598DOPG   PO465030   8.640  16.080  14.120
 3598DOPG   GL165031   8.570  15.870  13.730
 3598DOPG   GL265032   8.770  15.610  13.730
 3598DOPG   C1A65033   8.840  15.980  13.340
 3598DOPG   D2A65034   8.820  15.760  12.950
 3598DOPG   C3A65035   8.610  15.440  12.940
 3598DOPG   C4A65036   8.290  15.280  12.680
 3598DOPG   C1B65037   8.650  15.370  13.470
 3598DOPG   D2B65038   8.230  15.370  13.270
 3598DOPG   C3B65039   8.110  14.940  13.100
 3598DOPG   C4B65040   8.270  14.510  13.060
 3599DOPG   GL065041  13.890  17.920  12.010
 3599DOPG   PO465042  13.530  17.880  11.860
 3599DOPG   GL165043  13.590  17.680  11.430
 3599DOPG   GL265044  13.360  17.410  11.310
 3599DOPG   C1A65045  13.820  17.450  11.090
 3599DOPG   D2A65046  13.970  17.120  11.040
 3599DOPG   C3A65047  14.340  17.050  10.830
 3599DOPG   C4A65048  14.630  17.210  10.620
 3599DOPG   C1B65049  13.230  17.210  10.920
 3599DOPG   D2B65050  13.290  17.390  10.470
 3599DOPG   C3B65051  13.150  17.090  10.270
 3599DOPG   C4B65052  12.860  17.250   9.920
 3600DOPG   GL065053  10.880  14.360   8.830
 3600DOPG   PO465054  11.130  14.700   8.990
 3600DOPG   GL165055  11.080  14.990   9.320
 3600DOPG   GL265056  11.470  15.060   9.410
 3600DOPG   C1A65057  10.980  15.320   9.610
 3600DOPG   D2A65058  10.930  15.620  10.010
 3600DOPG   C3A65059  10.850  15.360  10.280
 3600DOPG   C4A65060  10.810  15.040  10.490
 3600DOPG   C1B65061  11.440  14.940   9.730
 3600DOPG   D2B65062  11.240  15.190  10.030
 3600DOPG   C3B65063  11.550  15.460  10.190
 3600DOPG   C4B65064  11.980  15.420  10.360
 3601DOPG   GL065065  14.200   6.700  14.590
 3601DOPG   PO465066  13.970   7.100  14.440
 3601DOPG   GL165067  13.970   7.610  14.630
 3601DOPG   GL265068  13.600   7.490  14.470
 3601DOPG   C1A65069  13.860   8.020  14.680
 3601DOPG   D2A65070  13.840   8.460  14.760
 3601DOPG   C3A65071  14.120   8.850  14.610
 3601DOPG   C4A65072  14.610   9.100  14.590
 3601DOPG   C1B65073  13.470   7.740  14.090
 3601DOPG   D2B65074  13.110   7.760  13.790
 3601DOPG   C3B65075  12.710   7.850  13.920
 3601DOPG   C4B65076  12.550   8.020  14.280
 3602DOPG   GL065077  11.890  22.810  13.550
 3602DOPG   PO465078  12.130  22.560  13.710
 3602DOPG   GL165079  12.390  22.870  13.480
 3602DOPG   GL265080  12.230  23.230  13.310
 3602DOPG   C1A65081  12.810  23.150  13.600
 3602DOPG   D2A65082  13.060  23.370  13.690
 3602DOPG   C3A65083  13.320  23.570  13.580
 3602DOPG   C4A65084  13.440  23.900  13.450
 3602DOPG   C1B65085  12.090  22.980  13.060
 3602DOPG   D2B65086  12.110  22.610  12.690
 3602DOPG   C3B65087  11.950  22.800  12.320
 3602DOPG   C4B65088  11.840  23.080  11.930
 3603DOPG   GL065089  35.810  23.590  20.590
 3603DOPG   PO465090  36.040  23.670  20.890
 3603DOPG   GL165091   0.090  23.570  20.930
 3603DOPG   GL265092   0.310  23.490  21.270
 3603DOPG   C1A65093   0.520  23.740  20.900
 3603DOPG   D2A65094   0.930  23.870  20.920
 3603DOPG   C3A65095   1.200  23.840  20.610
 3603DOPG   C4A65096   1.360  23.960  20.190
 3603DOPG   C1B65097   0.650  23.830  21.350
 3603DOPG   D2B65098   0.940  24.110  21.430
 3603DOPG   C3B65099   1.160  24.530  21.570
 3603DOPG   C4B65100   1.340  24.880  21.460
 3604DOPG   GL065101  10.740  22.030  15.090
 3604DOPG   PO465102  10.660  22.530  15.100
 3604DOPG   GL165103  10.700  22.890  14.780
 3604DOPG   GL265104  10.510  22.870  14.430
 3604DOPG   C1A65105  10.810  23.260  14.540
 3604DOPG   D2A65106  11.050  23.420  14.280
 3604DOPG   C3A65107  11.350  23.760  14.360
 3604DOPG   C4A65108  11.770  23.730  14.690
 3604DOPG   C1B65109  10.200  22.940  14.050
 3604DOPG   D2B65110   9.980  23.190  13.800
 3604DOPG   C3B65111   9.670  23.560  13.900
 3604DOPG   C4B65112   9.330  23.530  14.160
 3605DOPG   GL065113  17.370   8.030  13.470
 3605DOPG   PO465114  17.280   8.300  13.820
 3605DOPG   GL165115  17.210   8.700  13.720
 3605DOPG   GL265116  16.990   8.680  13.520
 3605DOPG   C1A65117  17.090   9.000  13.980
 3605DOPG   D2A65118  17.130   9.370  14.250
 3605DOPG   C3A65119  16.760   9.710  14.230
 3605DOPG   C4A65120  16.640   9.990  13.940
 3605DOPG   C1B65121  17.050   9.260  13.540
 3605DOPG   D2B65122  17.170   9.630  13.380
 3605DOPG   C3B65123  17.020   9.930  13.180
 3605DOPG   C4B65124  17.040  10.310  12.900
 3606DOPG   GL065125  33.730  19.260  12.470
 3606DOPG   PO465126  33.930  19.020  12.810
 3606DOPG   GL165127  34.340  19.080  12.970
 3606DOPG   GL265128  34.450  18.800  13.090
 3606DOPG   C1A65129  34.700  19.400  13.080
 3606DOPG   D2A65130  34.970  19.800  13.220
 3606DOPG   C3A65131  35.290  19.890  12.940
 3606DOPG   C4A65132  35.650  19.670  12.870
 3606DOPG   C1B65133  34.950  18.880  13.300
 3606DOPG   D2B65134  35.490  18.980  13.290
 3606DOPG   C3B65135  35.830  18.860  12.960
 3606DOPG   C4B65136  36.180  18.620  12.950
 3607DOPG   GL065137  16.440  24.340  18.200
 3607DOPG   PO465138  16.750  24.650  18.420
 3607DOPG   GL165139  17.010  24.920  18.700
 3607DOPG   GL265140  17.180  24.860  18.980
 3607DOPG   C1A65141  17.030  25.350  18.930
 3607DOPG   D2A65142  17.090  25.580  19.300
 3607DOPG   C3A65143  16.880  26.000  19.560
 3607DOPG   C4A65144  16.880  26.220  20.000
 3607DOPG   C1B65145  17.450  25.080  19.200
 3607DOPG   D2B65146  17.920  25.060  19.250
 3607DOPG   C3B65147  18.240  25.190  19.300
 3607DOPG   C4B65148  18.610  25.290  19.180
 3608DOPG   GL065149   9.460  26.890  24.290
 3608DOPG   PO465150   9.520  26.670  24.700
 3608DOPG   GL165151   9.550  26.430  24.430
 3608DOPG   GL265152   9.490  26.110  24.520
 3608DOPG   C1A65153   9.670  26.550  24.040
 3608DOPG   D2A65154   9.490  26.920  23.740
 3608DOPG   C3A65155   9.280  26.800  23.360
 3608DOPG   C4A65156   9.650  26.810  23.090
 3608DOPG   C1B65157   9.650  26.080  24.040
 3608DOPG   D2B65158   9.580  26.250  23.590
 3608DOPG   C3B65159   9.830  26.630  23.530
 3608DOPG   C4B65160  10.080  26.850  23.850
 3609DOPG   GL065161   2.450  26.470  23.080
 3609DOPG   PO465162   2.840  26.300  23.310
 3609DOPG   GL165163   2.760  26.020  22.960
 3609DOPG   GL265164   2.580  26.130  22.700
 3609DOPG   C1A65165   2.940  25.800  22.650
 3609DOPG   D2A65166   3.130  25.510  22.360
 3609DOPG   C3A65167   3.360  25.090  22.470
 3609DOPG   C4A65168   3.750  24.780  22.210
 3609DOPG   C1B65169   2.520  25.920  22.400
 3609DOPG   D2B65170   2.670  25.550  22.120
 3609DOPG   C3B65171   2.960  25.420  21.910
 3609DOPG   C4B65172   3.010  25.210  21.430
 3610DOPG   GL065173  13.000  16.180  13.070
 3610DOPG   PO465174  13.020  15.860  13.350
 3610DOPG   GL165175  13.360  15.560  13.390
 3610DOPG   GL265176  13.620  15.590  13.420
 3610DOPG   C1A65177  13.460  15.180  13.160
 3610DOPG   D2A65178  13.150  14.940  12.930
 3610DOPG   C3A65179  13.080  14.860  12.570
 3610DOPG   C4A65180  13.300  14.730  12.300
 3610DOPG   C1B65181  14.010  15.590  13.290
 3610DOPG   D2B65182  14.360  15.510  13.160
 3610DOPG   C3B65183  14.440  14.980  13.100
 3610DOPG   C4B65184  14.630  14.730  12.800
 3611DOPG   GL065185  19.750  12.470  20.210
 3611DOPG   PO465186  19.500  12.050  20.320
 3611DOPG   GL165187  19.230  12.260  20.160
 3611DOPG   GL265188  18.910  12.000  20.090
 3611DOPG   C1A65189  19.010  12.540  19.980
 3611DOPG   D2A65190  18.700  12.830  19.700
 3611DOPG   C3A65191  19.130  13.090  19.680
 3611DOPG   C4A65192  19.190  13.330  19.310
 3611DOPG   C1B65193  18.610  12.200  19.830
 3611DOPG   D2B65194  18.120  12.460  19.800
 3611DOPG   C3B65195  17.690  12.150  19.740
 3611DOPG   C4B65196  17.380  11.830  19.640
 3612DOPG   GL065197  11.630  19.930  26.680
 3612DOPG   PO465198  11.520  19.590  26.980
 3612DOPG   GL165199  11.430  19.430  26.660
 3612DOPG   GL265200  11.190  19.720  26.490
 3612DOPG   C1A65201  11.360  19.060  26.510
 3612DOPG   D2A65202  11.540  18.730  26.180
 3612DOPG   C3A65203  11.520  18.860  25.690
 3612DOPG   C4A65204  11.350  18.820  25.220
 3612DOPG   C1B65205  11.410  19.710  26.180
 3612DOPG   D2B65206  11.500  19.890  25.800
 3612DOPG   C3B65207  11.630  19.690  25.480
 3612DOPG   C4B65208  11.620  19.600  25.090
 3613DOPG   GL065209  16.500   8.470  10.700
 3613DOPG   PO465210  16.640   8.850  10.470
 3613DOPG   GL165211  16.440   9.170  10.760
 3613DOPG   GL265212  16.200   8.900  10.820
 3613DOPG   C1A65213  16.570   9.470  11.070
 3613DOPG   D2A65214  16.590   9.900  10.890
 3613DOPG   C3A65215  16.910  10.170  10.760
 3613DOPG   C4A65216  17.120  10.240  10.260
 3613DOPG   C1B65217  16.240   9.120  11.260
 3613DOPG   D2B65218  16.100   9.160  11.630
 3613DOPG   C3B65219  15.680   9.390  11.480
 3613DOPG   C4B65220  15.260   9.240  11.320
 3614DOPG   GL065221  15.500  28.870   8.230
 3614DOPG   PO465222  15.400  28.470   8.320
 3614DOPG   GL165223  15.060  28.180   8.340
 3614DOPG   GL265224  15.210  27.870   8.310
 3614DOPG   C1A65225  14.830  27.940   8.680
 3614DOPG   D2A65226  14.870  27.630   8.950
 3614DOPG   C3A65227  14.630  27.610   9.280
 3614DOPG   C4A65228  14.590  27.350   9.710
 3614DOPG   C1B65229  15.010  27.520   8.250
 3614DOPG   D2B65230  14.930  27.250   8.490
 3614DOPG   C3B65231  14.750  27.040   8.800
 3614DOPG   C4B65232  14.760  26.870   9.340
 3615DOPG   GL065233  13.850  16.550  15.290
 3615DOPG   PO465234  14.150  16.260  15.340
 3615DOPG   GL165235  14.130  15.910  15.600
 3615DOPG   GL265236  14.430  16.130  15.750
 3615DOPG   C1A65237  14.010  15.640  16.000
 3615DOPG   D2A65238  13.860  15.510  16.410
 3615DOPG   C3A65239  13.670  15.270  16.770
 3615DOPG   C4A65240  13.400  15.000  17.130
 3615DOPG   C1B65241  14.760  16.040  16.040
 3615DOPG   D2B65242  15.110  16.270  16.290
 3615DOPG   C3B65243  15.530  16.040  16.200
 3615DOPG   C4B65244  15.630  15.790  15.920
 3616DOPG   GL065245   0.750  21.570   7.290
 3616DOPG   PO465246   0.990  22.020   7.400
 3616DOPG   GL165247   1.110  21.940   7.830
 3616DOPG   GL265248   0.930  22.120   8.100
 3616DOPG   C1A65249   1.240  21.850   8.330
 3616DOPG   D2A65250   1.080  22.030   8.600
 3616DOPG   C3A65251   1.360  22.160   8.830
 3616DOPG   C4A65252   1.540  22.400   9.070
 3616DOPG   C1B65253   0.860  22.510   8.350
 3616DOPG   D2B65254   0.830  22.450   8.770
 3616DOPG   C3B65255   1.030  22.680   9.130
 3616DOPG   C4B65256   0.920  22.870   9.530
 3617DOPG   GL065257  11.050  26.070   4.740
 3617DOPG   PO465258  11.230  25.990   5.130
 3617DOPG   GL165259  11.140  25.840   5.560
 3617DOPG   GL265260  10.980  25.460   5.490
 3617DOPG   C1A65261  11.100  25.670   5.930
 3617DOPG   D2A65262  11.130  25.370   6.270
 3617DOPG   C3A65263  11.290  25.190   6.600
 3617DOPG   C4A65264  11.650  24.920   6.690
 3617DOPG   C1B65265  11.130  25.210   5.760
 3617DOPG   D2B65266  11.070  24.710   5.750
 3617DOPG   C3B65267  11.200  24.440   6.080
 3617DOPG   C4B65268  11.090  24.310   6.500
 3618DOPG   GL065269  10.200  19.910  13.130
 3618DOPG   PO465270   9.800  19.870  13.330
 3618DOPG   GL165271   9.420  19.960  13.300
 3618DOPG   GL265272   9.080  19.820  13.390
 3618DOPG   C1A65273   9.040  20.300  13.400
 3618DOPG   D2A65274   8.740  20.430  13.070
 3618DOPG   C3A65275   8.410  20.510  13.100
 3618DOPG   C4A65276   8.110  20.260  13.300
 3618DOPG   C1B65277   8.740  19.560  13.440
 3618DOPG   D2B65278   8.340  19.430  13.480
 3618DOPG   C3B65279   8.080  19.560  13.800
 3618DOPG   C4B65280   7.800  19.590  14.000
 3619DOPG   GL065281  35.080  17.690   9.300
 3619DOPG   PO465282  35.250  17.680   9.670
 3619DOPG   GL165283  35.620  17.670   9.850
 3619DOPG   GL265284  35.730  17.320   9.770
 3619DOPG   C1A65285  36.100  17.580   9.970
 3619DOPG   D2A65286  36.280  17.430  10.280
 3619DOPG   C3A65287   0.290  17.650  10.480
 3619DOPG   C4A65288   0.520  18.040  10.560
 3619DOPG   C1B65289  35.840  17.250  10.250
 3619DOPG   D2B65290  35.940  17.150  10.640
 3619DOPG   C3B65291  35.930  16.840  10.740
 3619DOPG   C4B65292  35.900  16.450  10.700
 3620DOPG   GL065293   1.110  28.240  12.330
 3620DOPG   PO465294   1.350  28.280  12.760
 3620DOPG   GL165295   1.590  28.020  12.990
 3620DOPG   GL265296   1.610  27.600  12.920
 3620DOPG   C1A65297   1.870  28.080  13.230
 3620DOPG   D2A65298   1.980  27.910  13.620
 3620DOPG   C3A65299   2.230  28.130  13.930
 3620DOPG   C4A65300   2.530  28.320  14.110
 3620DOPG   C1B65301   1.900  27.550  13.180
 3620DOPG   D2B65302   2.360  27.700  13.310
 3620DOPG   C3B65303   2.760  27.950  13.320
 3620DOPG   C4B65304   2.410  28.310  13.510
 3621DOPG   GL065305  34.950  23.710  19.400
 3621DOPG   PO465306  35.400  23.650  19.600
 3621DOPG   GL165307  35.910  23.610  19.620
 3621DOPG   GL265308  35.860  23.750  19.300
 3621DOPG   C1A65309  36.300  23.920  19.630
 3621DOPG   D2A65310   0.340  23.700  19.430
 3621DOPG   C3A65311   0.490  23.780  18.960
 3621DOPG   C4A65312   0.530  23.930  18.650
 3621DOPG   C1B65313  36.160  23.560  19.180
 3621DOPG   D2B65314  36.160  23.270  18.820
 3621DOPG   C3B65315  36.350  22.860  18.890
 3621DOPG   C4B65316   0.340  22.790  18.620
 3622DOPG   GL065317  17.280  18.620   9.360
 3622DOPG   PO465318  17.000  18.500   9.690
 3622DOPG   GL165319  16.990  18.680  10.150
 3622DOPG   GL265320  16.760  18.890  10.290
 3622DOPG   C1A65321  16.700  18.440  10.490
 3622DOPG   D2A65322  16.400  18.360  10.900
 3622DOPG   C3A65323  16.060  18.690  11.020
 3622DOPG   C4A65324  15.830  18.890  11.470
 3622DOPG   C1B65325  16.540  19.330  10.520
 3622DOPG   D2B65326  16.270  19.730  10.610
 3622DOPG   C3B65327  16.080  19.810  11.000
 3622DOPG   C4B65328  16.090  19.920  11.450
 3623DOPG   GL065329   0.630  20.350   6.770
 3623DOPG   PO465330   0.920  20.670   6.550
 3623DOPG   GL165331   1.020  20.700   7.010
 3623DOPG   GL265332   1.140  21.010   6.980
 3623DOPG   C1A65333   1.160  20.680   7.400
 3623DOPG   D2A65334   1.570  20.690   7.610
 3623DOPG   C3A65335   1.780  20.400   7.780
 3623DOPG   C4A65336   1.880  20.060   8.000
 3623DOPG   C1B65337   1.280  21.280   7.300
 3623DOPG   D2B65338   1.190  21.590   7.540
 3623DOPG   C3B65339   1.400  21.470   8.030
 3623DOPG   C4B65340   1.560  21.330   8.460
 3624DOPG   GL065341   5.940  17.890   3.790
 3624DOPG   PO465342   6.170  17.610   3.970
 3624DOPG   GL165343   6.510  17.610   4.330
 3624DOPG   GL265344   6.690  17.860   4.380
 3624DOPG   C1A65345   6.530  17.580   4.780
 3624DOPG   D2A65346   6.350  17.920   5.130
 3624DOPG   C3A65347   6.500  18.320   5.250
 3624DOPG   C4A65348   6.770  18.660   5.300
 3624DOPG   C1B65349   6.180  17.860   4.570
 3624DOPG   D2B65350   5.860  17.990   4.930
 3624DOPG   C3B65351   5.970  18.100   5.340
 3624DOPG   C4B65352   5.850  18.020   5.780
 3625DOPG   GL065353  12.250  24.920  10.760
 3625DOPG   PO465354  12.720  25.010  10.790
 3625DOPG   GL165355  12.570  24.730  11.170
 3625DOPG   GL265356  12.830  24.520  11.290
 3625DOPG   C1A65357  12.400  24.470  11.530
 3625DOPG   D2A65358  12.070  24.250  11.520
 3625DOPG   C3A65359  12.000  23.810  11.590
 3625DOPG   C4A65360  11.770  23.430  11.550
 3625DOPG   C1B65361  13.120  24.380  11.460
 3625DOPG   D2B65362  13.290  24.020  11.540
 3625DOPG   C3B65363  13.290  23.580  11.210
 3625DOPG   C4B65364  13.550  23.380  10.940
 3626DOPG   GL065365   4.140   9.200  14.140
 3626DOPG   PO465366   4.360   8.860  13.860
 3626DOPG   GL165367   4.700   9.130  13.870
 3626DOPG   GL265368   4.810   8.990  14.130
 3626DOPG   C1A65369   5.110   9.400  13.780
 3626DOPG   D2A65370   5.460   9.260  13.840
 3626DOPG   C3A65371   5.560   8.810  13.930
 3626DOPG   C4A65372   5.540   8.440  13.710
 3626DOPG   C1B65373   5.100   9.170  14.300
 3626DOPG   D2B65374   5.370   9.520  14.350
 3626DOPG   C3B65375   5.770   9.640  14.010
 3626DOPG   C4B65376   6.120   9.880  13.880
 3627DOPG   GL065377   9.980  20.610  16.310
 3627DOPG   PO465378   9.530  20.750  16.490
 3627DOPG   GL165379   9.080  20.800  16.770
 3627DOPG   GL265380   9.030  20.550  17.100
 3627DOPG   C1A65381   8.770  20.950  16.980
 3627DOPG   D2A65382   8.630  21.370  16.960
 3627DOPG   C3A65383   8.250  21.480  17.170
 3627DOPG   C4A65384   7.960  21.780  17.140
 3627DOPG   C1B65385   8.640  20.580  17.290
 3627DOPG   D2B65386   8.160  20.470  17.390
 3627DOPG   C3B65387   7.840  20.310  17.050
 3627DOPG   C4B65388   7.710  20.630  16.780
 3628DOPG   GL065389   3.110   9.970  14.260
 3628DOPG   PO465390   2.960   9.700  14.610
 3628DOPG   GL165391   3.120  10.170  14.770
 3628DOPG   GL265392   3.000  10.320  14.570
 3628DOPG   C1A65393   3.390  10.540  14.870
 3628DOPG   D2A65394   3.710  10.630  14.870
 3628DOPG   C3A65395   3.920  10.540  14.610
 3628DOPG   C4A65396   4.300  10.290  14.720
 3628DOPG   C1B65397   3.020  10.730  14.610
 3628DOPG   D2B65398   3.240  11.110  14.440
 3628DOPG   C3B65399   3.360  11.180  14.040
 3628DOPG   C4B65400   3.410  11.490  13.810
 3629DOPG   GL065401   5.600  16.070   4.310
 3629DOPG   PO465402   5.390  16.310   4.520
 3629DOPG   GL165403   5.620  16.020   4.860
 3629DOPG   GL265404   5.890  16.150   4.740
 3629DOPG   C1A65405   5.730  15.830   5.270
 3629DOPG   D2A65406   5.760  15.830   5.720
 3629DOPG   C3A65407   5.540  16.110   5.980
 3629DOPG   C4A65408   5.200  16.330   6.240
 3629DOPG   C1B65409   6.300  15.940   4.730
 3629DOPG   D2B65410   6.700  16.230   4.720
 3629DOPG   C3B65411   6.670  16.280   5.140
 3629DOPG   C4B65412   7.040  16.430   5.370
 3630DOPG   GL065413  13.080  22.340  15.540
 3630DOPG   PO465414  13.180  22.310  15.930
 3630DOPG   GL165415  13.260  22.740  15.960
 3630DOPG   GL265416  13.250  22.840  15.650
 3630DOPG   C1A65417  13.450  23.230  16.140
 3630DOPG   D2A65418  13.330  23.670  16.090
 3630DOPG   C3A65419  13.550  23.950  15.750
 3630DOPG   C4A65420  13.570  24.330  15.570
 3630DOPG   C1B65421  13.170  23.210  15.430
 3630DOPG   D2B65422  13.410  23.460  15.110
 3630DOPG   C3B65423  13.780  23.300  15.120
 3630DOPG   C4B65424  14.090  22.980  15.310
 3631DOPG   GL065425   1.900  28.890  14.890
 3631DOPG   PO465426   1.980  29.010  14.510
 3631DOPG   GL165427   2.220  28.660  14.410
 3631DOPG   GL265428   2.020  28.410  14.260
 3631DOPG   C1A65429   2.370  28.230  14.620
 3631DOPG   D2A65430   2.600  28.020  14.910
 3631DOPG   C3A65431   2.580  27.720  15.150
 3631DOPG   C4A65432   2.310  27.520  15.260
 3631DOPG   C1B65433   1.930  27.980  14.430
 3631DOPG   D2B65434   2.060  27.530  14.460
 3631DOPG   C3B65435   2.330  27.350  14.800
 3631DOPG   C4B65436   2.860  27.370  14.740
 3632DOPG   GL065437   0.270  14.580  20.570
 3632DOPG   PO465438   0.670  14.500  20.460
 3632DOPG   GL165439   1.120  14.630  20.410
 3632DOPG   GL265440   1.070  14.440  20.160
 3632DOPG   C1A65441   1.540  14.900  20.480
 3632DOPG   D2A65442   1.860  15.220  20.450
 3632DOPG   C3A65443   1.930  15.320  20.080
 3632DOPG   C4A65444   1.750  15.020  19.770
 3632DOPG   C1B65445   1.470  14.700  20.040
 3632DOPG   D2B65446   1.950  14.770  20.230
 3632DOPG   C3B65447   2.190  14.850  19.920
 3632DOPG   C4B65448   2.610  14.930  19.620
 3633DOPG   GL065449  18.170  29.430  14.270
 3633DOPG   PO465450  18.490  29.250  14.400
 3633DOPG   GL165451  18.230  28.960  14.430
 3633DOPG   GL265452  17.940  28.880  14.180
 3633DOPG   C1A65453  18.080  28.700  14.680
 3633DOPG   D2A65454  17.750  28.520  14.520
 3633DOPG   C3A65455  17.290  28.820  14.570
 3633DOPG   C4A65456  17.200  29.210  14.420
 3633DOPG   C1B65457  17.580  28.780  14.030
 3633DOPG   D2B65458  17.270  28.380  14.170
 3633DOPG   C3B65459  17.470  28.080  14.520
 3633DOPG   C4B65460  17.270  27.670  14.570
 3634DOPG   GL065461   8.930  26.340  13.020
 3634DOPG   PO465462   9.110  26.020  13.010
 3634DOPG   GL165463   9.160  25.570  13.250
 3634DOPG   GL265464   9.500  25.640  13.390
 3634DOPG   C1A65465   9.330  25.180  13.490
 3634DOPG   D2A65466   9.330  24.830  13.800
 3634DOPG   C3A65467   9.630  24.540  13.760
 3634DOPG   C4A65468   9.740  24.160  14.010
 3634DOPG   C1B65469   9.910  25.470  13.470
 3634DOPG   D2B65470  10.230  25.210  13.260
 3634DOPG   C3B65471  10.630  25.070  13.360
 3634DOPG   C4B65472  10.820  24.780  13.570
 3635DOPG   GL065473  12.620  26.220  13.530
 3635DOPG   PO465474  12.530  25.870  13.240
 3635DOPG   GL165475  12.650  25.780  13.640
 3635DOPG   GL265476  12.970  25.870  13.760
 3635DOPG   C1A65477  12.660  25.460  13.950
 3635DOPG   D2A65478  12.920  25.120  14.130
 3635DOPG   C3A65479  13.220  25.140  14.530
 3635DOPG   C4A65480  13.530  24.900  14.770
 3635DOPG   C1B65481  13.150  25.460  13.850
 3635DOPG   D2B65482  13.230  24.940  13.830
 3635DOPG   C3B65483  12.980  24.590  13.930
 3635DOPG   C4B65484  12.620  24.330  13.910
 3636DOPG   GL065485   9.050  18.110   7.720
 3636DOPG   PO465486   9.170  18.230   7.320
 3636DOPG   GL165487   9.210  18.170   6.900
 3636DOPG   GL265488   9.140  17.950   6.920
 3636DOPG   C1A65489   9.100  18.240   6.430
 3636DOPG   D2A65490   8.970  17.800   6.230
 3636DOPG   C3A65491   8.560  17.770   6.080
 3636DOPG   C4A65492   8.190  17.700   5.840
 3636DOPG   C1B65493   8.740  17.930   6.670
 3636DOPG   D2B65494   8.540  18.160   6.390
 3636DOPG   C3B65495   8.800  18.170   5.920
 3636DOPG   C4B65496   8.650  18.410   5.520
 3637DOPG   GL065497  15.650  18.510   2.630
 3637DOPG   PO465498  15.340  18.750   2.780
 3637DOPG   GL165499  15.170  18.600   3.270
 3637DOPG   GL265500  15.110  18.310   3.420
 3637DOPG   C1A65501  15.020  18.720   3.760
 3637DOPG   D2A65502  14.860  18.770   4.210
 3637DOPG   C3A65503  14.740  18.430   4.570
 3637DOPG   C4A65504  14.560  18.130   4.580
 3637DOPG   C1B65505  15.070  18.210   3.830
 3637DOPG   D2B65506  14.830  18.240   4.100
 3637DOPG   C3B65507  14.470  18.090   4.110
 3637DOPG   C4B65508  14.030  17.920   4.220
 3638DOPG   GL065509  14.450  15.830   3.180
 3638DOPG   PO465510  14.520  16.290   3.070
 3638DOPG   GL165511  14.540  16.210   3.520
 3638DOPG   GL265512  14.620  16.450   3.790
 3638DOPG   C1A65513  14.500  15.910   3.910
 3638DOPG   D2A65514  14.200  16.200   4.180
 3638DOPG   C3A65515  14.110  16.210   4.590
 3638DOPG   C4A65516  13.900  16.310   4.900
 3638DOPG   C1B65517  14.680  16.350   4.180
 3638DOPG   D2B65518  14.650  16.290   4.640
 3638DOPG   C3B65519  14.510  16.460   5.010
 3638DOPG   C4B65520  14.640  16.750   5.260
 3639DOPG   GL065521  10.340  24.640  19.860
 3639DOPG   PO465522  10.490  24.370  19.670
 3639DOPG   GL165523  10.450  24.130  19.360
 3639DOPG   GL265524  10.710  24.180  19.170
 3639DOPG   C1A65525  10.180  23.970  19.270
 3639DOPG   D2A65526   9.810  23.750  19.170
 3639DOPG   C3A65527   9.830  23.260  19.310
 3639DOPG   C4A65528  10.020  22.970  19.590
 3639DOPG   C1B65529  10.490  24.080  18.740
 3639DOPG   D2B65530  10.660  24.170  18.300
 3639DOPG   C3B65531  10.660  23.900  17.920
 3639DOPG   C4B65532  10.390  23.700  17.780
 3640DOPG   GL065533  14.250  10.650   6.050
 3640DOPG   PO465534  13.910  10.450   6.000
 3640DOPG   GL165535  13.770  10.500   6.450
 3640DOPG   GL265536  13.990  10.640   6.640
 3640DOPG   C1A65537  13.640  10.960   6.640
 3640DOPG   D2A65538  13.710  11.440   6.440
 3640DOPG   C3A65539  13.640  11.730   6.620
 3640DOPG   C4A65540  13.890  12.130   6.810
 3640DOPG   C1B65541  13.900  10.780   6.980
 3640DOPG   D2B65542  13.730  10.930   7.320
 3640DOPG   C3B65543  13.420  11.120   7.210
 3640DOPG   C4B65544  13.350  11.310   7.590
 3641DOPG   GL065545  20.140  10.130  17.700
 3641DOPG   PO465546  20.240  10.440  17.300
 3641DOPG   GL165547  19.920  10.710  17.070
 3641DOPG   GL265548  20.180  10.900  17.130
 3641DOPG   C1A65549  19.620  10.940  16.900
 3641DOPG   D2A65550  19.480  11.340  16.820
 3641DOPG   C3A65551  19.090  11.590  16.790
 3641DOPG   C4A65552  19.080  12.060  17.030
 3641DOPG   C1B65553  20.080  11.080  16.690
 3641DOPG   D2B65554  20.090  11.420  16.330
 3641DOPG   C3B65555  19.840  11.590  16.070
 3641DOPG   C4B65556  19.430  12.020  16.120
 3642DOPG   GL065557  10.290  21.930   8.690
 3642DOPG   PO465558  10.750  21.880   8.700
 3642DOPG   GL165559  11.010  21.630   8.850
 3642DOPG   GL265560  10.910  21.520   9.150
 3642DOPG   C1A65561  11.080  21.140   8.920
 3642DOPG   D2A65562  11.250  20.830   9.370
 3642DOPG   C3A65563  11.510  20.950   9.670
 3642DOPG   C4A65564  11.600  20.890  10.030
 3642DOPG   C1B65565  10.710  21.120   9.240
 3642DOPG   D2B65566  10.760  20.770   9.490
 3642DOPG   C3B65567  11.150  20.620   9.770
 3642DOPG   C4B65568  11.550  20.460  10.180
 3643DOPG   GL065569   5.650  15.940  13.020
 3643DOPG   PO465570   5.580  16.390  12.770
 3643DOPG   GL165571   5.750  16.420  13.210
 3643DOPG   GL265572   5.940  16.660  13.150
 3643DOPG   C1A65573   6.050  16.170  13.400
 3643DOPG   D2A65574   6.460  15.860  13.350
 3643DOPG   C3A65575   6.930  15.920  13.560
 3643DOPG   C4A65576   7.250  15.830  13.740
 3643DOPG   C1B65577   6.470  16.740  13.100
 3643DOPG   D2B65578   6.800  16.750  13.510
 3643DOPG   C3B65579   7.150  16.880  13.780
 3643DOPG   C4B65580   7.490  16.630  13.910
 3644DOPG   GL065581  14.080  18.200  16.470
 3644DOPG   PO465582  13.950  17.790  16.460
 3644DOPG   GL165583  14.080  17.520  16.660
 3644DOPG   GL265584  14.070  17.100  16.750
 3644DOPG   C1A65585  14.400  17.490  16.970
 3644DOPG   D2A65586  14.560  17.320  16.640
 3644DOPG   C3A65587  15.070  17.130  16.590
 3644DOPG   C4A65588  15.540  17.210  16.670
 3644DOPG   C1B65589  14.340  16.920  17.080
 3644DOPG   D2B65590  14.550  16.910  17.470
 3644DOPG   C3B65591  14.930  16.930  17.520
 3644DOPG   C4B65592  15.220  17.160  17.810
 3645DOPG   GL065593  11.290  16.240  12.110
 3645DOPG   PO465594  11.290  15.840  12.410
 3645DOPG   GL165595  11.310  15.430  12.340
 3645DOPG   GL265596  11.590  15.280  12.400
 3645DOPG   C1A65597  10.970  15.080  12.130
 3645DOPG   D2A65598  10.530  15.090  11.810
 3645DOPG   C3A65599  10.360  14.660  11.870
 3645DOPG   C4A65600  10.300  14.230  11.980
 3645DOPG   C1B65601  11.510  14.890  12.060
 3645DOPG   D2B65602  11.640  14.520  11.800
 3645DOPG   C3B65603  12.010  14.400  11.470
 3645DOPG   C4B65604  12.330  14.610  11.430
 3646DOPG   GL065605   1.250  25.730  23.110
 3646DOPG   PO465606   1.370  25.320  23.140
 3646DOPG   GL165607   1.870  25.230  23.140
 3646DOPG   GL265608   1.910  24.970  23.140
 3646DOPG   C1A65609   1.950  25.270  22.540
 3646DOPG   D2A65610   2.340  25.320  22.360
 3646DOPG   C3A65611   2.470  25.080  22.020
 3646DOPG   C4A65612   2.590  24.920  21.700
 3646DOPG   C1B65613   2.300  25.030  22.890
 3646DOPG   D2B65614   2.490  24.680  22.810
 3646DOPG   C3B65615   2.930  24.700  22.800
 3646DOPG   C4B65616   3.300  24.680  22.710
 3647DOPG   GL065617   3.590  10.160  18.700
 3647DOPG   PO465618   3.420  10.680  18.790
 3647DOPG   GL165619   3.800  10.850  18.760
 3647DOPG   GL265620   3.690  11.240  18.740
 3647DOPG   C1A65621   4.030  10.990  18.480
 3647DOPG   D2A65622   4.210  11.470  18.440
 3647DOPG   C3A65623   4.180  11.820  18.130
 3647DOPG   C4A65624   4.340  12.260  18.140
 3647DOPG   C1B65625   3.990  11.460  18.970
 3647DOPG   D2B65626   4.150  11.470  19.330
 3647DOPG   C3B65627   3.890  11.810  19.650
 3647DOPG   C4B65628   3.490  12.000  19.610
 3648DOPG   GL065629  13.570  19.100  16.940
 3648DOPG   PO465630  13.480  19.530  16.960
 3648DOPG   GL165631  13.700  19.430  17.290
 3648DOPG   GL265632  13.970  19.500  17.140
 3648DOPG   C1A65633  14.040  19.270  17.570
 3648DOPG   D2A65634  14.380  19.090  17.810
 3648DOPG   C3A65635  14.770  19.250  17.870
 3648DOPG   C4A65636  14.770  19.550  17.550
 3648DOPG   C1B65637  14.330  19.710  17.460
 3648DOPG   D2B65638  14.480  19.740  17.920
 3648DOPG   C3B65639  14.620  20.170  17.960
 3648DOPG   C4B65640  14.310  20.270  17.710
 3649DOPG   GL065641  12.790  17.570  11.930
 3649DOPG   PO465642  12.890  17.480  11.490
 3649DOPG   GL165643  12.860  17.690  11.200
 3649DOPG   GL265644  12.580  17.840  11.060
 3649DOPG   C1A65645  12.980  17.920  10.710
 3649DOPG   D2A65646  13.310  17.880  10.370
 3649DOPG   C3A65647  13.510  17.600  10.080
 3649DOPG   C4A65648  13.410  17.240   9.880
 3649DOPG   C1B65649  12.660  17.600  10.720
 3649DOPG   D2B65650  12.870  17.520  10.330
 3649DOPG   C3B65651  12.810  17.810  10.070
 3649DOPG   C4B65652  12.430  17.970   9.830
 3650DOPG   GL065653  11.580  20.510  11.610
 3650DOPG   PO465654  11.460  20.570  12.000
 3650DOPG   GL165655  11.100  20.580  11.700
 3650DOPG   GL265656  11.120  20.360  11.460
 3650DOPG   C1A65657  10.960  20.830  11.320
 3650DOPG   D2A65658  10.810  20.780  10.750
 3650DOPG   C3A65659  10.520  20.570  10.570
 3650DOPG   C4A65660  10.620  20.210  10.470
 3650DOPG   C1B65661  11.300  20.490  11.060
 3650DOPG   D2B65662  11.070  20.320  10.710
 3650DOPG   C3B65663  11.220  20.150  10.310
 3650DOPG   C4B65664  11.210  20.060   9.870
 3651DOPG   GL065665  33.650  24.650  12.280
 3651DOPG   PO465666  34.140  24.690  12.280
 3651DOPG   GL165667  34.610  24.570  12.340
 3651DOPG   GL265668  34.740  24.230  12.440
 3651DOPG   C1A65669  35.000  24.760  12.460
 3651DOPG   D2A65670  35.300  25.060  12.670
 3651DOPG   C3A65671  35.580  24.810  12.980
 3651DOPG   C4A65672  35.980  24.600  13.130
 3651DOPG   C1B65673  35.070  23.860  12.640
 3651DOPG   D2B65674  35.360  23.710  12.870
 3651DOPG   C3B65675  35.660  23.300  12.880
 3651DOPG   C4B65676  35.840  22.940  13.200
 3652DOPG   GL065677   8.340  23.550  10.490
 3652DOPG   PO465678   8.840  23.590  10.630
 3652DOPG   GL165679   9.220  23.290  10.820
 3652DOPG   GL265680   9.100  23.320  11.100
 3652DOPG   C1A65681   9.420  22.900  10.810
 3652DOPG   D2A65682   9.170  22.470  10.880
 3652DOPG   C3A65683   9.430  22.160  10.890
 3652DOPG   C4A65684   9.570  21.830  11.190
 3652DOPG   C1B65685   9.450  23.200  11.340
 3652DOPG   D2B65686   9.380  23.040  11.810
 3652DOPG   C3B65687   9.600  23.140  12.130
 3652DOPG   C4B65688   9.850  22.970  12.510
 3653DOPG   GL065689  12.830  15.920  13.830
 3653DOPG   PO465690  12.470  15.730  13.790
 3653DOPG   GL165691  12.340  15.290  13.590
 3653DOPG   GL265692  12.190  15.240  13.180
 3653DOPG   C1A65693  12.500  14.880  13.260
 3653DOPG   D2A65694  12.450  14.430  13.330
 3653DOPG   C3A65695  12.050  14.400  13.510
 3653DOPG   C4A65696  11.860  14.330  13.890
 3653DOPG   C1B65697  12.040  14.760  13.140
 3653DOPG   D2B65698  12.020  14.530  12.830
 3653DOPG   C3B65699  11.680  14.520  12.430
 3653DOPG   C4B65700  11.320  14.340  12.340
 3654DOPG   GL065701  13.020  16.620  15.920
 3654DOPG   PO465702  13.150  16.300  15.880
 3654DOPG   GL165703  13.100  16.080  16.300
 3654DOPG   GL265704  13.380  16.180  16.500
 3654DOPG   C1A65705  13.190  15.610  16.420
 3654DOPG   D2A65706  13.340  15.350  16.190
 3654DOPG   C3A65707  13.500  14.940  16.380
 3654DOPG   C4A65708  13.460  14.720  16.740
 3654DOPG   C1B65709  13.560  15.800  16.700
 3654DOPG   D2B65710  13.510  15.610  17.170
 3654DOPG   C3B65711  13.520  15.880  17.500
 3654DOPG   C4B65712  13.730  16.100  17.830
 3655DOPG   GL065713  13.180  15.440  14.760
 3655DOPG   PO465714  13.180  15.280  14.340
 3655DOPG   GL165715  13.080  14.890  14.310
 3655DOPG   GL265716  13.290  14.620  14.440
 3655DOPG   C1A65717  13.160  14.610  13.930
 3655DOPG   D2A65718  13.240  14.320  13.750
 3655DOPG   C3A65719  12.830  14.100  13.710
 3655DOPG   C4A65720  12.610  13.980  14.240
 3655DOPG   C1B65721  13.690  14.580  14.690
 3655DOPG   D2B65722  14.000  14.620  15.050
 3655DOPG   C3B65723  14.280  14.490  15.400
 3655DOPG   C4B65724  14.430  14.210  15.650
 3656DOPG   GL065725  13.910  13.870   3.440
 3656DOPG   PO465726  14.270  13.740   3.720
 3656DOPG   GL165727  14.230  13.810   4.190
 3656DOPG   GL265728  13.920  13.760   4.300
 3656DOPG   C1A65729  14.380  14.090   4.620
 3656DOPG   D2A65730  14.390  14.270   5.070
 3656DOPG   C3A65731  14.030  14.180   5.280
 3656DOPG   C4A65732  13.810  14.570   5.290
 3656DOPG   C1B65733  13.940  14.210   4.250
 3656DOPG   D2B65734  13.980  14.440   4.640
 3656DOPG   C3B65735  13.640  14.700   4.800
 3656DOPG   C4B65736  13.350  14.960   4.620
 3657DOPG   GL065737   5.240   7.960  16.360
 3657DOPG   PO465738   5.200   8.200  15.940
 3657DOPG   GL165739   5.420   8.470  15.650
 3657DOPG   GL265740   5.700   8.460  15.380
 3657DOPG   C1A65741   5.610   8.930  15.530
 3657DOPG   D2A65742   5.640   9.300  15.770
 3657DOPG   C3A65743   6.060   9.310  15.880
 3657DOPG   C4A65744   6.510   9.460  15.990
 3657DOPG   C1B65745   5.720   8.760  15.080
 3657DOPG   D2B65746   5.870   9.130  15.120
 3657DOPG   C3B65747   5.990   9.480  15.060
 3657DOPG   C4B65748   5.830   9.790  15.130
 3658DOPG   GL065749  11.520  25.470  18.690
 3658DOPG   PO465750  11.550  25.150  18.560
 3658DOPG   GL165751  11.920  24.980  18.330
 3658DOPG   GL265752  11.860  24.660  18.320
 3658DOPG   C1A65753  12.230  24.750  17.980
 3658DOPG   D2A65754  12.320  24.720  17.580
 3658DOPG   C3A65755  12.400  24.310  17.390
 3658DOPG   C4A65756  12.640  23.940  17.380
 3658DOPG   C1B65757  11.440  24.360  18.400
 3658DOPG   D2B65758  11.190  24.150  18.280
 3658DOPG   C3B65759  11.180  24.040  17.900
 3658DOPG   C4B65760  11.180  24.210  17.440
 3659DOPG   GL065761  12.830  19.320  17.470
 3659DOPG   PO465762  12.890  19.450  17.770
 3659DOPG   GL165763  13.140  19.660  18.060
 3659DOPG   GL265764  13.370  19.800  17.910
 3659DOPG   C1A65765  13.040  19.850  18.350
 3659DOPG   D2A65766  12.860  20.090  18.740
 3659DOPG   C3A65767  12.770  20.010  19.130
 3659DOPG   C4A65768  12.560  20.200  19.620
 3659DOPG   C1B65769  13.540  19.640  18.300
 3659DOPG   D2B65770  13.520  19.550  18.710
 3659DOPG   C3B65771  13.130  19.720  18.800
 3659DOPG   C4B65772  12.700  19.440  18.920
 3660DOPG   GL065773  10.950  16.390  26.110
 3660DOPG   PO465774  10.750  15.950  26.180
 3660DOPG   GL165775  10.470  16.100  25.790
 3660DOPG   GL265776  10.600  15.910  25.510
 3660DOPG   C1A65777  10.250  16.190  25.360
 3660DOPG   D2A65778  10.090  16.340  25.060
 3660DOPG   C3A65779  10.050  16.820  24.990
 3660DOPG   C4A65780   9.760  17.230  25.080
 3660DOPG   C1B65781  10.600  16.070  25.080
 3660DOPG   D2B65782  10.500  16.340  24.720
 3660DOPG   C3B65783  10.150  16.660  24.580
 3660DOPG   C4B65784   9.800  16.650  24.280
 3661DOPG   GL065785  14.090  21.570  15.480
 3661DOPG   PO465786  13.980  21.110  15.770
 3661DOPG   GL165787  14.230  21.400  16.020
 3661DOPG   GL265788  14.400  21.320  16.350
 3661DOPG   C1A65789  14.600  21.610  15.920
 3661DOPG   D2A65790  15.120  21.750  15.980
 3661DOPG   C3A65791  15.530  21.650  16.320
 3661DOPG   C4A65792  15.760  21.380  16.550
 3661DOPG   C1B65793  14.680  21.380  16.690
 3661DOPG   D2B65794  14.930  21.030  16.850
 3661DOPG   C3B65795  15.410  21.140  16.960
 3661DOPG   C4B65796  15.860  20.840  16.960
 3662DOPG   GL065797  10.670  17.480  11.640
 3662DOPG   PO465798  10.600  17.860  11.590
 3662DOPG   GL165799  10.430  17.670  11.220
 3662DOPG   GL265800  10.320  18.100  11.180
 3662DOPG   C1A65801  10.190  17.690  10.900
 3662DOPG   D2A65802  10.330  17.680  10.420
 3662DOPG   C3A65803  10.140  17.960  10.120
 3662DOPG   C4A65804  10.140  17.760   9.670
 3662DOPG   C1B65805  10.200  18.500  10.980
 3662DOPG   D2B65806   9.940  18.700  10.740
 3662DOPG   C3B65807  10.160  18.820  10.380
 3662DOPG   C4B65808  10.380  18.730  10.060
 3663DOPG   GL065809  12.550  16.330   2.530
 3663DOPG   PO465810  12.820  16.580   2.940
 3663DOPG   GL165811  12.710  16.400   3.390
 3663DOPG   GL265812  12.850  16.060   3.460
 3663DOPG   C1A65813  12.720  16.500   3.830
 3663DOPG   D2A65814  12.870  16.740   4.020
 3663DOPG   C3A65815  13.050  17.050   3.790
 3663DOPG   C4A65816  13.190  17.400   3.420
 3663DOPG   C1B65817  12.690  16.000   3.860
 3663DOPG   D2B65818  12.860  15.820   4.240
 3663DOPG   C3B65819  13.100  15.970   4.580
 3663DOPG   C4B65820  13.050  16.020   4.970
 3664DOPG   GL065821   8.950  18.380  15.910
 3664DOPG   PO465822   8.520  18.370  15.830
 3664DOPG   GL165823   8.210  18.170  15.910
 3664DOPG   GL265824   8.190  18.240  16.180
 3664DOPG   C1A65825   7.960  17.910  15.900
 3664DOPG   D2A65826   7.610  17.770  16.030
 3664DOPG   C3A65827   7.300  17.850  15.770
 3664DOPG   C4A65828   7.000  17.900  15.480
 3664DOPG   C1B65829   7.980  18.340  16.480
 3664DOPG   D2B65830   7.560  18.540  16.620
 3664DOPG   C3B65831   7.370  18.510  17.030
 3664DOPG   C4B65832   6.920  18.580  17.340
 3665DOPG   GL065833   6.610  23.110  22.180
 3665DOPG   PO465834   6.290  23.350  22.000
 3665DOPG   GL165835   6.310  23.700  22.280
 3665DOPG   GL265836   5.980  23.920  22.360
 3665DOPG   C1A65837   6.540  23.770  22.610
 3665DOPG   D2A65838   6.440  23.780  23.050
 3665DOPG   C3A65839   6.040  23.450  23.180
 3665DOPG   C4A65840   5.700  23.290  23.310
 3665DOPG   C1B65841   6.010  23.930  22.730
 3665DOPG   D2B65842   6.110  24.090  23.210
 3665DOPG   C3B65843   5.930  23.750  23.560
 3665DOPG   C4B65844   5.650  23.440  23.820
 3666DOPG   GL065845  11.030  18.400  17.610
 3666DOPG   PO465846  11.090  18.320  18.110
 3666DOPG   GL165847  11.170  18.330  18.580
 3666DOPG   GL265848  11.170  18.670  18.660
 3666DOPG   C1A65849  11.150  18.200  18.950
 3666DOPG   D2A65850  10.950  17.980  19.370
 3666DOPG   C3A65851  10.990  18.000  19.750
 3666DOPG   C4A65852  11.040  17.760  20.080
 3666DOPG   C1B65853  11.300  18.970  19.110
 3666DOPG   D2B65854  11.530  18.940  19.450
 3666DOPG   C3B65855  11.720  19.260  19.680
 3666DOPG   C4B65856  11.850  19.600  19.740
 3667DOPG   GL065857   5.450  22.090  26.040
 3667DOPG   PO465858   5.710  22.340  26.280
 3667DOPG   GL165859   5.970  22.260  26.040
 3667DOPG   GL265860   6.150  22.400  25.890
 3667DOPG   C1A65861   5.930  22.000  25.720
 3667DOPG   D2A65862   6.130  21.820  25.520
 3667DOPG   C3A65863   6.170  21.830  25.100
 3667DOPG   C4A65864   6.190  21.690  24.610
 3667DOPG   C1B65865   6.060  22.460  25.480
 3667DOPG   D2B65866   6.230  22.330  24.970
 3667DOPG   C3B65867   6.750  22.420  24.960
 3667DOPG   C4B65868   7.190  22.210  25.020
 3668DOPG   GL065869   8.990  25.480  17.610
 3668DOPG   PO465870   9.170  25.940  17.680
 3668DOPG   GL165871   9.460  25.610  17.610
 3668DOPG   GL265872   9.340  25.650  17.260
 3668DOPG   C1A65873   9.460  25.250  17.560
 3668DOPG   D2A65874   9.480  24.700  17.510
 3668DOPG   C3A65875   9.190  24.410  17.450
 3668DOPG   C4A65876   8.810  24.340  17.200
 3668DOPG   C1B65877   9.590  25.260  17.080
 3668DOPG   D2B65878   9.740  25.010  16.750
 3668DOPG   C3B65879  10.010  25.080  16.490
 3668DOPG   C4B65880  10.160  25.240  16.250
 3669DOPG   GL065881   9.840  26.370  15.080
 3669DOPG   PO465882   9.930  26.070  15.270
 3669DOPG   GL165883   9.940  25.560  15.170
 3669DOPG   GL265884  10.240  25.530  14.870
 3669DOPG   C1A65885   9.950  25.310  15.470
 3669DOPG   D2A65886  10.210  25.110  15.780
 3669DOPG   C3A65887  10.020  24.820  16.000
 3669DOPG   C4A65888  10.060  24.490  16.370
 3669DOPG   C1B65889  10.330  25.150  14.970
 3669DOPG   D2B65890  10.120  24.930  15.250
 3669DOPG   C3B65891  10.080  24.670  15.510
 3669DOPG   C4B65892  10.010  24.220  15.800
 3670DOPG   GL065893   0.780  26.800  20.080
 3670DOPG   PO465894   0.910  27.150  19.850
 3670DOPG   GL165895   1.190  26.980  19.790
 3670DOPG   GL265896   1.500  27.020  20.030
 3670DOPG   C1A65897   1.560  27.120  19.560
 3670DOPG   D2A65898   1.620  27.150  19.080
 3670DOPG   C3A65899   2.050  27.260  19.090
 3670DOPG   C4A65900   2.260  27.080  18.700
 3670DOPG   C1B65901   1.970  27.020  19.880
 3670DOPG   D2B65902   2.090  26.540  19.910
 3670DOPG   C3B65903   1.930  26.260  19.590
 3670DOPG   C4B65904   1.730  26.230  19.130
 3671DOPG   GL065905   9.170  19.120  16.060
 3671DOPG   PO465906   9.260  19.470  16.350
 3671DOPG   GL165907   8.860  19.590  16.550
 3671DOPG   GL265908   8.760  19.820  16.570
 3671DOPG   C1A65909   8.520  19.530  16.960
 3671DOPG   D2A65910   8.080  19.530  17.190
 3671DOPG   C3A65911   7.760  19.780  17.270
 3671DOPG   C4A65912   7.580  20.150  17.450
 3671DOPG   C1B65913   8.540  20.010  16.730
 3671DOPG   D2B65914   8.260  20.040  16.960
 3671DOPG   C3B65915   8.250  19.990  17.300
 3671DOPG   C4B65916   8.050  20.000  17.740
 3672DOPG   GL065917  13.150  20.500  17.240
 3672DOPG   PO465918  13.330  20.760  17.490
 3672DOPG   GL165919  13.660  20.640  17.920
 3672DOPG   GL265920  13.770  20.700  17.730
 3672DOPG   C1A65921  13.830  20.760  18.310
 3672DOPG   D2A65922  14.000  20.830  18.690
 3672DOPG   C3A65923  14.320  21.110  18.850
 3672DOPG   C4A65924  14.360  21.460  18.590
 3672DOPG   C1B65925  14.200  20.760  17.850
 3672DOPG   D2B65926  14.640  20.760  18.040
 3672DOPG   C3B65927  15.020  21.090  17.920
 3672DOPG   C4B65928  15.200  21.510  17.820
 3673DOPG   GL065929  33.580  22.170  14.760
 3673DOPG   PO465930  33.970  22.330  14.450
 3673DOPG   GL165931  34.400  22.400  14.560
 3673DOPG   GL265932  34.590  22.360  14.880
 3673DOPG   C1A65933  34.700  22.210  14.380
 3673DOPG   D2A65934  35.060  22.210  14.790
 3673DOPG   C3A65935  35.080  22.620  14.900
 3673DOPG   C4A65936  35.380  22.840  14.650
 3673DOPG   C1B65937  34.580  22.580  15.240
 3673DOPG   D2B65938  34.880  22.660  15.510
 3673DOPG   C3B65939  35.240  22.420  15.500
 3673DOPG   C4B65940  35.590  22.400  15.280
 3674DOPG   GL065941  14.590  21.150  12.660
 3674DOPG   PO465942  14.780  20.780  12.750
 3674DOPG   GL165943  15.130  20.980  12.720
 3674DOPG   GL265944  15.310  20.870  13.040
 3674DOPG   C1A65945  15.220  20.980  12.290
 3674DOPG   D2A65946  15.300  21.010  11.840
 3674DOPG   C3A65947  15.720  21.240  11.770
 3674DOPG   C4A65948  16.020  20.970  11.850
 3674DOPG   C1B65949  15.620  20.950  13.380
 3674DOPG   D2B65950  15.670  21.050  13.740
 3674DOPG   C3B65951  15.810  21.370  13.810
 3674DOPG   C4B65952  15.980  21.680  14.130
 3675DOPG   GL065953  35.460  25.700  11.370
 3675DOPG   PO465954  35.830  25.550  11.520
 3675DOPG   GL165955  36.060  25.440  11.870
 3675DOPG   GL265956   0.080  25.520  11.910
 3675DOPG   C1A65957  36.280  25.040  12.050
 3675DOPG   D2A65958   0.070  24.640  11.990
 3675DOPG   C3A65959  36.340  24.520  11.580
 3675DOPG   C4A65960  35.970  24.530  11.290
 3675DOPG   C1B65961   0.240  25.360  12.300
 3675DOPG   D2B65962   0.410  24.970  12.390
 3675DOPG   C3B65963   0.210  24.530  12.460
 3675DOPG   C4B65964   0.270  24.190  12.740
 3676DOPG   GL065965  14.740   8.110  10.140
 3676DOPG   PO465966  14.700   8.030  10.660
 3676DOPG   GL165967  14.480   8.450  10.490
 3676DOPG   GL265968  14.760   8.570  10.270
 3676DOPG   C1A65969  14.300   8.720  10.350
 3676DOPG   D2A65970  14.540   9.110  10.180
 3676DOPG   C3A65971  14.350   9.450  10.210
 3676DOPG   C4A65972  14.400   9.910  10.200
 3676DOPG   C1B65973  14.780   8.880  10.540
 3676DOPG   D2B65974  14.450   9.130  10.650
 3676DOPG   C3B65975  14.040   9.060  10.960
 3676DOPG   C4B65976  13.700   9.390  11.010
 3677DOPG   GL065977  13.100  14.480  25.020
 3677DOPG   PO465978  13.400  14.140  25.120
 3677DOPG   GL165979  13.520  14.370  24.720
 3677DOPG   GL265980  13.730  14.640  24.700
 3677DOPG   C1A65981  13.290  14.710  24.490
 3677DOPG   D2A65982  12.900  14.890  24.250
 3677DOPG   C3A65983  12.540  14.740  23.970
 3677DOPG   C4A65984  12.430  14.470  23.480
 3677DOPG   C1B65985  13.910  14.910  24.350
 3677DOPG   D2B65986  13.650  15.170  24.030
 3677DOPG   C3B65987  13.250  15.010  23.910
 3677DOPG   C4B65988  13.210  15.010  23.480
 3678DOPG   GL065989  13.980  19.500  11.520
 3678DOPG   PO465990  14.390  19.440  11.620
 3678DOPG   GL165991  14.680  19.130  11.340
 3678DOPG   GL265992  14.680  18.850  11.310
 3678DOPG   C1A65993  15.000  19.110  11.070
 3678DOPG   D2A65994  14.900  18.910  10.750
 3678DOPG   C3A65995  14.450  18.610  10.810
 3678DOPG   C4A65996  13.970  18.510  10.950
 3678DOPG   C1B65997  15.070  18.790  11.590
 3678DOPG   D2B65998  15.330  18.980  11.920
 3678DOPG   C3B65999  15.680  19.250  11.810
 3678DOPG   C4B66000  15.860  19.600  11.770
 3679DOPG   GL066001  11.400  16.470   2.580
 3679DOPG   PO466002  11.600  16.540   2.920
 3679DOPG   GL166003  11.480  16.420   3.310
 3679DOPG   GL266004  11.220  16.180   3.350
 3679DOPG   C1A66005  11.680  16.490   3.650
 3679DOPG   D2A66006  11.660  16.530   4.070
 3679DOPG   C3A66007  11.830  16.390   4.410
 3679DOPG   C4A66008  12.070  16.040   4.600
 3679DOPG   C1B66009  11.170  16.360   3.670
 3679DOPG   D2B66010  11.220  16.740   3.950
 3679DOPG   C3B66011  11.340  17.090   3.800
 3679DOPG   C4B66012  11.640  17.430   3.960
 3680DOPG   GL066013   2.760  17.830   5.120
 3680DOPG   PO466014   2.960  17.560   5.380
 3680DOPG   GL166015   2.990  17.650   5.810
 3680DOPG   GL266016   2.820  17.580   6.020
 3680DOPG   C1A66017   3.280  17.710   6.040
 3680DOPG   D2A66018   3.600  17.870   6.190
 3680DOPG   C3A66019   3.850  17.550   6.430
 3680DOPG   C4A66020   4.010  17.440   6.800
 3680DOPG   C1B66021   2.840  17.800   6.380
 3680DOPG   D2B66022   2.990  18.110   6.490
 3680DOPG   C3B66023   3.360  18.130   6.730
 3680DOPG   C4B66024   3.810  18.060   6.630
 3681DOPG   GL066025  35.820  22.010  20.420
 3681DOPG   PO466026  35.890  22.370  20.630
 3681DOPG   GL166027  36.260  22.230  20.350
 3681DOPG   GL266028   0.130  21.930  20.330
 3681DOPG   C1A66029   0.250  22.320  20.070
 3681DOPG   D2A66030   0.670  22.150  19.970
 3681DOPG   C3A66031   0.940  22.320  20.160
 3681DOPG   C4A66032   1.120  22.380  20.540
 3681DOPG   C1B66033   0.390  21.420  20.250
 3681DOPG   D2B66034   0.790  21.350  20.060
 3681DOPG   C3B66035   1.060  21.750  20.060
 3681DOPG   C4B66036   1.280  22.130  19.830
 3682DOPG   GL066037   7.920  14.270  25.520
 3682DOPG   PO466038   7.820  14.250  25.060
 3682DOPG   GL166039   7.590  14.380  24.780
 3682DOPG   GL266040   7.730  14.620  24.650
 3682DOPG   C1A66041   7.330  14.470  24.350
 3682DOPG   D2A66042   7.280  14.860  24.000
 3682DOPG   C3A66043   7.440  15.320  24.070
 3682DOPG   C4A66044   7.290  15.750  24.240
 3682DOPG   C1B66045   7.830  14.530  24.260
 3682DOPG   D2B66046   8.090  14.600  23.830
 3682DOPG   C3B66047   8.380  14.490  23.540
 3682DOPG   C4B66048   8.600  14.200  23.210
 3683DOPG   GL066049  11.160  31.060  11.400
 3683DOPG   PO466050  11.010  30.630  11.470
 3683DOPG   GL166051  10.990  30.290  11.600
 3683DOPG   GL266052  11.390  30.230  11.600
 3683DOPG   C1A66053  10.980  30.000  11.890
 3683DOPG   D2A66054  11.280  29.720  12.020
 3683DOPG   C3A66055  11.280  29.310  12.050
 3683DOPG   C4A66056  11.450  28.900  12.240
 3683DOPG   C1B66057  11.260  30.390  12.030
 3683DOPG   D2B66058  10.820  30.580  12.000
 3683DOPG   C3B66059  10.530  30.500  12.310
 3683DOPG   C4B66060  10.180  30.250  12.470
 3684DOPG   GL066061   2.510  17.650  12.000
 3684DOPG   PO466062   2.440  17.920  11.580
 3684DOPG   GL166063   2.180  17.940  11.180
 3684DOPG   GL266064   2.080  18.230  11.160
 3684DOPG   C1A66065   1.900  17.760  10.930
 3684DOPG   D2A66066   1.700  17.790  10.680
 3684DOPG   C3A66067   1.400  17.970  10.440
 3684DOPG   C4A66068   0.970  18.140  10.300
 3684DOPG   C1B66069   1.620  18.220  10.930
 3684DOPG   D2B66070   1.140  18.150  10.950
 3684DOPG   C3B66071   1.000  17.850  10.690
 3684DOPG   C4B66072   0.830  17.660  10.280
 3685DOPG   GL066073  16.110  22.840  10.600
 3685DOPG   PO466074  16.300  23.160  10.880
 3685DOPG   GL166075  16.230  22.860  11.190
 3685DOPG   GL266076  16.070  22.570  11.120
 3685DOPG   C1A66077  16.010  22.830  11.520
 3685DOPG   D2A66078  16.050  22.420  11.690
 3685DOPG   C3A66079  15.840  22.200  11.780
 3685DOPG   C4A66080  15.810  22.030  12.190
 3685DOPG   C1B66081  15.860  22.250  10.990
 3685DOPG   D2B66082  16.050  21.840  10.940
 3685DOPG   C3B66083  15.720  21.620  10.960
 3685DOPG   C4B66084  15.380  21.380  11.190
 3686DOPG   GL066085   7.000  12.290  14.850
 3686DOPG   PO466086   7.380  12.470  15.080
 3686DOPG   GL166087   7.770  12.750  14.880
 3686DOPG   GL266088   8.050  12.510  14.710
 3686DOPG   C1A66089   7.960  12.950  14.430
 3686DOPG   D2A66090   8.240  13.330  14.290
 3686DOPG   C3A66091   8.540  13.670  14.440
 3686DOPG   C4A66092   8.900  14.060  14.530
 3686DOPG   C1B66093   8.450  12.900  14.630
 3686DOPG   D2B66094   8.610  13.200  14.910
 3686DOPG   C3B66095   8.550  13.640  14.930
 3686DOPG   C4B66096   8.520  14.030  14.850
 3687DOPG   GL066097  14.080  16.790  14.880
 3687DOPG   PO466098  14.480  16.670  15.070
 3687DOPG   GL166099  14.660  16.330  15.220
 3687DOPG   GL266100  14.580  16.050  15.280
 3687DOPG   C1A66101  14.880  16.310  15.610
 3687DOPG   D2A66102  15.230  16.060  15.810
 3687DOPG   C3A66103  15.580  16.210  15.570
 3687DOPG   C4A66104  15.900  16.540  15.660
 3687DOPG   C1B66105  15.030  15.960  15.160
 3687DOPG   D2B66106  15.290  15.840  14.760
 3687DOPG   C3B66107  15.500  15.530  15.010
 3687DOPG   C4B66108  15.460  15.260  15.440
 3688DOPG   GL066109  34.360  21.820  13.050
 3688DOPG   PO466110  34.250  21.790  13.470
 3688DOPG   GL166111  34.660  21.700  13.560
 3688DOPG   GL266112  34.760  21.520  13.240
 3688DOPG   C1A66113  35.080  21.820  13.790
 3688DOPG   D2A66114  35.400  21.830  13.790
 3688DOPG   C3A66115  35.630  22.090  14.070
 3688DOPG   C4A66116  35.960  22.240  14.340
 3688DOPG   C1B66117  35.180  21.540  13.280
 3688DOPG   D2B66118  35.650  21.610  13.390
 3688DOPG   C3B66119  35.870  21.230  13.620
 3688DOPG   C4B66120  36.230  20.980  13.420
 3689DOPG   GL066121  12.450  18.200  17.270
 3689DOPG   PO466122  12.460  18.050  17.730
 3689DOPG   GL166123  12.680  18.110  17.980
 3689DOPG   GL266124  12.490  18.140  18.210
 3689DOPG   C1A66125  13.020  18.110  18.250
 3689DOPG   D2A66126  13.340  17.760  18.400
 3689DOPG   C3A66127  13.430  17.740  18.800
 3689DOPG   C4A66128  13.600  17.820  19.170
 3689DOPG   C1B66129  12.620  17.720  18.410
 3689DOPG   D2B66130  12.900  17.630  18.240
 3689DOPG   C3B66131  13.130  17.300  18.240
 3689DOPG   C4B66132  13.440  17.100  17.920
 3690DOPG   GL066133   6.560  13.310  18.130
 3690DOPG   PO466134   6.460  13.400  18.530
 3690DOPG   GL166135   6.410  13.000  18.540
 3690DOPG   GL266136   6.070  12.950  18.460
 3690DOPG   C1A66137   6.410  12.630  18.730
 3690DOPG   D2A66138   6.710  12.360  19.060
 3690DOPG   C3A66139   6.570  11.950  19.350
 3690DOPG   C4A66140   6.580  11.490  19.540
 3690DOPG   C1B66141   5.900  12.720  18.790
 3690DOPG   D2B66142   5.710  12.420  19.020
 3690DOPG   C3B66143   5.610  12.120  19.030
 3690DOPG   C4B66144   5.510  11.870  18.700
 3691DOPG   GL066145  12.550  11.150   4.560
 3691DOPG   PO466146  12.490  11.490   4.820
 3691DOPG   GL166147  12.440  11.860   5.150
 3691DOPG   GL266148  12.770  12.130   5.000
 3691DOPG   C1A66149  12.350  12.040   5.590
 3691DOPG   D2A66150  12.210  11.840   6.010
 3691DOPG   C3A66151  12.520  11.730   6.340
 3691DOPG   C4A66152  12.820  11.870   6.660
 3691DOPG   C1B66153  12.800  12.230   5.420
 3691DOPG   D2B66154  12.760  12.510   5.800
 3691DOPG   C3B66155  13.080  12.860   5.960
 3691DOPG   C4B66156  13.070  13.240   6.140
 3692DOPG   GL066157  34.990  20.150  10.250
 3692DOPG   PO466158  34.940  20.180   9.900
 3692DOPG   GL166159  35.370  20.420   9.940
 3692DOPG   GL266160  35.570  20.500   9.670
 3692DOPG   C1A66161  35.690  20.550  10.290
 3692DOPG   D2A66162  35.940  20.330  10.560
 3692DOPG   C3A66163  35.790  20.050  10.890
 3692DOPG   C4A66164  35.470  20.160  11.060
 3692DOPG   C1B66165  36.090  20.610   9.640
 3692DOPG   D2B66166   0.050  20.570   9.780
 3692DOPG   C3B66167   0.460  20.770   9.760
 3692DOPG   C4B66168   0.860  20.760   9.900
 3693DOPG   GL066169   0.970  27.990  11.930
 3693DOPG   PO466170   0.890  27.600  12.190
 3693DOPG   GL166171   1.010  27.300  12.360
 3693DOPG   GL266172   0.910  27.040  12.650
 3693DOPG   C1A66173   1.350  27.360  12.600
 3693DOPG   D2A66174   1.660  27.160  12.640
 3693DOPG   C3A66175   1.930  27.130  13.030
 3693DOPG   C4A66176   2.060  26.920  13.350
 3693DOPG   C1B66177   1.270  26.750  12.640
 3693DOPG   D2B66178   1.380  26.400  12.800
 3693DOPG   C3B66179   1.820  26.360  12.990
 3693DOPG   C4B66180   2.050  26.110  13.290
 3694DOPG   GL066181   8.590  18.210   2.710
 3694DOPG   PO466182   8.490  18.550   2.940
 3694DOPG   GL166183   8.460  18.690   3.390
 3694DOPG   GL266184   8.400  18.940   3.460
 3694DOPG   C1A66185   8.660  18.550   3.860
 3694DOPG   D2A66186   8.680  18.700   4.260
 3694DOPG   C3A66187   9.060  18.750   4.460
 3694DOPG   C4A66188   9.220  18.900   4.770
 3694DOPG   C1B66189   8.740  19.090   3.740
 3694DOPG   D2B66190   8.980  19.100   4.130
 3694DOPG   C3B66191   8.930  19.270   4.600
 3694DOPG   C4B66192   8.740  19.600   4.770
 3695DOPG   GL066193  11.850  15.310  14.380
 3695DOPG   PO466194  12.270  15.190  14.550
 3695DOPG   GL166195  12.440  14.820  14.380
 3695DOPG   GL266196  12.700  14.750  14.630
 3695DOPG   C1A66197  12.740  14.520  14.220
 3695DOPG   D2A66198  13.110  14.200  14.180
 3695DOPG   C3A66199  13.510  14.200  14.250
 3695DOPG   C4A66200  13.840  14.310  13.870
 3695DOPG   C1B66201  12.950  14.400  14.680
 3695DOPG   D2B66202  13.340  14.240  14.910
 3695DOPG   C3B66203  13.680  14.000  14.670
 3695DOPG   C4B66204  13.660  13.650  14.350
 3696DOPG   GL066205   9.390  16.970  13.880
 3696DOPG   PO466206   9.000  16.850  13.680
 3696DOPG   GL166207   8.670  16.650  13.400
 3696DOPG   GL266208   8.390  16.750  13.520
 3696DOPG   C1A66209   8.500  16.320  13.340
 3696DOPG   D2A66210   8.080  16.280  13.450
 3696DOPG   C3A66211   7.930  16.250  13.160
 3696DOPG   C4A66212   7.920  16.120  12.670
 3696DOPG   C1B66213   7.930  16.770  13.450
 3696DOPG   D2B66214   7.390  16.850  13.350
 3696DOPG   C3B66215   7.090  17.100  13.220
 3696DOPG   C4B66216   6.850  17.230  12.890
 3697DOPG   GL066217  11.710   7.680   8.450
 3697DOPG   PO466218  12.120   7.930   8.500
 3697DOPG   GL166219  12.050   8.350   8.740
 3697DOPG   GL266220  12.350   8.440   9.140
 3697DOPG   C1A66221  11.750   8.600   8.980
 3697DOPG   D2A66222  11.700   9.000   8.920
 3697DOPG   C3A66223  11.350   9.210   8.740
 3697DOPG   C4A66224  11.210   9.550   8.850
 3697DOPG   C1B66225  12.190   8.880   9.180
 3697DOPG   D2B66226  12.260   9.270   9.270
 3697DOPG   C3B66227  12.160   9.440   9.690
 3697DOPG   C4B66228  12.280   9.800   9.910
 3698DOPG   GL066229   6.250  13.490  24.420
 3698DOPG   PO466230   6.020  13.510  23.970
 3698DOPG   GL166231   6.450  13.380  23.680
 3698DOPG   GL266232   6.250  13.310  23.400
 3698DOPG   C1A66233   6.650  13.590  23.280
 3698DOPG   D2A66234   6.810  13.550  22.830
 3698DOPG   C3A66235   6.940  13.910  22.560
 3698DOPG   C4A66236   6.740  14.180  22.280
 3698DOPG   C1B66237   6.100  13.700  23.250
 3698DOPG   D2B66238   5.960  13.960  22.890
 3698DOPG   C3B66239   5.880  14.090  22.530
 3698DOPG   C4B66240   5.800  14.300  22.100
 3699DOPG   GL066241   4.350  17.570   3.990
 3699DOPG   PO466242   4.010  17.550   4.320
 3699DOPG   GL166243   4.070  17.380   4.770
 3699DOPG   GL266244   3.940  17.510   5.050
 3699DOPG   C1A66245   4.470  17.480   4.920
 3699DOPG   D2A66246   4.790  17.440   5.130
 3699DOPG   C3A66247   4.620  17.520   5.570
 3699DOPG   C4A66248   4.520  17.670   5.940
 3699DOPG   C1B66249   4.170  17.970   5.060
 3699DOPG   D2B66250   4.530  18.330   4.910
 3699DOPG   C3B66251   4.860  18.320   5.140
 3699DOPG   C4B66252   5.020  18.400   5.640
 3700DOPG   GL066253   8.770  18.920  15.190
 3700DOPG   PO466254   8.770  18.470  15.310
 3700DOPG   GL166255   8.410  18.730  15.430
 3700DOPG   GL266256   8.130  19.080  15.530
 3700DOPG   C1A66257   8.030  18.650  15.230
 3700DOPG   D2A66258   7.620  18.600  15.500
 3700DOPG   C3A66259   7.280  18.840  15.510
 3700DOPG   C4A66260   6.850  18.700  15.370
 3700DOPG   C1B66261   7.750  18.970  15.750
 3700DOPG   D2B66262   7.520  19.150  16.140
 3700DOPG   C3B66263   7.690  19.160  16.560
 3700DOPG   C4B66264   8.130  19.360  16.710
 3701DOPG   GL066265  12.960  20.020  17.750
 3701DOPG   PO466266  13.360  20.270  17.740
 3701DOPG   GL166267  13.130  20.260  18.110
 3701DOPG   GL266268  12.830  20.200  18.150
 3701DOPG   C1A66269  13.340  20.170  18.500
 3701DOPG   D2A66270  13.230  20.360  18.960
 3701DOPG   C3A66271  13.340  20.120  19.260
 3701DOPG   C4A66272  13.140  20.030  19.650
 3701DOPG   C1B66273  12.840  20.540  18.490
 3701DOPG   D2B66274  13.000  20.780  18.890
 3701DOPG   C3B66275  12.620  20.770  19.170
 3701DOPG   C4B66276  12.220  20.780  19.440
 3702DOPG   GL066277   6.670  22.240  13.410
 3702DOPG   PO466278   6.560  22.730  13.490
 3702DOPG   GL166279   7.040  22.710  13.660
 3702DOPG   GL266280   7.300  22.520  13.560
 3702DOPG   C1A66281   7.260  22.560  14.030
 3702DOPG   D2A66282   7.650  22.700  14.320
 3702DOPG   C3A66283   7.490  23.160  14.290
 3702DOPG   C4A66284   7.290  23.500  14.080
 3702DOPG   C1B66285   7.610  22.280  13.740
 3702DOPG   D2B66286   7.970  22.340  13.960
 3702DOPG   C3B66287   8.240  22.350  13.700
 3702DOPG   C4B66288   8.340  22.350  13.250
 3703DOPG   GL066289  34.680  19.420  19.220
 3703DOPG   PO466290  34.510  19.650  18.980
 3703DOPG   GL166291  34.810  19.750  18.760
 3703DOPG   GL266292  35.180  19.560  18.790
 3703DOPG   C1A66293  35.050  20.180  18.570
 3703DOPG   D2A66294  35.060  20.600  18.370
 3703DOPG   C3A66295  35.280  20.810  18.050
 3703DOPG   C4A66296  35.600  20.700  17.710
 3703DOPG   C1B66297  35.430  19.920  18.840
 3703DOPG   D2B66298  35.530  20.310  18.780
 3703DOPG   C3B66299  35.930  20.530  18.810
 3703DOPG   C4B66300  36.030  20.920  19.000
 3704DOPG   GL066301   4.160  20.010   4.470
 3704DOPG   PO466302   4.520  20.050   4.340
 3704DOPG   GL166303   4.590  20.110   4.760
 3704DOPG   GL266304   4.870  19.940   4.690
 3704DOPG   C1A66305   4.850  20.350   5.090
 3704DOPG   D2A66306   5.200  20.500   5.190
 3704DOPG   C3A66307   5.260  20.810   5.490
 3704DOPG   C4A66308   5.400  20.780   5.910
 3704DOPG   C1B66309   4.840  19.780   5.080
 3704DOPG   D2B66310   4.500  19.520   5.230
 3704DOPG   C3B66311   4.150  19.770   5.290
 3704DOPG   C4B66312   4.120  20.170   5.560
 3705DOPG   GL066313  18.680  23.900  22.960
 3705DOPG   PO466314  18.430  23.570  23.020
 3705DOPG   GL166315  18.170  23.340  22.880
 3705DOPG   GL266316  17.920  23.550  22.990
 3705DOPG   C1A66317  18.010  23.290  22.480
 3705DOPG   D2A66318  17.670  23.210  22.330
 3705DOPG   C3A66319  17.370  22.770  22.460
 3705DOPG   C4A66320  16.970  22.580  22.250
 3705DOPG   C1B66321  17.700  23.170  22.890
 3705DOPG   D2B66322  17.770  22.760  22.750
 3705DOPG   C3B66323  17.950  22.330  22.540
 3705DOPG   C4B66324  17.950  21.950  22.180
 3706DOPG   GL066325  11.730  24.730  19.890
 3706DOPG   PO466326  11.560  24.350  19.610
 3706DOPG   GL166327  11.350  24.020  19.520
 3706DOPG   GL266328  11.450  23.870  19.830
 3706DOPG   C1A66329  11.060  23.810  19.290
 3706DOPG   D2A66330  10.670  23.660  19.200
 3706DOPG   C3A66331  10.600  23.320  19.140
 3706DOPG   C4A66332  10.490  23.030  19.410
 3706DOPG   C1B66333  11.780  23.560  19.810
 3706DOPG   D2B66334  11.900  23.160  19.460
 3706DOPG   C3B66335  11.540  22.930  19.590
 3706DOPG   C4B66336  11.370  22.800  20.130
 3707DOPG   GL066337   5.100  24.730  25.360
 3707DOPG   PO466338   4.790  24.600  25.080
 3707DOPG   GL166339   4.980  24.520  24.690
 3707DOPG   GL266340   5.140  24.260  24.860
 3707DOPG   C1A66341   5.030  24.310  24.310
 3707DOPG   D2A66342   5.040  23.890  24.120
 3707DOPG   C3A66343   5.330  23.630  24.190
 3707DOPG   C4A66344   5.450  23.180  24.230
 3707DOPG   C1B66345   5.010  23.890  24.660
 3707DOPG   D2B66346   4.600  23.750  24.790
 3707DOPG   C3B66347   4.420  23.620  24.520
 3707DOPG   C4B66348   4.040  23.520  24.470
 3708DOPG   GL066349   0.620  21.020   7.050
 3708DOPG   PO466350   0.460  20.590   7.180
 3708DOPG   GL166351   0.710  20.700   7.550
 3708DOPG   GL266352   0.900  21.050   7.520
 3708DOPG   C1A66353   1.010  20.660   7.870
 3708DOPG   D2A66354   1.340  20.360   8.070
 3708DOPG   C3A66355   1.640  20.530   8.410
 3708DOPG   C4A66356   1.820  20.920   8.550
 3708DOPG   C1B66357   1.120  21.140   7.790
 3708DOPG   D2B66358   1.390  20.940   8.060
 3708DOPG   C3B66359   1.200  20.880   8.480
 3708DOPG   C4B66360   1.200  20.980   8.960
 3709DOPG   GL066361   2.550  28.100  10.920
 3709DOPG   PO466362   2.240  27.830  10.610
 3709DOPG   GL166363   2.240  27.400  10.810
 3709DOPG   GL266364   2.010  27.280  10.990
 3709DOPG   C1A66365   2.580  27.310  11.070
 3709DOPG   D2A66366   2.800  27.070  11.370
 3709DOPG   C3A66367   3.010  26.780  11.250
 3709DOPG   C4A66368   3.350  26.670  11.150
 3709DOPG   C1B66369   2.240  26.960  10.980
 3709DOPG   D2B66370   2.260  26.530  10.990
 3709DOPG   C3B66371   2.480  26.210  11.060
 3709DOPG   C4B66372   2.780  25.950  11.040
 3710DOPG   GL066373   1.050  23.930   7.310
 3710DOPG   PO466374   1.240  23.560   7.230
 3710DOPG   GL166375   1.360  23.440   7.610
 3710DOPG   GL266376   1.470  23.660   7.860
 3710DOPG   C1A66377   1.270  23.300   8.070
 3710DOPG   D2A66378   1.650  23.240   8.300
 3710DOPG   C3A66379   1.730  23.000   8.650
 3710DOPG   C4A66380   1.750  22.880   9.000
 3710DOPG   C1B66381   1.870  23.480   7.750
 3710DOPG   D2B66382   2.270  23.460   7.640
 3710DOPG   C3B66383   2.530  23.100   7.860
 3710DOPG   C4B66384   2.970  23.160   8.030
 3711DOPG   GL066385  13.720  21.160  13.460
 3711DOPG   PO466386  14.100  21.410  13.290
 3711DOPG   GL166387  14.270  21.630  13.440
 3711DOPG   GL266388  14.600  21.530  13.430
 3711DOPG   C1A66389  14.320  22.100  13.290
 3711DOPG   D2A66390  14.680  22.200  13.510
 3711DOPG   C3A66391  14.940  22.620  13.600
 3711DOPG   C4A66392  15.300  22.860  13.620
 3711DOPG   C1B66393  14.690  21.800  13.160
 3711DOPG   D2B66394  14.900  22.140  12.940
 3711DOPG   C3B66395  14.920  22.090  12.480
 3711DOPG   C4B66396  15.270  21.990  12.300
 3712DOPG   GL066397  11.000  22.570  16.500
 3712DOPG   PO466398  10.800  22.730  16.860
 3712DOPG   GL166399  10.370  22.920  16.740
 3712DOPG   GL266400  10.540  23.130  16.980
 3712DOPG   C1A66401  10.170  23.320  16.730
 3712DOPG   D2A66402   9.790  23.600  16.580
 3712DOPG   C3A66403   9.880  23.970  16.780
 3712DOPG   C4A66404  10.090  24.070  17.180
 3712DOPG   C1B66405  10.780  23.430  17.150
 3712DOPG   D2B66406  10.840  23.680  17.390
 3712DOPG   C3B66407  11.040  23.600  17.840
 3712DOPG   C4B66408  10.940  23.740  18.310
 3713DOPG   GL066409  36.110  24.940  20.470
 3713DOPG   PO466410  36.010  24.560  20.510
 3713DOPG   GL166411  36.360  24.370  20.350
 3713DOPG   GL266412  36.350  24.330  20.060
 3713DOPG   C1A66413   0.470  24.480  20.310
 3713DOPG   D2A66414   0.820  24.200  20.090
 3713DOPG   C3A66415   1.110  24.160  19.750
 3713DOPG   C4A66416   1.280  24.280  19.320
 3713DOPG   C1B66417   0.360  24.290  19.910
 3713DOPG   D2B66418   0.620  23.980  19.700
 3713DOPG   C3B66419   0.780  23.890  19.290
 3713DOPG   C4B66420   0.920  23.630  18.920
 3714DOPG   GL066421  10.190  25.240  11.270
 3714DOPG   PO466422  10.360  25.190  11.720
 3714DOPG   GL166423  10.520  24.790  11.750
 3714DOPG   GL266424  10.300  24.700  12.020
 3714DOPG   C1A66425  10.830  24.610  12.070
 3714DOPG   D2A66426  10.990  24.380  12.370
 3714DOPG   C3A66427  10.850  24.620  12.760
 3714DOPG   C4A66428  10.970  24.830  13.030
 3714DOPG   C1B66429  10.360  24.660  12.430
 3714DOPG   D2B66430  10.370  24.690  12.910
 3714DOPG   C3B66431  10.720  24.460  13.250
 3714DOPG   C4B66432  11.020  24.340  13.690
 3715DOPG   GL066433   9.320  25.200  26.450
 3715DOPG   PO466434   9.450  24.720  26.320
 3715DOPG   GL166435   9.550  24.550  25.960
 3715DOPG   GL266436   9.910  24.670  25.790
 3715DOPG   C1A66437   9.420  24.330  25.610
 3715DOPG   D2A66438   9.030  24.480  25.450
 3715DOPG   C3A66439   9.110  24.260  25.040
 3715DOPG   C4A66440   9.140  24.370  24.690
 3715DOPG   C1B66441   9.760  24.620  25.290
 3715DOPG   D2B66442  10.080  24.630  24.990
 3715DOPG   C3B66443  10.240  24.360  24.780
 3715DOPG   C4B66444  10.210  24.130  24.400
 3716DOPG   GL066445   1.440  19.340  23.800
 3716DOPG   PO466446   1.880  19.290  23.960
 3716DOPG   GL166447   2.400  19.260  23.790
 3716DOPG   GL266448   2.620  19.070  23.900
 3716DOPG   C1A66449   2.800  19.450  23.630
 3716DOPG   D2A66450   3.230  19.800  23.690
 3716DOPG   C3A66451   3.340  19.810  24.120
 3716DOPG   C4A66452   3.470  19.580  24.360
 3716DOPG   C1B66453   3.020  19.310  24.040
 3716DOPG   D2B66454   3.450  19.370  23.890
 3716DOPG   C3B66455   3.610  19.330  23.510
 3716DOPG   C4B66456   3.580  19.340  23.050
 3717DOPG   GL066457  10.850  23.140   3.550
 3717DOPG   PO466458  11.170  23.130   3.830
 3717DOPG   GL166459  11.250  22.920   4.130
 3717DOPG   GL266460  11.050  22.660   4.110
 3717DOPG   C1A66461  11.360  22.990   4.530
 3717DOPG   D2A66462  11.160  23.040   4.880
 3717DOPG   C3A66463  10.940  23.450   4.940
 3717DOPG   C4A66464  10.860  23.630   5.320
 3717DOPG   C1B66465  10.860  22.630   4.460
 3717DOPG   D2B66466  10.370  22.650   4.630
 3717DOPG   C3B66467  10.300  22.580   5.070
 3717DOPG   C4B66468   9.890  22.530   5.200
 3718DOPG   GL066469   3.970  10.750  20.560
 3718DOPG   PO466470   4.240  10.990  20.320
 3718DOPG   GL166471   4.320  11.390  20.290
 3718DOPG   GL266472   4.040  11.690  20.330
 3718DOPG   C1A66473   4.700  11.480  20.250
 3718DOPG   D2A66474   4.850  11.870  20.120
 3718DOPG   C3A66475   5.240  11.880  19.960
 3718DOPG   C4A66476   5.640  11.640  19.910
 3718DOPG   C1B66477   4.260  11.830  20.000
 3718DOPG   D2B66478   4.360  12.280  19.690
 3718DOPG   C3B66479   4.600  12.210  19.220
 3718DOPG   C4B66480   5.130  12.140  19.140
 3719DOPG   GL066481  15.740  18.460  14.210
 3719DOPG   PO466482  15.510  18.250  13.940
 3719DOPG   GL166483  15.890  18.210  13.800
 3719DOPG   GL266484  15.850  18.080  13.480
 3719DOPG   C1A66485  16.240  18.100  13.900
 3719DOPG   D2A66486  16.540  17.760  13.890
 3719DOPG   C3A66487  16.680  17.510  14.320
 3719DOPG   C4A66488  16.680  17.380  14.770
 3719DOPG   C1B66489  16.170  18.330  13.380
 3719DOPG   D2B66490  16.610  18.260  13.320
 3719DOPG   C3B66491  16.770  17.750  13.440
 3719DOPG   C4B66492  16.660  17.340  13.440
 3720DOPG   GL066493   8.530  25.230   4.640
 3720DOPG   PO466494   8.350  24.820   4.690
 3720DOPG   GL166495   8.370  24.770   5.040
 3720DOPG   GL266496   8.370  25.000   5.190
 3720DOPG   C1A66497   8.480  24.470   5.360
 3720DOPG   D2A66498   8.490  24.110   5.590
 3720DOPG   C3A66499   8.570  24.000   6.050
 3720DOPG   C4A66500   8.570  24.050   6.430
 3720DOPG   C1B66501   8.560  24.950   5.500
 3720DOPG   D2B66502   8.700  24.890   6.000
 3720DOPG   C3B66503   8.700  25.040   6.390
 3720DOPG   C4B66504   8.500  25.020   6.770
 3721DOPG   GL066505   6.230  14.070  10.130
 3721DOPG   PO466506   6.020  14.260   9.900
 3721DOPG   GL166507   5.780  14.030   9.640
 3721DOPG   GL266508   5.430  13.850   9.680
 3721DOPG   C1A66509   5.520  14.110   9.270
 3721DOPG   D2A66510   5.330  14.090   8.850
 3721DOPG   C3A66511   5.150  13.960   8.360
 3721DOPG   C4A66512   4.910  13.770   8.150
 3721DOPG   C1B66513   5.040  13.860   9.400
 3721DOPG   D2B66514   4.940  13.790   8.970
 3721DOPG   C3B66515   4.930  13.450   8.730
 3721DOPG   C4B66516   4.990  13.250   8.310
 3722DOPG   GL066517  24.100  19.200  12.610
 3722DOPG   PO466518  24.080  19.370  12.980
 3722DOPG   GL166519  23.630  19.210  13.080
 3722DOPG   GL266520  23.590  19.530  13.290
 3722DOPG   C1A66521  23.290  18.950  13.070
 3722DOPG   D2A66522  22.950  18.770  13.160
 3722DOPG   C3A66523  22.740  18.660  12.760
 3722DOPG   C4A66524  22.330  18.690  12.620
 3722DOPG   C1B66525  23.220  19.570  13.110
 3722DOPG   D2B66526  22.880  19.690  12.890
 3722DOPG   C3B66527  22.720  19.530  12.550
 3722DOPG   C4B66528  22.270  19.550  12.450
 3723DOPG   GL066529  11.590  29.900  10.030
 3723DOPG   PO466530  11.310  30.270  10.180
 3723DOPG   GL166531  11.170  29.730  10.320
 3723DOPG   GL266532  11.060  29.490  10.030
 3723DOPG   C1A66533  10.940  29.300  10.560
 3723DOPG   D2A66534  10.680  29.260  10.850
 3723DOPG   C3A66535  10.680  28.920  10.880
 3723DOPG   C4A66536  10.770  28.640  11.230
 3723DOPG   C1B66537  10.740  29.090  10.180
 3723DOPG   D2B66538  10.670  28.710  10.440
 3723DOPG   C3B66539  10.390  28.510  10.730
 3723DOPG   C4B66540  10.260  28.390  11.220
 3724DOPG   GL066541  16.920  26.820   6.650
 3724DOPG   PO466542  17.060  26.890   7.010
 3724DOPG   GL166543  16.810  26.530   7.290
 3724DOPG   GL266544  16.740  26.470   6.970
 3724DOPG   C1A66545  16.560  26.180   7.540
 3724DOPG   D2A66546  16.240  25.930   7.800
 3724DOPG   C3A66547  15.800  26.190   7.870
 3724DOPG   C4A66548  15.420  26.110   7.960
 3724DOPG   C1B66549  16.370  26.430   7.060
 3724DOPG   D2B66550  16.040  26.450   7.150
 3724DOPG   C3B66551  15.890  26.040   7.250
 3724DOPG   C4B66552  15.570  25.750   7.530
 3725DOPG   GL066553  11.990  17.310  17.300
 3725DOPG   PO466554  12.310  17.660  17.230
 3725DOPG   GL166555  12.480  17.390  17.560
 3725DOPG   GL266556  12.680  17.610  17.750
 3725DOPG   C1A66557  12.510  17.270  17.990
 3725DOPG   D2A66558  12.550  17.200  18.320
 3725DOPG   C3A66559  12.780  16.900  18.480
 3725DOPG   C4A66560  12.500  16.560  18.450
 3725DOPG   C1B66561  12.920  17.260  17.770
 3725DOPG   D2B66562  12.860  16.940  17.990
 3725DOPG   C3B66563  13.100  16.740  18.080
 3725DOPG   C4B66564  13.360  16.850  18.410
 3726DOPG   GL066565  12.240  17.730  11.960
 3726DOPG   PO466566  12.030  17.600  11.600
 3726DOPG   GL166567  11.690  17.300  11.340
 3726DOPG   GL266568  11.970  17.040  11.410
 3726DOPG   C1A66569  11.810  17.160  10.840
 3726DOPG   D2A66570  12.110  16.800  10.580
 3726DOPG   C3A66571  12.070  16.800  10.150
 3726DOPG   C4A66572  12.070  16.650   9.710
 3726DOPG   C1B66573  11.980  16.720  11.080
 3726DOPG   D2B66574  12.160  16.280  10.990
 3726DOPG   C3B66575  11.920  16.220  10.570
 3726DOPG   C4B66576  11.650  15.870  10.570
 3727DOPG   GL066577  10.080  19.720  16.980
 3727DOPG   PO466578   9.620  19.830  17.110
 3727DOPG   GL166579   9.150  19.750  17.260
 3727DOPG   GL266580   9.160  19.840  17.620
 3727DOPG   C1A66581   8.770  19.670  17.360
 3727DOPG   D2A66582   8.490  19.760  17.690
 3727DOPG   C3A66583   8.370  19.610  18.110
 3727DOPG   C4A66584   8.190  19.670  18.500
 3727DOPG   C1B66585   9.050  20.240  17.620
 3727DOPG   D2B66586   8.950  20.680  17.640
 3727DOPG   C3B66587   8.640  21.040  17.490
 3727DOPG   C4B66588   8.300  21.020  17.230
 3728DOPG   GL066589  12.080  18.920  17.800
 3728DOPG   PO466590  12.310  18.860  18.170
 3728DOPG   GL166591  12.200  18.820  18.560
 3728DOPG   GL266592  12.360  19.150  18.600
 3728DOPG   C1A66593  12.180  18.540  18.890
 3728DOPG   D2A66594  12.460  18.450  19.180
 3728DOPG   C3A66595  12.570  18.870  19.380
 3728DOPG   C4A66596  12.860  19.100  19.350
 3728DOPG   C1B66597  12.590  18.980  18.890
 3728DOPG   D2B66598  12.870  18.670  18.950
 3728DOPG   C3B66599  13.270  18.720  18.840
 3728DOPG   C4B66600  13.710  18.700  18.680
 3729DOPG   GL066601  10.160  21.070  13.120
 3729DOPG   PO466602   9.960  20.800  12.850
 3729DOPG   GL166603   9.810  21.010  12.570
 3729DOPG   GL266604   9.580  20.930  12.590
 3729DOPG   C1A66605   9.740  21.120  12.090
 3729DOPG   D2A66606   9.490  21.160  11.820
 3729DOPG   C3A66607   9.200  20.860  11.720
 3729DOPG   C4A66608   8.860  20.570  11.580
 3729DOPG   C1B66609   9.230  20.970  12.260
 3729DOPG   D2B66610   8.880  20.560  12.100
 3729DOPG   C3B66611   8.510  20.710  12.220
 3729DOPG   C4B66612   8.050  20.700  12.260
 3730DOPG   GL066613  10.520  18.910  11.980
 3730DOPG   PO466614  10.230  18.890  11.730
 3730DOPG   GL166615  10.000  19.190  11.520
 3730DOPG   GL266616  10.140  19.090  11.200
 3730DOPG   C1A66617   9.770  19.410  11.350
 3730DOPG   D2A66618   9.450  19.590  11.350
 3730DOPG   C3A66619   9.360  20.010  11.030
 3730DOPG   C4A66620   9.480  20.430  10.830
 3730DOPG   C1B66621   9.840  19.100  10.920
 3730DOPG   D2B66622   9.720  19.170  10.450
 3730DOPG   C3B66623   9.890  19.550  10.280
 3730DOPG   C4B66624  10.160  19.710  10.020
 3731DOPG   GL066625   7.100  26.170  25.330
 3731DOPG   PO466626   6.920  25.780  25.140
 3731DOPG   GL166627   7.040  25.910  24.700
 3731DOPG   GL266628   7.270  26.130  24.580
 3731DOPG   C1A66629   6.860  25.800  24.400
 3731DOPG   D2A66630   6.790  25.680  23.990
 3731DOPG   C3A66631   6.880  25.950  23.670
 3731DOPG   C4A66632   6.610  26.060  23.270
 3731DOPG   C1B66633   7.630  26.110  24.410
 3731DOPG   D2B66634   8.040  26.120  24.300
 3731DOPG   C3B66635   8.300  25.940  24.000
 3731DOPG   C4B66636   8.490  26.220  23.760
 3732DOPG   GL066637  12.350  20.810  12.100
 3732DOPG   PO466638  12.770  20.770  11.810
 3732DOPG   GL166639  12.690  20.770  11.310
 3732DOPG   GL266640  12.880  20.990  11.130
 3732DOPG   C1A66641  12.630  20.680  10.850
 3732DOPG   D2A66642  12.650  20.520  10.470
 3732DOPG   C3A66643  12.940  20.880  10.300
 3732DOPG   C4A66644  13.030  21.320  10.520
 3732DOPG   C1B66645  13.080  20.850  10.770
 3732DOPG   D2B66646  13.410  20.840  10.490
 3732DOPG   C3B66647  13.820  20.620  10.370
 3732DOPG   C4B66648  14.080  20.410  10.210
 3733DOPG   GL066649   2.160  28.120  19.650
 3733DOPG   PO466650   1.710  28.080  19.400
 3733DOPG   GL166651   2.060  28.050  19.150
 3733DOPG   GL266652   2.370  28.190  19.210
 3733DOPG   C1A66653   2.300  27.620  18.900
 3733DOPG   D2A66654   2.690  27.500  18.730
 3733DOPG   C3A66655   2.780  27.090  18.770
 3733DOPG   C4A66656   2.940  26.690  18.760
 3733DOPG   C1B66657   2.650  28.440  18.880
 3733DOPG   D2B66658   2.620  28.420  18.410
 3733DOPG   C3B66659   2.880  28.130  18.120
 3733DOPG   C4B66660   3.140  27.870  18.010
 3734DOPG   GL066661  11.700  23.040  16.730
 3734DOPG   PO466662  11.390  22.750  16.740
 3734DOPG   GL166663  11.390  22.990  17.160
 3734DOPG   GL266664  11.450  22.920  17.470
 3734DOPG   C1A66665  11.020  23.200  17.470
 3734DOPG   D2A66666  11.050  23.050  17.830
 3734DOPG   C3A66667  10.860  23.100  18.190
 3734DOPG   C4A66668  10.600  23.280  18.600
 3734DOPG   C1B66669  11.520  22.750  18.010
 3734DOPG   D2B66670  11.510  22.690  18.410
 3734DOPG   C3B66671  11.750  22.960  18.550
 3734DOPG   C4B66672  12.080  23.230  18.570
 3735DOPG   GL066673   5.620  30.640  11.970
 3735DOPG   PO466674   5.560  30.200  12.060
 3735DOPG   GL166675   5.650  29.760  12.080
 3735DOPG   GL266676   6.030  29.890  12.180
 3735DOPG   C1A66677   5.520  29.330  12.010
 3735DOPG   D2A66678   5.640  29.000  12.230
 3735DOPG   C3A66679   5.760  28.520  12.040
 3735DOPG   C4A66680   5.820  28.310  11.650
 3735DOPG   C1B66681   6.470  29.730  12.070
 3735DOPG   D2B66682   6.580  29.370  11.940
 3735DOPG   C3B66683   6.400  29.180  11.610
 3735DOPG   C4B66684   6.060  29.130  11.370
 3736DOPG   GL066685  22.150  21.350   7.870
 3736DOPG   PO466686  21.860  21.360   8.210
 3736DOPG   GL166687  21.420  21.550   8.290
 3736DOPG   GL266688  21.220  21.600   8.030
 3736DOPG   C1A66689  21.060  21.440   8.540
 3736DOPG   D2A66690  20.720  21.080   8.690
 3736DOPG   C3A66691  20.370  21.170   8.900
 3736DOPG   C4A66692  20.180  21.340   9.170
 3736DOPG   C1B66693  20.810  21.430   8.110
 3736DOPG   D2B66694  20.540  21.490   8.510
 3736DOPG   C3B66695  20.270  21.690   8.770
 3736DOPG   C4B66696  19.980  21.970   8.990
 3737DOPG   GL066697  21.860  12.610   9.710
 3737DOPG   PO466698  21.540  12.770   9.800
 3737DOPG   GL166699  21.310  13.040  10.050
 3737DOPG   GL266700  21.510  13.090  10.310
 3737DOPG   C1A66701  20.950  13.140  10.180
 3737DOPG   D2A66702  20.470  13.070  10.210
 3737DOPG   C3A66703  20.320  12.950   9.860
 3737DOPG   C4A66704  19.970  13.080   9.620
 3737DOPG   C1B66705  21.350  13.480  10.490
 3737DOPG   D2B66706  21.030  13.420  10.590
 3737DOPG   C3B66707  20.920  13.370  10.980
 3737DOPG   C4B66708  20.710  13.700  11.090
 3738DOPG   GL066709   6.050  16.040  17.570
 3738DOPG   PO466710   6.080  15.660  17.350
 3738DOPG   GL166711   6.350  15.490  17.070
 3738DOPG   GL266712   6.420  15.140  17.180
 3738DOPG   C1A66713   6.700  15.570  16.750
 3738DOPG   D2A66714   7.040  15.850  16.610
 3738DOPG   C3A66715   7.000  16.220  16.360
 3738DOPG   C4A66716   6.960  16.670  16.320
 3738DOPG   C1B66717   6.740  15.380  17.370
 3738DOPG   D2B66718   6.810  15.760  17.230
 3738DOPG   C3B66719   7.230  15.870  17.220
 3738DOPG   C4B66720   7.600  15.780  17.010
 3739DOPG   GL066721  11.690  25.980  12.440
 3739DOPG   PO466722  11.350  25.610  12.580
 3739DOPG   GL166723  11.580  25.210  12.660
 3739DOPG   GL266724  11.870  25.270  12.870
 3739DOPG   C1A66725  11.760  24.770  12.560
 3739DOPG   D2A66726  11.470  24.390  12.380
 3739DOPG   C3A66727  11.200  24.030  12.770
 3739DOPG   C4A66728  11.100  24.070  13.160
 3739DOPG   C1B66729  11.680  24.960  13.180
 3739DOPG   D2B66730  11.830  24.570  13.380
 3739DOPG   C3B66731  12.200  24.210  13.410
 3739DOPG   C4B66732  12.600  24.140  13.500
 3740DOPG   GL066733   5.750  17.400  10.810
 3740DOPG   PO466734   5.970  17.600  11.110
 3740DOPG   GL166735   6.410  17.780  11.120
 3740DOPG   GL266736   6.450  17.770  11.400
 3740DOPG   C1A66737   6.820  17.560  11.180
 3740DOPG   D2A66738   7.040  17.590  11.540
 3740DOPG   C3A66739   7.200  17.910  11.870
 3740DOPG   C4A66740   7.460  17.960  12.210
 3740DOPG   C1B66741   6.850  18.060  11.440
 3740DOPG   D2B66742   7.280  18.230  11.320
 3740DOPG   C3B66743   7.740  18.200  11.220
 3740DOPG   C4B66744   8.080  18.200  11.020
 3741DOPG   GL066745   9.360  15.060  25.850
 3741DOPG   PO466746   9.280  15.320  25.570
 3741DOPG   GL166747   9.350  15.360  25.130
 3741DOPG   GL266748   9.690  15.370  25.200
 3741DOPG   C1A66749   9.490  15.410  24.760
 3741DOPG   D2A66750   9.480  15.180  24.470
 3741DOPG   C3A66751   9.440  15.280  24.060
 3741DOPG   C4A66752   9.510  15.480  23.630
 3741DOPG   C1B66753   9.600  15.800  25.000
 3741DOPG   D2B66754   9.520  16.170  24.830
 3741DOPG   C3B66755   9.800  16.210  24.560
 3741DOPG   C4B66756  10.010  16.140  24.330
 3742DOPG   GL066757  11.780  28.470  23.190
 3742DOPG   PO466758  12.110  28.290  23.530
 3742DOPG   GL166759  12.090  28.050  23.200
 3742DOPG   GL266760  11.990  28.110  22.850
 3742DOPG   C1A66761  12.190  27.660  22.980
 3742DOPG   D2A66762  12.520  27.350  22.980
 3742DOPG   C3A66763  12.800  27.070  22.770
 3742DOPG   C4A66764  13.130  27.070  22.540
 3742DOPG   C1B66765  11.910  28.040  22.420
 3742DOPG   D2B66766  12.040  27.770  22.160
 3742DOPG   C3B66767  11.720  27.390  21.920
 3742DOPG   C4B66768  11.550  27.080  21.800
 3743DOPG   GL066769  11.970  11.750  17.150
 3743DOPG   PO466770  11.960  12.040  16.740
 3743DOPG   GL166771  12.130  12.450  16.620
 3743DOPG   GL266772  12.490  12.300  16.350
 3743DOPG   C1A66773  11.890  12.860  16.590
 3743DOPG   D2A66774  11.590  13.100  16.380
 3743DOPG   C3A66775  11.680  13.270  16.000
 3743DOPG   C4A66776  11.860  13.660  15.720
 3743DOPG   C1B66777  12.660  12.530  16.560
 3743DOPG   D2B66778  12.480  12.790  16.800
 3743DOPG   C3B66779  12.490  13.140  16.660
 3743DOPG   C4B66780  12.810  13.430  16.820
 3744DOPG   GL066781   8.260  13.030  16.490
 3744DOPG   PO466782   8.500  12.910  16.920
 3744DOPG   GL166783   8.780  13.220  16.770
 3744DOPG   GL266784   8.750  13.150  16.320
 3744DOPG   C1A66785   9.010  13.500  16.530
 3744DOPG   D2A66786   9.260  13.900  16.500
 3744DOPG   C3A66787   9.320  14.260  16.730
 3744DOPG   C4A66788   9.670  14.520  16.710
 3744DOPG   C1B66789   8.860  13.430  16.000
 3744DOPG   D2B66790   9.200  13.450  15.640
 3744DOPG   C3B66791   9.240  13.830  15.490
 3744DOPG   C4B66792   9.070  14.240  15.730
 3745DOPG   GL066793   2.630  19.340   4.790
 3745DOPG   PO466794   3.060  19.180   5.100
 3745DOPG   GL166795   2.920  18.990   5.510
 3745DOPG   GL266796   2.870  19.230   5.670
 3745DOPG   C1A66797   2.970  18.810   6.060
 3745DOPG   D2A66798   3.080  18.630   6.490
 3745DOPG   C3A66799   3.020  18.840   6.850
 3745DOPG   C4A66800   2.970  18.780   7.390
 3745DOPG   C1B66801   3.290  19.150   5.810
 3745DOPG   D2B66802   3.630  19.290   6.060
 3745DOPG   C3B66803   4.010  19.480   6.250
 3745DOPG   C4B66804   4.100  19.530   6.780
 3746DOPG   GL066805  15.780  21.110  20.230
 3746DOPG   PO466806  15.730  21.250  19.750
 3746DOPG   GL166807  15.410  21.420  19.440
 3746DOPG   GL266808  15.500  21.750  19.340
 3746DOPG   C1A66809  15.350  21.520  18.960
 3746DOPG   D2A66810  15.320  21.670  18.620
 3746DOPG   C3A66811  15.610  21.680  18.260
 3746DOPG   C4A66812  15.640  21.750  17.810
 3746DOPG   C1B66813  15.820  21.590  19.060
 3746DOPG   D2B66814  16.170  21.370  19.000
 3746DOPG   C3B66815  16.230  21.130  18.590
 3746DOPG   C4B66816  16.450  20.770  18.690
 3747DOPG   GL066817  16.260  15.980  10.320
 3747DOPG   PO466818  16.330  15.520  10.300
 3747DOPG   GL166819  16.070  15.480  10.740
 3747DOPG   GL266820  16.270  15.780  10.810
 3747DOPG   C1A66821  15.670  15.470  10.960
 3747DOPG   D2A66822  15.300  15.610  11.200
 3747DOPG   C3A66823  15.150  15.600  11.590
 3747DOPG   C4A66824  15.300  15.590  12.010
 3747DOPG   C1B66825  15.860  15.930  10.920
 3747DOPG   D2B66826  15.550  16.100  11.100
 3747DOPG   C3B66827  15.650  16.480  11.370
 3747DOPG   C4B66828  15.460  16.560  11.820
 3748DOPG   GL066829  12.480  26.670  12.690
 3748DOPG   PO466830  12.210  27.070  12.630
 3748DOPG   GL166831  12.330  27.490  12.630
 3748DOPG   GL266832  12.540  27.680  12.910
 3748DOPG   C1A66833  12.120  27.850  12.600
 3748DOPG   D2A66834  11.760  28.010  12.400
 3748DOPG   C3A66835  11.620  28.060  12.000
 3748DOPG   C4A66836  11.280  28.390  12.100
 3748DOPG   C1B66837  12.670  28.040  12.620
 3748DOPG   D2B66838  12.630  28.500  12.510
 3748DOPG   C3B66839  12.860  28.850  12.510
 3748DOPG   C4B66840  12.950  29.130  12.300
 3749DOPG   GL066841  20.670  17.330  22.650
 3749DOPG   PO466842  20.790  17.500  22.210
 3749DOPG   GL166843  20.500  17.560  21.810
 3749DOPG   GL266844  20.470  17.800  21.630
 3749DOPG   C1A66845  20.110  17.440  21.570
 3749DOPG   D2A66846  19.890  17.520  21.220
 3749DOPG   C3A66847  20.040  17.400  20.820
 3749DOPG   C4A66848  20.240  17.020  20.640
 3749DOPG   C1B66849  20.000  17.920  21.430
 3749DOPG   D2B66850  19.660  17.660  21.590
 3749DOPG   C3B66851  19.360  17.540  21.450
 3749DOPG   C4B66852  19.000  17.260  21.390
 3750DOPG   GL066853  10.840  12.230  17.550
 3750DOPG   PO466854  11.150  11.950  17.370
 3750DOPG   GL166855  11.320  12.150  17.030
 3750DOPG   GL266856  11.420  11.980  16.840
 3750DOPG   C1A66857  11.130  12.430  16.860
 3750DOPG   D2A66858  11.210  12.860  16.650
 3750DOPG   C3A66859  11.120  12.890  16.240
 3750DOPG   C4A66860  11.240  13.120  15.840
 3750DOPG   C1B66861  11.060  11.950  16.660
 3750DOPG   D2B66862  10.740  12.140  16.390
 3750DOPG   C3B66863  10.750  12.160  15.920
 3750DOPG   C4B66864  11.120  12.190  15.690
 3751DOPG   GL066865  17.570  17.620  10.760
 3751DOPG   PO466866  17.760  17.200  10.780
 3751DOPG   GL166867  17.540  17.160  11.130
 3751DOPG   GL266868  17.290  17.250  11.010
 3751DOPG   C1A66869  17.480  16.820  11.330
 3751DOPG   D2A66870  17.140  16.600  11.510
 3751DOPG   C3A66871  16.880  16.850  11.760
 3751DOPG   C4A66872  17.170  17.190  12.090
 3751DOPG   C1B66873  17.180  17.210  11.480
 3751DOPG   D2B66874  16.910  17.360  11.730
 3751DOPG   C3B66875  17.150  17.700  11.840
 3751DOPG   C4B66876  16.890  18.000  12.140
 3752DOPG   GL066877  19.260  16.130  15.240
 3752DOPG   PO466878  19.270  16.430  15.480
 3752DOPG   GL166879  19.680  16.330  15.520
 3752DOPG   GL266880  19.770  16.030  15.630
 3752DOPG   C1A66881  20.120  16.340  15.480
 3752DOPG   D2A66882  20.490  16.550  15.610
 3752DOPG   C3A66883  20.920  16.370  15.720
 3752DOPG   C4A66884  21.280  16.100  15.920
 3752DOPG   C1B66885  20.120  15.800  15.800
 3752DOPG   D2B66886  20.420  15.860  16.050
 3752DOPG   C3B66887  20.840  16.020  16.140
 3752DOPG   C4B66888  21.150  16.190  16.440
 3753DOPG   GL066889   6.890  21.290  18.670
 3753DOPG   PO466890   6.630  21.740  18.550
 3753DOPG   GL166891   6.960  21.810  18.270
 3753DOPG   GL266892   6.950  22.130  18.070
 3753DOPG   C1A66893   7.420  21.670  18.160
 3753DOPG   D2A66894   7.820  21.880  17.890
 3753DOPG   C3A66895   8.100  21.680  17.640
 3753DOPG   C4A66896   8.420  21.440  17.680
 3753DOPG   C1B66897   7.300  22.090  17.760
 3753DOPG   D2B66898   7.580  22.140  17.540
 3753DOPG   C3B66899   7.800  22.490  17.490
 3753DOPG   C4B66900   8.100  22.810  17.500
 3754DOPG   GL066901  11.750  18.490  11.780
 3754DOPG   PO466902  11.570  18.830  11.720
 3754DOPG   GL166903  11.530  18.910  11.330
 3754DOPG   GL266904  11.800  18.980  11.110
 3754DOPG   C1A66905  11.390  18.590  10.950
 3754DOPG   D2A66906  11.530  18.290  10.720
 3754DOPG   C3A66907  11.640  18.530  10.350
 3754DOPG   C4A66908  11.830  18.530   9.980
 3754DOPG   C1B66909  11.600  18.980  10.720
 3754DOPG   D2B66910  11.820  18.960  10.240
 3754DOPG   C3B66911  11.450  18.840   9.920
 3754DOPG   C4B66912  11.180  18.760   9.580
 3755DOPG   GL066913   9.350   7.750  10.540
 3755DOPG   PO466914   9.460   7.710  10.110
 3755DOPG   GL166915   9.600   8.090  10.190
 3755DOPG   GL266916   9.880   8.130  10.030
 3755DOPG   C1A66917   9.570   8.600  10.110
 3755DOPG   D2A66918   9.650   8.970  10.200
 3755DOPG   C3A66919   9.770   9.420   9.970
 3755DOPG   C4A66920   9.820   9.740  10.240
 3755DOPG   C1B66921  10.060   8.500  10.210
 3755DOPG   D2B66922  10.180   8.900  10.430
 3755DOPG   C3B66923   9.880   9.280  10.500
 3755DOPG   C4B66924   9.510   9.390  10.470
 3756DOPG   GL066925  13.120  21.650  11.740
 3756DOPG   PO466926  12.830  21.710  12.090
 3756DOPG   GL166927  12.770  22.130  11.970
 3756DOPG   GL266928  12.510  22.220  11.970
 3756DOPG   C1A66929  12.940  22.650  11.980
 3756DOPG   D2A66930  12.510  22.950  11.880
 3756DOPG   C3A66931  12.330  23.190  12.280
 3756DOPG   C4A66932  12.250  23.250  12.700
 3756DOPG   C1B66933  12.620  22.450  11.580
 3756DOPG   D2B66934  12.540  22.850  11.340
 3756DOPG   C3B66935  12.230  23.170  11.530
 3756DOPG   C4B66936  12.160  23.450  11.930
 3757DOPG   GL066937   9.540  19.100  12.720
 3757DOPG   PO466938   9.810  18.780  12.490
 3757DOPG   GL166939   9.580  18.890  12.030
 3757DOPG   GL266940   9.710  18.730  11.770
 3757DOPG   C1A66941   9.160  19.020  11.860
 3757DOPG   D2A66942   8.710  18.860  12.010
 3757DOPG   C3A66943   8.380  19.150  12.110
 3757DOPG   C4A66944   8.100  19.310  12.270
 3757DOPG   C1B66945   9.420  19.040  11.480
 3757DOPG   D2B66946   9.040  19.230  11.300
 3757DOPG   C3B66947   8.770  19.080  11.120
 3757DOPG   C4B66948   8.450  19.080  11.010
 3758DOPG   GL066949  12.910  19.910  17.280
 3758DOPG   PO466950  13.380  20.040  17.240
 3758DOPG   GL166951  13.740  19.890  17.470
 3758DOPG   GL266952  13.850  20.110  17.720
 3758DOPG   C1A66953  13.900  19.630  17.880
 3758DOPG   D2A66954  14.100  19.680  18.290
 3758DOPG   C3A66955  14.400  19.910  18.450
 3758DOPG   C4A66956  14.770  19.750  18.650
 3758DOPG   C1B66957  13.870  20.140  18.200
 3758DOPG   D2B66958  14.280  20.420  18.200
 3758DOPG   C3B66959  14.450  20.740  18.540
 3758DOPG   C4B66960  14.730  21.060  18.500
 3759DOPG   GL066961  12.540  22.280  13.770
 3759DOPG   PO466962  12.760  22.250  14.190
 3759DOPG   GL166963  13.090  22.550  14.180
 3759DOPG   GL266964  13.390  22.430  14.110
 3759DOPG   C1A66965  13.180  22.860  14.040
 3759DOPG   D2A66966  13.490  23.070  13.800
 3759DOPG   C3A66967  13.720  23.570  13.890
 3759DOPG   C4A66968  13.530  23.990  13.900
 3759DOPG   C1B66969  13.920  22.520  14.040
 3759DOPG   D2B66970  14.310  22.850  13.960
 3759DOPG   C3B66971  14.670  22.620  13.990
 3759DOPG   C4B66972  14.970  22.230  13.970
 3760DOPG   GL066973  34.250  23.570  13.220
 3760DOPG   PO466974  34.100  23.980  13.120
 3760DOPG   GL166975  34.490  24.010  13.160
 3760DOPG   GL266976  34.640  23.870  13.470
 3760DOPG   C1A66977  34.980  24.080  13.150
 3760DOPG   D2A66978  35.410  24.180  13.160
 3760DOPG   C3A66979  35.520  24.510  13.360
 3760DOPG   C4A66980  35.740  24.900  13.440
 3760DOPG   C1B66981  34.870  23.750  13.810
 3760DOPG   D2B66982  35.290  23.560  13.810
 3760DOPG   C3B66983  35.620  23.480  14.040
 3760DOPG   C4B66984  35.950  23.180  14.020
 3761DOPG   GL066985   4.510  19.520   3.390
 3761DOPG   PO466986   4.730  19.380   3.790
 3761DOPG   GL166987   4.720  19.110   4.230
 3761DOPG   GL266988   4.920  18.800   4.370
 3761DOPG   C1A66989   4.730  19.240   4.700
 3761DOPG   D2A66990   4.870  19.200   5.190
 3761DOPG   C3A66991   4.720  19.250   5.590
 3761DOPG   C4A66992   4.660  19.010   5.940
 3761DOPG   C1B66993   4.940  18.690   4.770
 3761DOPG   D2B66994   5.190  18.690   5.050
 3761DOPG   C3B66995   5.420  19.060   5.270
 3761DOPG   C4B66996   5.710  19.390   5.420
 3762DOPG   GL066997   7.500   7.120  14.800
 3762DOPG   PO466998   7.800   7.140  15.070
 3762DOPG   GL166999   7.800   7.540  15.000
 3762DOPG   GL267000   8.120   7.760  14.790
 3762DOPG   C1A67001   7.590   7.950  14.990
 3762DOPG   D2A67002   7.240   8.080  14.860
 3762DOPG   C3A67003   7.320   8.340  14.550
 3762DOPG   C4A67004   7.400   8.700  14.370
 3762DOPG   C1B67005   7.960   8.210  14.860
 3762DOPG   D2B67006   8.030   8.640  14.850
 3762DOPG   C3B67007   7.900   8.890  14.500
 3762DOPG   C4B67008   7.650   9.150  14.250
 3763DOPG   GL067009  13.450  20.950  12.230
 3763DOPG   PO467010  13.290  20.770  11.850
 3763DOPG   GL167011  13.710  20.900  11.730
 3763DOPG   GL267012  13.860  20.640  11.650
 3763DOPG   C1A67013  13.810  20.850  11.250
 3763DOPG   D2A67014  13.720  21.020  10.880
 3763DOPG   C3A67015  13.390  21.310  10.850
 3763DOPG   C4A67016  13.040  21.490  10.990
 3763DOPG   C1B67017  14.260  20.590  11.330
 3763DOPG   D2B67018  14.520  20.550  10.980
 3763DOPG   C3B67019  14.820  20.720  11.180
 3763DOPG   C4B67020  15.140  20.740  11.390
 3764DOPG   GL067021  10.280  16.910  20.580
 3764DOPG   PO467022  10.570  17.160  20.880
 3764DOPG   GL167023  10.580  17.380  20.580
 3764DOPG   GL267024  10.530  17.710  20.690
 3764DOPG   C1A67025  10.430  17.280  20.180
 3764DOPG   D2A67026  10.630  17.550  19.830
 3764DOPG   C3A67027  11.070  17.350  19.690
 3764DOPG   C4A67028  11.320  17.670  19.460
 3764DOPG   C1B67029  10.580  17.850  20.280
 3764DOPG   D2B67030  10.600  18.250  20.020
 3764DOPG   C3B67031  10.700  18.360  19.600
 3764DOPG   C4B67032  10.830  18.530  19.160
 3765DOPG   GL067033  14.530  19.180  12.430
 3765DOPG   PO467034  14.490  18.960  12.010
 3765DOPG   GL167035  14.780  18.710  12.170
 3765DOPG   GL267036  14.670  18.390  12.160
 3765DOPG   C1A67037  15.140  18.480  12.050
 3765DOPG   D2A67038  15.670  18.570  12.050
 3765DOPG   C3A67039  15.920  18.460  12.460
 3765DOPG   C4A67040  16.210  18.710  12.710
 3765DOPG   C1B67041  14.820  18.180  11.770
 3765DOPG   D2B67042  14.930  18.230  11.320
 3765DOPG   C3B67043  15.020  18.570  11.080
 3765DOPG   C4B67044  15.350  18.820  11.020
 3766DOPG   GL067045  13.940  21.200  17.790
 3766DOPG   PO467046  13.540  21.110  17.790
 3766DOPG   GL167047  13.260  21.060  18.070
 3766DOPG   GL267048  13.080  20.790  18.110
 3766DOPG   C1A67049  13.220  21.190  18.470
 3766DOPG   D2A67050  13.380  21.260  18.950
 3766DOPG   C3A67051  13.730  21.230  18.910
 3766DOPG   C4A67052  14.040  21.620  18.990
 3766DOPG   C1B67053  13.330  20.680  18.410
 3766DOPG   D2B67054  13.510  20.750  18.750
 3766DOPG   C3B67055  13.750  20.420  18.910
 3766DOPG   C4B67056  13.800  20.000  18.660
 3767DOPG   GL067057  14.640  15.910  14.700
 3767DOPG   PO467058  14.220  15.860  14.950
 3767DOPG   GL167059  14.530  15.500  14.990
 3767DOPG   GL267060  14.490  15.260  14.750
 3767DOPG   C1A67061  14.950  15.480  15.130
 3767DOPG   D2A67062  15.110  15.650  15.520
 3767DOPG   C3A67063  14.710  15.690  15.550
 3767DOPG   C4A67064  14.520  15.690  15.860
 3767DOPG   C1B67065  14.940  15.400  14.630
 3767DOPG   D2B67066  15.400  15.440  14.280
 3767DOPG   C3B67067  15.480  15.060  13.980
 3767DOPG   C4B67068  15.570  14.850  13.770
 3768DOPG   GL067069  10.330  22.000  15.300
 3768DOPG   PO467070  10.130  22.300  14.960
 3768DOPG   GL167071  10.100  22.620  14.750
 3768DOPG   GL267072  10.310  22.880  14.990
 3768DOPG   C1A67073   9.910  22.980  14.550
 3768DOPG   D2A67074   9.690  23.030  14.220
 3768DOPG   C3A67075   9.270  22.860  14.020
 3768DOPG   C4A67076   9.330  22.480  13.940
 3768DOPG   C1B67077  10.310  23.250  14.720
 3768DOPG   D2B67078  10.060  23.440  14.320
 3768DOPG   C3B67079  10.200  23.710  14.010
 3768DOPG   C4B67080  10.110  24.080  13.750
 3769DOPG   GL067081  11.150  15.900  15.960
 3769DOPG   PO467082  11.090  15.520  16.190
 3769DOPG   GL167083  10.880  15.270  16.570
 3769DOPG   GL267084  10.550  15.360  16.500
 3769DOPG   C1A67085  11.060  15.060  17.000
 3769DOPG   D2A67086  11.040  14.670  17.340
 3769DOPG   C3A67087  10.840  14.710  17.720
 3769DOPG   C4A67088  10.440  14.610  17.840
 3769DOPG   C1B67089  10.400  14.990  16.710
 3769DOPG   D2B67090  10.110  14.750  16.850
 3769DOPG   C3B67091  10.110  14.220  16.710
 3769DOPG   C4B67092   9.740  13.980  16.860
 3770DOPG   GL067093  13.360  21.460  15.920
 3770DOPG   PO467094  13.690  21.450  16.070
 3770DOPG   GL167095  13.930  21.650  16.300
 3770DOPG   GL267096  14.040  21.580  16.590
 3770DOPG   C1A67097  14.400  21.900  16.210
 3770DOPG   D2A67098  14.700  22.230  16.180
 3770DOPG   C3A67099  14.740  22.470  16.560
 3770DOPG   C4A67100  14.570  22.840  16.840
 3770DOPG   C1B67101  14.410  21.800  16.850
 3770DOPG   D2B67102  14.640  21.920  16.630
 3770DOPG   C3B67103  15.050  21.740  16.520
 3770DOPG   C4B67104  15.420  21.660  16.790
 3771DOPG   GL067105   9.060  16.880  15.090
 3771DOPG   PO467106   8.890  17.070  15.390
 3771DOPG   GL167107   8.430  16.990  15.680
 3771DOPG   GL267108   8.420  16.730  15.770
 3771DOPG   C1A67109   8.030  17.190  15.930
 3771DOPG   D2A67110   7.600  17.090  16.030
 3771DOPG   C3A67111   7.210  17.380  15.880
 3771DOPG   C4A67112   6.870  17.620  15.890
 3771DOPG   C1B67113   8.130  16.390  15.620
 3771DOPG   D2B67114   8.070  16.280  15.250
 3771DOPG   C3B67115   8.150  15.950  15.040
 3771DOPG   C4B67116   8.480  15.620  15.200
 3772DOPG   GL067117   2.660  27.370   8.950
 3772DOPG   PO467118   2.690  26.900   8.780
 3772DOPG   GL167119   2.990  26.770   8.980
 3772DOPG   GL267120   3.080  26.830   9.320
 3772DOPG   C1A67121   3.090  26.390   9.120
 3772DOPG   D2A67122   3.150  25.990   9.060
 3772DOPG   C3A67123   3.420  25.830   9.240
 3772DOPG   C4A67124   3.680  25.450   9.120
 3772DOPG   C1B67125   3.500  26.810   9.380
 3772DOPG   D2B67126   3.680  26.640   9.770
 3772DOPG   C3B67127   3.780  26.580  10.240
 3772DOPG   C4B67128   3.730  26.590  10.700
  36.36336  36.36336  29.47709
